Title
82309
    1SAPS     N    1   1.879   0.522  11.070 -0.3050  0.5621 -0.5196
    1SAPS   HN1    2   1.917   0.619  11.068 -0.5343  0.7503  1.6207
    1SAPS   HN2    3   1.804   0.503  11.001  0.1249  1.2294 -1.1874
    1SAPS   HN3    4   1.819   0.505  11.154 -1.5200 -1.7112 -1.7506
    1SAPS   C12    5   1.972   0.405  11.061  0.3424 -0.4568  0.5556
    1SAPS  H12A    6   2.048   0.431  10.989 -2.3239  0.8093 -2.0065
    1SAPS   C13    7   2.016   0.356  11.209  0.2191  0.1630  0.2455
    1SAPS  O13A    8   1.978   0.416  11.311  0.1815 -0.2906 -0.9543
    1SAPS  O13B    9   2.131   0.300  11.213 -0.1351 -0.3673  0.4042
    1SAPS   C11   10   1.891   0.282  11.003 -0.1997  0.1269  0.0262
    1SAPS  H11A   11   1.957   0.194  11.016  2.1970  1.2869 -2.9156
    1SAPS  H11B   12   1.888   0.298  10.893 -1.1472 -0.8682 -0.1019
    1SAPS     P   13   1.715   0.105  11.063  0.1694 -0.1095  0.3169
    1SAPS   O13   14   1.788   0.045  11.178  0.4455  0.0616 -0.1986
    1SAPS   O14   15   1.564   0.087  11.053 -0.6638 -0.1739  0.1080
    1SAPS   O12   16   1.752   0.260  11.051 -0.0071 -0.1061  0.3893
    1SAPS   O11   17   1.780   0.053  10.926  0.1386  0.3409 -0.0843
    1SAPS    C1   18   1.737   0.082  10.794  0.8008  0.0378  0.1234
    1SAPS    HA   19   1.649   0.018  10.770 -0.3838  1.7647 -0.3252
    1SAPS    HB   20   1.696   0.185  10.792  1.2831  0.3819  3.1245
    1SAPS    C2   21   1.851   0.059  10.694  0.4824 -0.1749  0.1980
    1SAPS    HS   22   1.928   0.133  10.723  0.9509 -0.6544  0.1895
    1SAPS   O21   23   1.802   0.085  10.561 -0.1650 -0.2863  0.3194
    1SAPS   C21   24   1.792   0.218  10.543  0.3651 -0.5488 -0.0267
    1SAPS   O22   25   1.824   0.299  10.630 -0.2464 -0.0562  0.3352
    1SAPS   C22   26   1.740   0.253  10.400 -0.2187  0.5712 -0.3830
    1SAPS   H2R   27   1.779   0.173  10.333  0.9909 -0.7464  1.7800
    1SAPS   H2S   28   1.629   0.244  10.403 -0.2776  0.4400 -1.9397
    1SAPS    C3   29   1.910  -0.085  10.698  0.4219 -0.3623  0.3752
    1SAPS    HX   30   1.833  -0.157  10.735  2.0474 -1.5645  1.5519
    1SAPS    HY   31   1.992  -0.092  10.772  1.1958  1.9444 -0.1904
    1SAPS   O31   32   1.945  -0.124  10.566 -0.0200 -0.0610 -0.1595
    1SAPS   C31   33   2.035  -0.211  10.548 -0.2501  0.5104  0.1095
    1SAPS   O32   34   2.079  -0.291  10.630 -0.0180 -0.1860  0.1356
    1SAPS   C32   35   2.082  -0.200  10.399  0.0468 -0.2129  0.4024
    1SAPS   H2X   36   2.163  -0.275  10.386 -1.0823 -1.3726 -0.2442
    1SAPS   H2Y   37   2.121  -0.099  10.378  0.6264 -0.3331  0.8765
    1SAPS   C23   38   1.786   0.390  10.350 -0.3359  0.2798 -0.0197
    1SAPS   H3R   39   1.896   0.393  10.360 -0.1625  0.7438 -1.7504
    1SAPS   H3S   40   1.753   0.470  10.421  1.8098  0.3178  1.0192
    1SAPS   C24   41   1.749   0.427  10.208 -0.0209 -0.0347 -0.2649
    1SAPS   H4R   42   1.796   0.350  10.143 -0.0316 -0.7069  0.5176
    1SAPS   H4S   43   1.782   0.527  10.170 -2.1018  0.4185 -1.0277
    1SAPS   C25   44   1.599   0.438  10.188  0.1613  0.0372 -0.5937
    1SAPS   H5R   45   1.546   0.498  10.264 -0.0960 -0.4334 -0.3967
    1SAPS   C26   46   1.527   0.353  10.114 -0.6448  0.0136 -0.7045
    1SAPS   H6R   47   1.418   0.360  10.126 -0.7731 -0.8778 -1.2688
    1SAPS   C27   48   1.583   0.242  10.037  0.0376  0.0063 -0.0794
    1SAPS   H7R   49   1.653   0.178  10.094 -0.1504 -1.0065 -0.9652
    1SAPS   H7S   50   1.649   0.274   9.954 -0.7863 -0.3117 -0.8787
    1SAPS   C28   51   1.478   0.154   9.979 -0.3290 -0.2632  0.7773
    1SAPS   H8R   52   1.469   0.163   9.869 -0.7595 -0.3612  0.8060
    1SAPS   C29   53   1.404   0.058  10.042 -0.3670 -0.1959  0.2255
    1SAPS   H9R   54   1.344  -0.017   9.988 -1.6601  1.4463 -0.6873
    1SAPS  C210   55   1.422   0.030  10.194 -0.0045 -0.5111  0.0756
    1SAPS  H10R   56   1.473   0.109  10.252  0.7587 -2.0807  1.6424
    1SAPS  H10S   57   1.492  -0.056  10.207  0.6111 -0.5603 -2.7399
    1SAPS  C211   58   1.284   0.015  10.247 -0.9914  0.2409 -0.1533
    1SAPS  H11R   59   1.246   0.105  10.298 -0.0652  0.1023  0.8022
    1SAPS  C212   60   1.204  -0.089  10.229 -0.2427 -1.0795  0.3989
    1SAPS  H12R   61   1.110  -0.101  10.284 -0.9805 -0.9158 -0.8040
    1SAPS  C213   62   1.247  -0.207  10.141 -1.0027  0.1325 -0.6399
    1SAPS  H13R   63   1.251  -0.302  10.199  0.1377  0.6392  0.1421
    1SAPS  H13S   64   1.348  -0.193  10.099 -0.4293  1.1691  0.9744
    1SAPS  C214   65   1.150  -0.226  10.031  0.2969 -0.6320  0.2418
    1SAPS  H14R   66   1.047  -0.210  10.067 -0.7164 -1.3206 -2.0854
    1SAPS  C215   67   1.174  -0.286   9.912  0.8466  0.1483  0.0837
    1SAPS  H15R   68   1.092  -0.288   9.838  0.8983 -1.6625  0.0536
    1SAPS  C216   69   1.311  -0.343   9.868  0.2922  0.6605  0.8491
    1SAPS  H16R   70   1.316  -0.453   9.858  0.0349  0.7919 -1.1942
    1SAPS  H16S   71   1.389  -0.305   9.937 -0.6850  2.1008  1.2068
    1SAPS  C217   72   1.337  -0.287   9.721 -0.0631  0.0212 -0.2872
    1SAPS  H17R   73   1.236  -0.273   9.677 -0.2136 -3.4063 -1.3330
    1SAPS  H17S   74   1.388  -0.364   9.660 -0.9170 -0.2759 -0.6419
    1SAPS  C218   75   1.426  -0.161   9.729 -0.2437 -0.4377  0.0952
    1SAPS  H18R   76   1.518  -0.195   9.782 -0.3554  0.7503  1.1038
    1SAPS  H18S   77   1.380  -0.077   9.786  1.7360 -0.9659  2.6882
    1SAPS  C219   78   1.462  -0.119   9.591 -0.0777  0.3231 -0.4973
    1SAPS  H19R   79   1.375  -0.098   9.526  0.7702  1.2139 -1.3765
    1SAPS  H19S   80   1.513  -0.205   9.542 -0.2068 -0.6341  0.9895
    1SAPS  C220   81   1.554   0.004   9.600 -0.7218 -0.4459  0.8895
    1SAPS  H20R   82   1.660  -0.017   9.622 -0.2680  0.8665  0.0780
    1SAPS  H20S   83   1.514   0.068   9.682 -0.0071  0.5638  0.4764
    1SAPS  H20T   84   1.544   0.055   9.501  1.2359 -0.7508  0.5009
    1SAPS   C33   85   1.966  -0.237  10.299  0.1294  0.4516  0.5144
    1SAPS   H3X   86   1.869  -0.235  10.352  0.2178  0.9772  0.6707
    1SAPS   H3Y   87   1.986  -0.337  10.256 -0.2336  0.9725 -0.9355
    1SAPS   C34   88   1.955  -0.125  10.196 -0.6949 -0.0971  1.0552
    1SAPS   H4X   89   2.053  -0.084  10.161 -0.9695 -0.1088  0.2482
    1SAPS   H4Y   90   1.917  -0.034  10.246 -0.7585 -0.6061  1.9431
    1SAPS   C35   91   1.864  -0.151  10.083 -0.0834  0.0311  0.1003
    1SAPS   H5X   92   1.859  -0.052  10.031  1.6527  0.5925  0.9060
    1SAPS   H5Y   93   1.771  -0.185  10.133  1.2028 -1.9607  1.2862
    1SAPS   C36   94   1.903  -0.268   9.987 -0.7153  0.7123 -0.0094
    1SAPS   H6X   95   1.899  -0.366  10.038  2.0789  1.2812  1.5364
    1SAPS   H6Y   96   2.011  -0.253   9.963 -0.7536  0.4122 -0.3734
    1SAPS   C37   97   1.827  -0.262   9.855 -0.1208  0.5838  0.0652
    1SAPS   H7X   98   1.848  -0.165   9.807 -1.0098  0.3668 -0.7877
    1SAPS   H7Y   99   1.717  -0.271   9.868 -0.2908  1.3432 -0.8074
    1SAPS   C38  100   1.866  -0.358   9.745 -0.2795  0.2994 -0.2918
    1SAPS   H8X  101   1.875  -0.463   9.780 -0.9456  0.3761  0.1226
    1SAPS   H8Y  102   1.969  -0.331   9.713  0.2879 -1.0599  0.3367
    1SAPS   C39  103   1.764  -0.348   9.625 -0.1098  0.8398  0.5176
    1SAPS   H9X  104   1.762  -0.239   9.603  0.1290  0.8866  0.7158
    1SAPS   H9Y  105   1.667  -0.382   9.667 -0.6630  2.3337  0.5094
    1SAPS  C310  106   1.807  -0.454   9.519  0.1775 -0.4147  0.0458
    1SAPS  H10X  107   1.803  -0.553   9.569  0.3398 -1.3594 -1.7329
    1SAPS  H10Y  108   1.913  -0.437   9.488 -0.3412  0.5432 -1.3020
    1SAPS  C311  109   1.713  -0.450   9.404 -0.0119 -0.4573  0.3700
    1SAPS  H11X  110   1.717  -0.344   9.370  3.2428 -0.7273 -0.3691
    1SAPS  H11Y  111   1.611  -0.472   9.442 -1.0124  1.6072 -0.8763
    1SAPS  C312  112   1.754  -0.558   9.301 -0.0663  0.2123 -0.8581
    1SAPS  H12X  113   1.777  -0.647   9.363 -0.6773  0.3008 -0.4908
    1SAPS  H12Y  114   1.844  -0.526   9.244 -0.8849 -0.5215 -2.5999
    1SAPS  C313  115   1.644  -0.594   9.198 -1.0094 -0.2552  0.3758
    1SAPS  H13X  116   1.624  -0.488   9.171 -0.9982 -0.1497  0.7855
    1SAPS  H13Y  117   1.554  -0.634   9.249  0.1667  0.6140  3.3182
    1SAPS  C314  118   1.695  -0.691   9.087  0.1854 -0.8272 -0.0964
    1SAPS  H14X  119   1.680  -0.794   9.125  1.6676 -0.7762  0.7349
    1SAPS  H14Y  120   1.803  -0.672   9.068  0.2152  0.5847  1.2934
    1SAPS  C315  121   1.622  -0.669   8.954 -0.0808  0.2309  0.0658
    1SAPS  H15X  122   1.516  -0.700   8.971  0.6980 -2.1073  1.0519
    1SAPS  H15Y  123   1.664  -0.728   8.870  1.6426  0.7720  0.5058
    1SAPS  C316  124   1.616  -0.523   8.902 -0.1282 -0.3122 -0.3085
    1SAPS  H16X  125   1.725  -0.500   8.894  0.0807 -1.3950 -0.7396
    1SAPS  H16Y  126   1.572  -0.443   8.966  0.8123  0.8373 -1.0563
    1SAPS  C317  127   1.560  -0.505   8.761  0.1011  0.3369  0.8586
    1SAPS  H17X  128   1.461  -0.554   8.758  1.0289 -1.5648 -0.3207
    1SAPS  H17Y  129   1.632  -0.531   8.681  0.3397  0.0339  1.1659
    1SAPS  C318  130   1.547  -0.351   8.726 -0.4226  0.3207 -0.4486
    1SAPS  H18X  131   1.481  -0.301   8.801 -1.5409 -0.7184 -0.7022
    1SAPS  H18Y  132   1.520  -0.335   8.619  0.4518  1.9695 -0.4611
    1SAPS  H18Z  133   1.649  -0.312   8.746  0.2991 -1.7838  0.2488
    2SAPS     N  134   1.838   1.321  10.693 -0.0568  0.1489 -0.2286
    2SAPS   HN1  135   1.910   1.314  10.618 -0.7184 -2.0015 -0.7446
    2SAPS   HN2  136   1.765   1.391  10.673  0.4052  0.6960 -0.0244
    2SAPS   HN3  137   1.888   1.350  10.779 -1.4982  0.7926  0.4245
    2SAPS   C12  138   1.780   1.185  10.721  0.4345 -0.6282 -0.3475
    2SAPS  H12A  139   1.771   1.133  10.627  1.0995  0.6397 -1.1301
    2SAPS   C13  140   1.858   1.088  10.802 -0.7212  0.4574 -0.1155
    2SAPS  O13A  141   1.960   1.123  10.862 -0.4193  0.1202 -0.2911
    2SAPS  O13B  142   1.832   0.970  10.781 -0.9088 -0.0459 -0.7110
    2SAPS   C11  143   1.631   1.189  10.778  0.3270  0.6203 -0.1599
    2SAPS  H11A  144   1.646   1.208  10.886  0.5688  2.4609 -0.4921
    2SAPS  H11B  145   1.586   1.087  10.783 -1.1362  1.2927  0.9343
    2SAPS     P  146   1.452   1.285  10.618 -0.2460 -0.2143  0.0556
    2SAPS   O13  147   1.335   1.211  10.676  0.5601 -0.3904  0.5460
    2SAPS   O14  148   1.423   1.427  10.572  0.2897  0.1156 -0.1045
    2SAPS   O12  149   1.557   1.302  10.731  0.1753  0.6714 -0.4050
    2SAPS   O11  150   1.532   1.208  10.506 -0.4488 -0.0666  0.0831
    2SAPS    C1  151   1.623   1.278  10.419 -0.7713  0.5740 -0.1122
    2SAPS    HA  152   1.611   1.387  10.404  1.3654  0.8169 -0.3897
    2SAPS    HB  153   1.724   1.251  10.459 -1.3670 -0.9484  0.4546
    2SAPS    C2  154   1.610   1.213  10.282  0.2893 -0.5823 -0.7855
    2SAPS    HS  155   1.625   1.106  10.308 -2.3589 -0.7004  0.5193
    2SAPS   O21  156   1.720   1.255  10.203 -0.9056 -0.0299  0.0681
    2SAPS   C21  157   1.741   1.188  10.088  0.2839 -0.1173  0.3674
    2SAPS   O22  158   1.740   1.066  10.077 -0.0987  0.1926 -0.0747
    2SAPS   C22  159   1.790   1.283   9.976 -0.4789 -0.2339  0.5660
    2SAPS   H2R  160   1.702   1.325   9.923 -0.4647 -2.7165 -1.6941
    2SAPS   H2S  161   1.842   1.365  10.029 -0.0331 -0.3431  0.2966
    2SAPS    C3  162   1.465   1.214  10.217  0.0949  0.0860 -0.3514
    2SAPS    HX  163   1.450   1.310  10.162  1.1150 -1.1233 -2.8991
    2SAPS    HY  164   1.392   1.191  10.297  0.6123  0.0523  0.1140
    2SAPS   O31  165   1.461   1.102  10.123  0.0207 -0.2334  0.4932
    2SAPS   C31  166   1.435   0.980  10.172  1.0267 -0.4856  0.8881
    2SAPS   O32  167   1.410   0.957  10.288 -0.5758  0.3908  0.5667
    2SAPS   C32  168   1.422   0.879  10.064  0.2704  0.1944  0.4380
    2SAPS   H2X  169   1.524   0.856  10.025 -0.0419 -0.5842  0.0576
    2SAPS   H2Y  170   1.351   0.922   9.990 -1.6533 -3.3438 -0.0038
    2SAPS   C23  171   1.887   1.210   9.869  0.1988  0.3149 -0.2333
    2SAPS   H3R  172   1.839   1.132   9.807 -2.5805  1.8019 -0.1157
    2SAPS   H3S  173   1.961   1.158   9.934 -0.0751 -0.4611 -0.5286
    2SAPS   C24  174   1.977   1.307   9.787 -0.0137 -0.1533  0.4045
    2SAPS   H4R  175   2.066   1.249   9.756  1.2902  0.6181  2.5249
    2SAPS   H4S  176   2.003   1.369   9.876 -0.7795  0.1873  0.4037
    2SAPS   C25  177   1.885   1.370   9.680  0.0241  0.6261  0.3574
    2SAPS   H5R  178   1.801   1.428   9.721  0.3146  1.9385 -0.7964
    2SAPS   C26  179   1.896   1.373   9.543  0.4669  0.5566  0.3059
    2SAPS   H6R  180   1.815   1.421   9.487  0.2573 -0.6111 -0.4347
    2SAPS   C27  181   2.001   1.313   9.456  0.1301  0.8248 -0.2329
    2SAPS   H7R  182   2.092   1.285   9.512 -0.3517  2.8196  1.6827
    2SAPS   H7S  183   2.034   1.386   9.378 -0.1628  0.3474 -0.8153
    2SAPS   C28  184   1.958   1.180   9.397  0.0241 -0.2858  0.3588
    2SAPS   H8R  185   1.982   1.097   9.465 -1.2369 -1.4109 -0.5393
    2SAPS   C29  186   1.896   1.159   9.276  0.1909 -0.6477  0.7545
    2SAPS   H9R  187   1.874   1.060   9.236 -1.8847  0.9870 -2.5758
    2SAPS  C210  188   1.852   1.278   9.188  0.6527 -0.3731  0.1222
    2SAPS  H10R  189   1.944   1.309   9.134 -0.2743  0.8957 -0.7720
    2SAPS  H10S  190   1.832   1.372   9.245 -3.1362 -2.2462  2.2403
    2SAPS  C211  191   1.732   1.254   9.108 -0.5391  0.1985 -0.9846
    2SAPS  H11R  192   1.744   1.178   9.029 -2.5612  1.0025 -2.1464
    2SAPS  C212  193   1.610   1.310   9.125 -0.1133 -0.0335  0.1847
    2SAPS  H12R  194   1.532   1.276   9.055 -0.8536 -0.6010  1.2569
    2SAPS  C213  195   1.567   1.410   9.225  0.7189 -0.4126 -0.3436
    2SAPS  H13R  196   1.627   1.391   9.316  1.6228 -3.5939 -1.4585
    2SAPS  H13S  197   1.460   1.402   9.254  0.7530  3.1328  1.2822
    2SAPS  C214  198   1.592   1.556   9.175 -0.3655  0.8079  0.6510
    2SAPS  H14R  199   1.649   1.566   9.082 -1.2138  1.0604  0.1411
    2SAPS  C215  200   1.523   1.661   9.215 -0.6083  0.2143  0.6483
    2SAPS  H15R  201   1.540   1.759   9.167 -0.0839 -0.3100 -0.2485
    2SAPS  C216  202   1.426   1.662   9.325  0.2204  0.4431 -0.1465
    2SAPS  H16R  203   1.469   1.650   9.427  0.5462 -1.5470 -0.4747
    2SAPS  H16S  204   1.356   1.577   9.310  1.3105 -0.1953 -2.0434
    2SAPS  C217  205   1.341   1.785   9.314 -0.0796  0.2269 -0.2497
    2SAPS  H17R  206   1.313   1.809   9.209  2.5423 -0.1240 -1.0974
    2SAPS  H17S  207   1.417   1.860   9.345  1.9345 -0.5886 -2.8860
    2SAPS  C218  208   1.223   1.789   9.406 -0.3466  0.3893 -0.0720
    2SAPS  H18R  209   1.144   1.736   9.349  1.4546 -1.7299 -0.7317
    2SAPS  H18S  210   1.198   1.897   9.419  1.8906  1.3385 -2.5491
    2SAPS  C219  211   1.238   1.720   9.540  0.1114  0.5607 -0.5431
    2SAPS  H19R  212   1.321   1.759   9.603 -0.2214  0.5133 -0.0670
    2SAPS  H19S  213   1.255   1.616   9.507  1.2138  0.8328 -0.8623
    2SAPS  C220  214   1.114   1.720   9.625  0.7980  0.1115 -0.1179
    2SAPS  H20R  215   1.134   1.678   9.726  0.9911  2.8255  1.0808
    2SAPS  H20S  216   1.024   1.675   9.579  0.9554  1.8125 -2.2802
    2SAPS  H20T  217   1.078   1.824   9.641 -0.5421 -0.5035  1.1053
    2SAPS   C33  218   1.360   0.751  10.107 -0.1183  0.1152 -0.5623
    2SAPS   H3X  219   1.273   0.774  10.172 -0.6598 -1.9103 -0.5240
    2SAPS   H3Y  220   1.428   0.686  10.166 -2.5965 -1.1013  1.1248
    2SAPS   C34  221   1.305   0.666   9.990 -0.5246 -0.4174  0.3101
    2SAPS   H4X  222   1.212   0.715   9.952 -0.2741  0.9744  1.4409
    2SAPS   H4Y  223   1.281   0.570  10.039 -0.1217 -1.6501 -1.7750
    2SAPS   C35  224   1.402   0.640   9.874  0.0279  0.7598  0.1253
    2SAPS   H5X  225   1.505   0.608   9.900  0.9074  1.6136 -1.9983
    2SAPS   H5Y  226   1.399   0.738   9.821  1.9655  0.1838 -1.1840
    2SAPS   C36  227   1.349   0.525   9.783  0.1794 -0.1588 -0.1186
    2SAPS   H6X  228   1.245   0.551   9.755  0.3648  0.1513 -0.5196
    2SAPS   H6Y  229   1.346   0.428   9.838 -2.4808  0.0216  0.1828
    2SAPS   C37  230   1.428   0.507   9.654  0.6307 -0.8157 -0.1342
    2SAPS   H7X  231   1.524   0.462   9.689 -0.5339 -0.9417  3.2356
    2SAPS   H7Y  232   1.454   0.609   9.617 -1.4401  0.3939  1.5231
    2SAPS   C38  233   1.372   0.418   9.536 -0.0990 -0.0001 -0.6976
    2SAPS   H8X  234   1.297   0.469   9.473 -1.0678  1.1680  1.3148
    2SAPS   H8Y  235   1.324   0.333   9.587  1.0955 -0.1574  0.2173
    2SAPS   C39  236   1.489   0.373   9.440  0.4601  0.0894 -0.0412
    2SAPS   H9X  237   1.573   0.318   9.489  1.5413  0.4120 -1.4625
    2SAPS   H9Y  238   1.531   0.463   9.391 -1.0525 -0.5539 -2.7225
    2SAPS  C310  239   1.450   0.270   9.332 -0.2507 -0.2229  0.1627
    2SAPS  H10X  240   1.355   0.296   9.282 -0.0221 -0.4565 -0.3984
    2SAPS  H10Y  241   1.418   0.178   9.385 -2.3233  0.5491  0.3383
    2SAPS  C311  242   1.570   0.241   9.241 -0.2737  0.6023 -0.8801
    2SAPS  H11X  243   1.657   0.209   9.302 -2.6247 -1.2562  1.7831
    2SAPS  H11Y  244   1.597   0.339   9.195 -0.1974  0.3311 -1.4190
    2SAPS  C312  245   1.539   0.154   9.118 -0.0688 -0.5019 -0.8022
    2SAPS  H12X  246   1.611   0.169   9.035  1.6707  0.3611  0.7832
    2SAPS  H12Y  247   1.436   0.174   9.080 -0.5029 -1.2119 -0.0207
    2SAPS  C313  248   1.532  -0.001   9.152 -0.1007  0.3787  0.2673
    2SAPS  H13X  249   1.458  -0.006   9.235 -0.4128  1.5757  0.0901
    2SAPS  H13Y  250   1.634  -0.036   9.179  0.6261  0.8972 -1.5950
    2SAPS  C314  251   1.461  -0.095   9.044  0.1032 -0.4786  0.3832
    2SAPS  H14X  252   1.525  -0.102   8.954  0.2538 -0.6314  0.5009
    2SAPS  H14Y  253   1.360  -0.052   9.029 -0.0854  0.4858  3.6266
    2SAPS  C315  254   1.439  -0.241   9.087  0.2661 -0.2747 -0.1571
    2SAPS  H15X  255   1.540  -0.276   9.118  0.5494  0.7030  0.0530
    2SAPS  H15Y  256   1.405  -0.301   9.000 -0.8430 -0.4403  0.3785
    2SAPS  C316  257   1.347  -0.263   9.204  0.9874  0.5122  0.1632
    2SAPS  H16X  258   1.243  -0.231   9.183  0.1328 -1.6132  0.8840
    2SAPS  H16Y  259   1.390  -0.211   9.292  0.8339 -0.4492  0.8204
    2SAPS  C317  260   1.322  -0.413   9.239  0.3742 -0.3522  0.1596
    2SAPS  H17X  261   1.414  -0.475   9.251  0.3147 -0.7237 -1.1195
    2SAPS  H17Y  262   1.274  -0.445   9.144 -0.5700  1.2789  0.0704
    2SAPS  C318  263   1.220  -0.421   9.359 -0.1241 -1.0401  0.5137
    2SAPS  H18X  264   1.258  -0.391   9.459  1.4658  0.9782 -0.6431
    2SAPS  H18Y  265   1.187  -0.527   9.370  2.3175 -1.9690 -0.5496
    2SAPS  H18Z  266   1.130  -0.358   9.344  0.5305 -0.4469 -1.0500
    3SAPS     N  267   1.139   2.060  10.708 -0.5344  0.0264  0.3291
    3SAPS   HN1  268   1.209   1.986  10.687 -0.4877  0.3189 -0.5896
    3SAPS   HN2  269   1.055   2.040  10.649 -0.2907 -1.9760  0.5893
    3SAPS   HN3  270   1.173   2.152  10.675 -0.2770 -0.5317 -1.0354
    3SAPS   C12  271   1.103   2.051  10.851 -0.4428 -0.0647 -0.6603
    3SAPS  H12A  272   1.026   2.125  10.868 -0.9313 -0.4420 -1.2075
    3SAPS   C13  273   1.060   1.913  10.918  0.2095  0.5585  0.0449
    3SAPS  O13A  274   1.047   1.806  10.852 -0.8946  0.3586  0.0702
    3SAPS  O13B  275   1.036   1.907  11.041  0.1584 -0.9901  0.6840
    3SAPS   C11  276   1.222   2.105  10.928  0.4036  0.3404  0.9056
    3SAPS  H11A  277   1.305   2.032  10.921 -0.1205 -0.1179 -1.3704
    3SAPS  H11B  278   1.194   2.120  11.034 -3.9867  2.4535 -0.3042
    3SAPS     P  279   1.389   2.288  10.846  0.4225 -0.1136  0.0513
    3SAPS   O13  280   1.369   2.428  10.806  0.1268  0.2765 -0.2120
    3SAPS   O14  281   1.490   2.258  10.951 -0.1912  0.3321 -0.3200
    3SAPS   O12  282   1.247   2.240  10.890 -0.6791  0.2870 -0.1972
    3SAPS   O11  283   1.413   2.196  10.721  0.2298 -0.7470 -0.3707
    3SAPS    C1  284   1.468   2.255  10.602 -1.1142  0.2880  0.6641
    3SAPS    HA  285   1.382   2.310  10.558 -1.6520  0.4416  1.8713
    3SAPS    HB  286   1.549   2.329  10.623 -0.5210 -0.3604  0.6835
    3SAPS    C2  287   1.523   2.146  10.505 -0.1839 -0.5224 -0.8207
    3SAPS    HS  288   1.606   2.096  10.560 -1.3231 -2.8452 -1.0987
    3SAPS   O21  289   1.562   2.213  10.390  0.4368  0.4574 -0.3004
    3SAPS   C21  290   1.667   2.173  10.328 -0.3022 -0.3220 -0.4162
    3SAPS   O22  291   1.741   2.087  10.369 -0.6495  0.2067 -0.4474
    3SAPS   C22  292   1.696   2.246  10.197  0.4298  0.1303 -0.2707
    3SAPS   H2R  293   1.738   2.343  10.229 -0.0385  0.5668 -0.9556
    3SAPS   H2S  294   1.774   2.182  10.149  1.6384  0.2854  1.4059
    3SAPS    C3  295   1.410   2.047  10.476  0.5280  0.2175  0.4442
    3SAPS    HX  296   1.385   2.006  10.576  2.7773 -2.7328 -0.0653
    3SAPS    HY  297   1.450   1.962  10.416 -1.7831  0.5627 -1.7905
    3SAPS   O31  298   1.285   2.099  10.420 -0.4423  0.1139  0.2170
    3SAPS   C31  299   1.271   2.074  10.289  0.2851 -0.2565 -1.4141
    3SAPS   O32  300   1.355   2.023  10.222 -0.0585 -0.7053  0.4947
    3SAPS   C32  301   1.137   2.121  10.235 -0.0666 -0.3426 -0.4223
    3SAPS   H2X  302   1.112   2.211  10.295 -0.7458 -0.3388 -0.6995
    3SAPS   H2Y  303   1.060   2.042  10.254  2.2040 -2.5538  0.0572
    3SAPS   C23  304   1.576   2.264  10.100  0.6078  0.9133 -0.5213
    3SAPS   H3R  305   1.506   2.336  10.146  0.3181 -0.2075  0.8578
    3SAPS   H3S  306   1.515   2.171  10.093  0.5474  0.9414 -0.3739
    3SAPS   C24  307   1.622   2.302   9.958  0.0519  0.1491  0.3466
    3SAPS   H4R  308   1.670   2.219   9.902  1.5805  1.5155 -0.4768
    3SAPS   H4S  309   1.711   2.368   9.972 -0.1529  0.5685 -0.2714
    3SAPS   C25  310   1.515   2.368   9.871  0.5057  1.1636 -0.0599
    3SAPS   H5R  311   1.487   2.472   9.895 -2.0192  0.5279 -0.0150
    3SAPS   C26  312   1.430   2.299   9.792 -0.2894 -0.9341 -0.3150
    3SAPS   H6R  313   1.357   2.356   9.732 -0.5346 -0.5778  0.3213
    3SAPS   C27  314   1.431   2.148   9.768  0.3985  0.1757 -0.4906
    3SAPS   H7R  315   1.404   2.089   9.859 -0.5353  1.5638  0.1665
    3SAPS   H7S  316   1.537   2.123   9.744  0.3111  0.1502 -0.8554
    3SAPS   C28  317   1.347   2.096   9.656  0.1122 -1.0422  0.3820
    3SAPS   H8R  318   1.272   2.024   9.693 -1.7316  0.6647  0.1424
    3SAPS   C29  319   1.337   2.126   9.527 -0.2820 -0.9615  0.4843
    3SAPS   H9R  320   1.251   2.089   9.469 -0.7585 -0.2414  0.7197
    3SAPS  C210  321   1.429   2.230   9.460 -0.0653 -0.1286 -0.0756
    3SAPS  H10R  322   1.534   2.211   9.489  0.2240  1.0972 -0.2498
    3SAPS  H10S  323   1.401   2.336   9.481  1.5707  0.3743 -0.2897
    3SAPS  C211  324   1.409   2.213   9.306 -0.1257  0.3740  0.3607
    3SAPS  H11R  325   1.312   2.252   9.270 -0.9909 -0.5854  1.5550
    3SAPS  C212  326   1.500   2.168   9.211  0.2714 -0.3952 -1.2652
    3SAPS  H12R  327   1.470   2.172   9.105 -1.3335 -0.2514 -0.8361
    3SAPS  C213  328   1.644   2.127   9.240  0.6083 -0.3763  0.1125
    3SAPS  H13R  329   1.631   2.017   9.250 -0.8122 -0.4550 -1.8642
    3SAPS  H13S  330   1.676   2.163   9.340 -0.7012 -1.1097  0.8315
    3SAPS  C214  331   1.740   2.167   9.133 -0.4319  0.4435 -0.4976
    3SAPS  H14R  332   1.795   2.260   9.150  0.0762  0.1402 -0.4723
    3SAPS  C215  333   1.773   2.094   9.026 -0.0792  0.2162  0.1510
    3SAPS  H15R  334   1.842   2.135   8.951  1.1373  0.0319  1.1350
    3SAPS  C216  335   1.718   1.950   9.000 -0.1562  0.2858  0.1292
    3SAPS  H16R  336   1.630   1.917   9.060  0.2574 -0.7416  0.1849
    3SAPS  H16S  337   1.799   1.883   9.033 -1.6107 -1.0616  1.0889
    3SAPS  C217  338   1.695   1.936   8.854  0.2152 -0.2873 -0.2310
    3SAPS  H17R  339   1.786   1.961   8.795 -0.0379 -0.4604 -0.7098
    3SAPS  H17S  340   1.615   2.010   8.830  0.3158  0.2298  1.0069
    3SAPS  C218  341   1.642   1.792   8.824  0.9710 -0.2548  0.2420
    3SAPS  H18R  342   1.621   1.808   8.716  1.6804  0.8222  0.2453
    3SAPS  H18S  343   1.544   1.760   8.867 -0.1234  0.1410 -1.8019
    3SAPS  C219  344   1.749   1.689   8.844  0.3001  0.3305  0.4475
    3SAPS  H19R  345   1.764   1.672   8.953 -0.0102  3.0978  1.0105
    3SAPS  H19S  346   1.845   1.723   8.799  0.8967 -0.5368  1.0349
    3SAPS  C220  347   1.719   1.560   8.764  0.0121  0.2571  0.0218
    3SAPS  H20R  348   1.730   1.580   8.656  1.3547 -1.6389 -0.2402
    3SAPS  H20S  349   1.614   1.536   8.790 -0.4404  2.4075  0.3749
    3SAPS  H20T  350   1.785   1.479   8.801 -1.1361 -0.2973  0.9098
    3SAPS   C33  351   1.147   2.173  10.089  0.5584  0.2578  0.0683
    3SAPS   H3X  352   1.137   2.081  10.029 -0.1885  0.6544 -0.4198
    3SAPS   H3Y  353   1.246   2.222  10.071  0.7776  0.4004  1.4879
    3SAPS   C34  354   1.041   2.274  10.063 -0.2386  0.0269 -0.7113
    3SAPS   H4X  355   1.037   2.361  10.132  0.0827 -0.3690 -0.1873
    3SAPS   H4Y  356   0.940   2.228  10.073 -0.7476  1.1053 -0.6595
    3SAPS   C35  357   1.059   2.340   9.928 -0.1737 -0.2100 -0.0358
    3SAPS   H5X  358   1.167   2.361   9.910 -0.1156  0.8312  1.3144
    3SAPS   H5Y  359   0.996   2.431   9.916  0.0687 -0.1789 -1.1445
    3SAPS   C36  360   1.011   2.238   9.821  0.6764 -0.5520 -0.1926
    3SAPS   H6X  361   0.904   2.215   9.841  0.2322  1.6188  0.1615
    3SAPS   H6Y  362   1.073   2.146   9.829  2.0825  0.3458 -0.3932
    3SAPS   C37  363   1.029   2.301   9.684 -0.0155 -1.0558 -0.4956
    3SAPS   H7X  364   1.138   2.320   9.666  0.3266 -1.4571  1.0325
    3SAPS   H7Y  365   0.966   2.391   9.665 -2.3528 -2.8880 -1.9476
    3SAPS   C38  366   0.967   2.210   9.580 -0.9836  0.9445  0.3750
    3SAPS   H8X  367   0.857   2.210   9.592 -1.0840  2.1620 -0.4478
    3SAPS   H8Y  368   1.008   2.111   9.610  1.5169  2.1089  1.1048
    3SAPS   C39  369   1.020   2.240   9.437  0.7346 -0.1993 -0.1759
    3SAPS   H9X  370   1.130   2.228   9.427  1.0278  1.8458  0.0351
    3SAPS   H9Y  371   1.004   2.344   9.399 -0.4230 -0.4321 -0.3770
    3SAPS  C310  372   0.972   2.134   9.334  0.1343  0.3845  0.1267
    3SAPS  H10X  373   0.862   2.134   9.347  0.2622 -1.8137  1.8487
    3SAPS  H10Y  374   1.019   2.037   9.360  0.2487  0.4390  0.1258
    3SAPS  C311  375   1.013   2.160   9.187 -0.4952  0.0452 -0.4919
    3SAPS  H11X  376   1.115   2.205   9.187 -1.3898  2.1944  0.6195
    3SAPS  H11Y  377   0.944   2.236   9.146 -0.2811  0.9481  0.7750
    3SAPS  C312  378   1.020   2.037   9.094  0.7547 -0.0003  0.0248
    3SAPS  H12X  379   0.917   1.996   9.091  0.4629  0.4551  2.1827
    3SAPS  H12Y  380   1.082   1.952   9.129 -1.1589 -1.3588  0.2664
    3SAPS  C313  381   1.060   2.070   8.952 -0.2987 -0.1717 -0.3832
    3SAPS  H13X  382   1.159   2.117   8.968 -0.8224  1.5518 -1.9334
    3SAPS  H13Y  383   1.001   2.152   8.907 -0.4393  0.4047  0.8236
    3SAPS  C314  384   1.061   1.957   8.855 -0.0949  1.0634 -0.2522
    3SAPS  H14X  385   0.963   1.918   8.819 -0.0873  0.9247 -0.1246
    3SAPS  H14Y  386   1.084   1.872   8.922 -0.5321  1.7214  0.7502
    3SAPS  C315  387   1.155   1.974   8.738 -0.6118 -0.5077 -0.1872
    3SAPS  H15X  388   1.261   1.976   8.772  0.2875  0.8306 -2.7751
    3SAPS  H15Y  389   1.142   2.073   8.688  0.1905 -0.8107 -1.0421
    3SAPS  C316  390   1.134   1.862   8.624  0.2191  1.1398 -0.1545
    3SAPS  H16X  391   1.029   1.867   8.589  0.4708 -0.3200 -1.2295
    3SAPS  H16Y  392   1.146   1.759   8.667 -0.2414  0.8588 -0.6953
    3SAPS  C317  393   1.229   1.881   8.510  0.1782  0.1752 -0.5628
    3SAPS  H17X  394   1.327   1.835   8.533 -0.2342 -0.9181 -0.9471
    3SAPS  H17Y  395   1.238   1.989   8.484  2.4641 -0.0336 -0.8388
    3SAPS  C318  396   1.166   1.806   8.392  0.1582 -1.5264 -0.1765
    3SAPS  H18X  397   1.133   1.702   8.416 -1.4486 -0.6218  1.8303
    3SAPS  H18Y  398   1.227   1.823   8.300 -0.0952  2.0598  0.2187
    3SAPS  H18Z  399   1.067   1.850   8.369  1.0048 -0.4128 -1.8517
    4SAPS     N  400   4.266   3.571  10.740 -0.3834  0.1472  0.1267
    4SAPS   HN1  401   4.278   3.674  10.735  1.1658  0.0119  0.5845
    4SAPS   HN2  402   4.358   3.535  10.772  1.2382  0.1891 -3.9006
    4SAPS   HN3  403   4.239   3.536  10.646 -0.8638 -0.6363  0.5416
    4SAPS   C12  404   4.160   3.535  10.841  0.6044 -0.4838  0.6607
    4SAPS  H12A  405   4.132   3.431  10.839 -1.5744  0.0485 -1.9074
    4SAPS   C13  406   4.191   3.562  10.992 -0.0397  0.1024 -0.6504
    4SAPS  O13A  407   4.305   3.607  11.027  0.1897 -0.6855  0.0210
    4SAPS  O13B  408   4.102   3.542  11.080  0.1420  0.0644 -0.4259
    4SAPS   C11  409   4.035   3.609  10.804  0.3087 -0.1349 -0.5934
    4SAPS  H11A  410   4.049   3.718  10.825 -0.7900 -0.6072  3.2398
    4SAPS  H11B  411   3.964   3.570  10.879 -0.3478  0.4896 -0.8729
    4SAPS     P  412   3.854   3.499  10.655 -0.1395  0.4499  0.2419
    4SAPS   O13  413   3.760   3.553  10.756 -0.8429 -0.0238  0.0050
    4SAPS   O14  414   3.815   3.497  10.508 -0.1609 -0.3725 -0.7277
    4SAPS   O12  415   3.985   3.582  10.673  0.0155 -0.5021 -0.1017
    4SAPS   O11  416   3.892   3.357  10.686  0.4150  0.1697  0.0154
    4SAPS    C1  417   4.007   3.282  10.642  0.1867 -0.6071  0.3101
    4SAPS    HA  418   4.077   3.355  10.595 -1.6389  0.7154 -0.5003
    4SAPS    HB  419   4.058   3.243  10.733 -1.4046 -2.8542  0.3137
    4SAPS    C2  420   3.975   3.172  10.545  0.2778  0.6814 -0.2989
    4SAPS    HS  421   4.073   3.132  10.510 -1.4312 -4.3895 -0.0612
    4SAPS   O21  422   3.892   3.227  10.440  0.4838 -0.5615 -0.5780
    4SAPS   C21  423   3.964   3.286  10.349 -0.2550 -0.2334 -0.8671
    4SAPS   O22  424   4.088   3.309  10.353  0.6066  0.6244 -0.1906
    4SAPS   C22  425   3.872   3.338  10.238 -0.0221 -0.5577 -0.1210
    4SAPS   H2R  426   3.776   3.285  10.219 -1.6414  2.5069 -1.2339
    4SAPS   H2S  427   3.841   3.429  10.294 -1.0471 -1.1037  0.2212
    4SAPS    C3  428   3.904   3.050  10.613 -0.6814 -0.2320  0.6537
    4SAPS    HX  429   3.812   3.091  10.659 -0.7465 -1.4849  1.6884
    4SAPS    HY  430   3.965   3.014  10.699 -0.0361 -0.1038  0.2600
    4SAPS   O31  431   3.897   2.934  10.525 -0.0819  0.0174 -0.4692
    4SAPS   C31  432   3.784   2.915  10.458  0.4855  0.3367 -0.4011
    4SAPS   O32  433   3.683   2.983  10.457  0.3147 -0.2329 -0.4437
    4SAPS   C32  434   3.798   2.796  10.369  0.9779  0.1599  0.9087
    4SAPS   H2X  435   3.848   2.720  10.432  1.1744  0.2890  0.9080
    4SAPS   H2Y  436   3.852   2.819  10.275 -1.0064 -1.5158 -0.7455
    4SAPS   C23  437   3.937   3.349  10.100 -0.7574  1.3003  0.0490
    4SAPS   H3R  438   4.042   3.385  10.114  0.5702 -1.0041 -2.8436
    4SAPS   H3S  439   3.889   3.427  10.037 -0.4092  0.0623 -1.8458
    4SAPS   C24  440   3.945   3.209  10.020 -0.2468  0.8767 -0.2932
    4SAPS   H4R  441   3.960   3.137  10.103  0.4452  2.8248  1.3394
    4SAPS   H4S  442   4.046   3.205   9.972  0.4349  0.9603  1.0988
    4SAPS   C25  443   3.828   3.193   9.922 -0.8510 -0.0391  0.0558
    4SAPS   H5R  444   3.728   3.204   9.967 -0.7351  0.9168  0.0906
    4SAPS   C26  445   3.834   3.147   9.795 -1.0154 -0.1205  0.7404
    4SAPS   H6R  446   3.748   3.155   9.727  1.6089 -0.0368 -2.7846
    4SAPS   C27  447   3.955   3.112   9.710  0.3984 -0.5148 -0.3483
    4SAPS   H7R  448   4.045   3.136   9.771 -1.6893  2.2322  1.9447
    4SAPS   H7S  449   3.971   3.176   9.621 -0.5672  0.0925 -0.0972
    4SAPS   C28  450   3.946   2.965   9.672  0.4743 -0.5041  0.7235
    4SAPS   H8R  451   3.945   2.911   9.769 -0.7514 -0.4843  0.7400
    4SAPS   C29  452   3.921   2.912   9.554  0.1120  0.1145  0.2777
    4SAPS   H9R  453   3.919   2.803   9.551  0.9647  0.0335  1.8253
    4SAPS  C210  454   3.897   3.002   9.434  0.6642 -0.6102  0.3352
    4SAPS  H10R  455   3.858   3.101   9.465 -2.3931 -2.0458  1.4411
    4SAPS  H10S  456   3.815   2.961   9.371 -1.2514 -0.5784  2.6691
    4SAPS  C211  457   4.024   3.032   9.359  0.4770 -0.3703  0.1236
    4SAPS  H11R  458   4.108   3.059   9.424  0.7896 -1.3837  0.1588
    4SAPS  C212  459   4.053   3.012   9.230  0.5446  0.9091 -0.3524
    4SAPS  H12R  460   4.152   3.029   9.185  0.4909  2.3233  0.0310
    4SAPS  C213  461   3.952   2.953   9.132  0.2361  0.3657 -0.0408
    4SAPS  H13R  462   3.857   3.008   9.150 -0.4278  0.2809 -2.8006
    4SAPS  H13S  463   3.940   2.845   9.153  2.2592  0.3586  1.3955
    4SAPS  C214  464   3.997   2.974   8.984  0.1328 -0.0071 -0.4022
    4SAPS  H14R  465   4.088   2.920   8.954 -0.0677 -0.3769 -0.3469
    4SAPS  C215  466   3.917   3.027   8.886 -1.0131 -0.1782 -0.5643
    4SAPS  H15R  467   3.952   3.042   8.782 -2.2839 -0.0037 -0.9896
    4SAPS  C216  468   3.770   3.055   8.905  1.0404  0.5060  0.9561
    4SAPS  H16R  469   3.726   3.015   9.000 -1.3271  2.3309  0.7301
    4SAPS  H16S  470   3.710   3.022   8.818  0.6873  0.9062  1.0416
    4SAPS  C217  471   3.748   3.209   8.913  0.1644  0.3291 -0.0205
    4SAPS  H17R  472   3.648   3.242   8.878  1.2210  2.2820 -1.4148
    4SAPS  H17S  473   3.822   3.262   8.850  2.6628 -1.1836  1.4573
    4SAPS  C218  474   3.760   3.266   9.053  0.3661  0.9690 -0.1574
    4SAPS  H18R  475   3.760   3.376   9.039 -0.4377  1.2768  1.9004
    4SAPS  H18S  476   3.859   3.233   9.091 -0.0648 -0.3151 -0.1075
    4SAPS  C219  477   3.641   3.214   9.151  0.3395  0.1676 -0.5057
    4SAPS  H19R  478   3.666   3.107   9.166  0.3889  0.1806 -0.4963
    4SAPS  H19S  479   3.543   3.226   9.099  0.8699  0.2011 -1.5283
    4SAPS  C220  480   3.642   3.279   9.293 -0.1141  0.8166  0.7588
    4SAPS  H20R  481   3.561   3.231   9.351 -0.1124 -0.3311 -0.1584
    4SAPS  H20S  482   3.627   3.389   9.283 -0.6868  0.5728 -1.7076
    4SAPS  H20T  483   3.744   3.265   9.334 -0.2733 -3.4034  0.1155
    4SAPS   C33  484   3.657   2.743  10.327 -0.0717  0.7005 -0.6797
    4SAPS   H3X  485   3.597   2.791  10.246 -1.7964 -2.0243 -1.1610
    4SAPS   H3Y  486   3.588   2.765  10.411 -1.1089  0.0957 -1.3466
    4SAPS   C34  487   3.652   2.592  10.292 -0.2777 -0.1925 -0.8137
    4SAPS   H4X  488   3.555   2.568  10.242 -1.6609 -2.4097  2.5643
    4SAPS   H4Y  489   3.665   2.532  10.384 -0.1033 -0.7377 -1.1880
    4SAPS   C35  490   3.758   2.531  10.200 -0.0483  0.5275 -0.5270
    4SAPS   H5X  491   3.731   2.424  10.201 -2.8991  1.1586  1.4805
    4SAPS   H5Y  492   3.862   2.538  10.237 -0.0381  2.0937 -0.7614
    4SAPS   C36  493   3.750   2.588  10.059  0.2941 -0.5787  0.3426
    4SAPS   H6X  494   3.789   2.691  10.048 -0.0916 -0.5635 -1.0575
    4SAPS   H6Y  495   3.646   2.585  10.020  0.2809  0.6593  0.2489
    4SAPS   C37  496   3.823   2.499   9.956 -0.3754 -0.3681 -0.6650
    4SAPS   H7X  497   3.804   2.392   9.979  0.4493 -0.7056 -1.5149
    4SAPS   H7Y  498   3.931   2.519   9.945 -0.2208 -1.0778 -0.5128
    4SAPS   C38  499   3.771   2.532   9.811 -0.1244  0.2489  0.2813
    4SAPS   H8X  500   3.782   2.641   9.792 -0.5502  0.4908  1.3783
    4SAPS   H8Y  501   3.663   2.506   9.806 -0.4937  0.9667  2.9778
    4SAPS   C39  502   3.840   2.438   9.712  0.7765  0.7778  0.3570
    4SAPS   H9X  503   3.832   2.329   9.734  1.8967  0.2451 -1.6111
    4SAPS   H9Y  504   3.948   2.463   9.704  0.7418  0.9021  0.2763
    4SAPS  C310  505   3.790   2.450   9.563 -0.2479 -0.3657 -0.4956
    4SAPS  H10X  506   3.799   2.555   9.528 -1.4148 -0.6153 -1.6095
    4SAPS  H10Y  507   3.681   2.432   9.574 -0.9457  2.6999 -1.5726
    4SAPS  C311  508   3.865   2.359   9.470  0.5001 -0.0560  0.0119
    4SAPS  H11X  509   3.867   2.262   9.524  1.4279  1.2725  2.5331
    4SAPS  H11Y  510   3.969   2.397   9.462  0.8951 -1.3653 -1.8986
    4SAPS  C312  511   3.801   2.362   9.335  0.3706  0.2531  0.6727
    4SAPS  H12X  512   3.804   2.457   9.278 -1.8141 -0.7571 -1.3624
    4SAPS  H12Y  513   3.694   2.331   9.347  0.0746  1.0183  0.0889
    4SAPS  C313  514   3.878   2.272   9.232 -0.8859  0.3773 -0.1613
    4SAPS  H13X  515   3.862   2.167   9.264 -1.0390  0.2740 -0.5588
    4SAPS  H13Y  516   3.985   2.297   9.240 -0.2299 -2.0345 -0.5428
    4SAPS  C314  517   3.834   2.278   9.087 -0.2866  0.1857  0.2543
    4SAPS  H14X  518   3.725   2.296   9.092 -0.0751  1.0757  2.2082
    4SAPS  H14Y  519   3.844   2.183   9.029 -1.6534 -0.7693  1.5198
    4SAPS  C315  520   3.896   2.391   9.004 -0.1682 -0.0598  0.6587
    4SAPS  H15X  521   4.002   2.362   8.985  0.1028  1.8150 -1.0466
    4SAPS  H15Y  522   3.902   2.489   9.057  1.6490  0.5952 -0.6509
    4SAPS  C316  523   3.818   2.407   8.874 -1.0244  0.1177  0.0479
    4SAPS  H16X  524   3.716   2.437   8.908 -1.2586 -0.2073 -0.3632
    4SAPS  H16Y  525   3.815   2.310   8.820 -0.0785 -0.3504  0.8115
    4SAPS  C317  526   3.885   2.523   8.786  0.3794  0.5932 -0.6198
    4SAPS  H17X  527   3.866   2.627   8.820 -2.4911 -0.9865  3.4774
    4SAPS  H17Y  528   3.830   2.525   8.689  0.9255  0.3300 -0.9360
    4SAPS  C318  529   4.034   2.499   8.745  0.6972 -1.0269 -0.0920
    4SAPS  H18X  530   4.068   2.578   8.675 -0.2430  0.1531  0.7499
    4SAPS  H18Y  531   4.044   2.406   8.686  2.6232 -0.2742 -1.0423
    4SAPS  H18Z  532   4.097   2.499   8.836  1.7454 -0.8616 -0.8007
    5SAPS     N  533   6.395   1.998  10.956 -0.2728 -0.4059 -0.4334
    5SAPS   HN1  534   6.353   2.077  10.903  1.4620  1.2262  0.5173
    5SAPS   HN2  535   6.462   1.956  10.889  0.4110 -0.6090  0.3687
    5SAPS   HN3  536   6.305   1.947  10.971 -1.0603  1.5077  2.0687
    5SAPS   C12  537   6.457   2.045  11.072 -0.1164  0.4118 -0.1880
    5SAPS  H12A  538   6.382   2.094  11.134  1.3888  1.2995  1.0249
    5SAPS   C13  539   6.526   1.949  11.168 -0.2043 -0.0593  0.6708
    5SAPS  O13A  540   6.505   1.825  11.159  0.2060 -0.2273 -0.2063
    5SAPS  O13B  541   6.598   1.993  11.266  0.2820 -0.1442  0.2906
    5SAPS   C11  542   6.554   2.161  11.027  0.1180 -0.1103 -0.5519
    5SAPS  H11A  543   6.631   2.106  10.970  0.3501 -3.2192  2.4343
    5SAPS  H11B  544   6.610   2.201  11.114 -0.7581 -1.4027  0.6492
    5SAPS     P  545   6.569   2.396  10.912 -0.1541 -0.1013  0.3792
    5SAPS   O13  546   6.483   2.491  10.845  0.4262 -0.7252  0.1837
    5SAPS   O14  547   6.632   2.431  11.039 -0.1595 -0.2327 -0.0534
    5SAPS   O12  548   6.488   2.262  10.944 -0.4171  0.3778 -0.0589
    5SAPS   O11  549   6.682   2.349  10.823 -0.0024 -0.0456  0.0068
    5SAPS    C1  550   6.677   2.237  10.738  0.4240 -0.1911 -0.7141
    5SAPS    HA  551   6.765   2.174  10.763  1.0025  0.1380 -1.8656
    5SAPS    HB  552   6.592   2.168  10.755  0.5489 -0.2177 -0.1731
    5SAPS    C2  553   6.692   2.279  10.595 -0.7738  0.0255 -1.0099
    5SAPS    HS  554   6.799   2.306  10.585 -0.8693  0.2207 -1.5168
    5SAPS   O21  555   6.600   2.384  10.563  0.0678  0.8706 -0.9204
    5SAPS   C21  556   6.663   2.490  10.515  0.4875  0.0391  0.0592
    5SAPS   O22  557   6.784   2.516  10.513  0.5186 -0.4225 -0.7597
    5SAPS   C22  558   6.561   2.582  10.443 -0.1678 -0.2658  0.0043
    5SAPS   H2R  559   6.467   2.584  10.503 -1.0076 -1.2633 -1.2382
    5SAPS   H2S  560   6.605   2.684  10.443 -0.9848  0.0909  0.1595
    5SAPS    C3  561   6.675   2.159  10.492 -0.2220  0.6542 -0.0507
    5SAPS    HX  562   6.575   2.111  10.490 -0.3855  1.0107 -0.6134
    5SAPS    HY  563   6.741   2.077  10.528  1.5858  2.4891  1.0147
    5SAPS   O31  564   6.707   2.211  10.364 -0.0790 -0.1106  0.2126
    5SAPS   C31  565   6.832   2.205  10.323 -0.7701  0.3250 -0.0407
    5SAPS   O32  566   6.925   2.162  10.386  0.1642  0.0247 -0.1164
    5SAPS   C32  567   6.838   2.244  10.171 -0.2443 -0.1665  0.2109
    5SAPS   H2X  568   6.743   2.292  10.140  0.2361  0.2428 -0.6393
    5SAPS   H2Y  569   6.863   2.147  10.122  0.6087  0.4626 -0.6437
    5SAPS   C23  570   6.524   2.542  10.297 -0.3441  0.1953  1.2733
    5SAPS   H3R  571   6.431   2.594  10.268  0.5091  2.2141  1.9814
    5SAPS   H3S  572   6.508   2.432  10.288 -1.5807  0.3301  1.6737
    5SAPS   C24  573   6.630   2.570  10.199 -0.4936 -0.5535  0.3613
    5SAPS   H4R  574   6.622   2.503  10.111 -1.8399 -1.4519  1.1321
    5SAPS   H4S  575   6.722   2.541  10.255  1.2772  0.8937 -1.6552
    5SAPS   C25  576   6.633   2.721  10.173 -0.5323  0.6785  0.3687
    5SAPS   H5R  577   6.604   2.791  10.252 -2.4104 -0.1307  0.4524
    5SAPS   C26  578   6.657   2.767  10.051  0.5690 -0.8945 -0.7670
    5SAPS   H6R  579   6.655   2.875  10.032  0.1271 -0.7968 -0.1834
    5SAPS   C27  580   6.696   2.695   9.924  0.4599 -0.5007  0.0066
    5SAPS   H7R  581   6.749   2.606   9.964 -0.1887 -0.9834 -0.1932
    5SAPS   H7S  582   6.775   2.751   9.871  0.2990  0.3307  0.6228
    5SAPS   C28  583   6.586   2.642   9.842  0.3580 -0.0655 -0.0420
    5SAPS   H8R  584   6.517   2.586   9.906 -0.8642  1.2316 -0.1729
    5SAPS   C29  585   6.555   2.665   9.714  0.2918 -0.4537 -0.1311
    5SAPS   H9R  586   6.462   2.621   9.674 -2.4367  3.5897  1.0818
    5SAPS  C210  587   6.638   2.751   9.617 -0.1398 -0.6447 -0.3059
    5SAPS  H10R  588   6.684   2.835   9.674 -2.7221 -0.1906  1.2449
    5SAPS  H10S  589   6.560   2.802   9.558 -0.9255  0.9997  1.9841
    5SAPS  C211  590   6.730   2.656   9.542 -0.1779  0.1306 -0.4964
    5SAPS  H11R  591   6.814   2.617   9.600  0.3396  0.5664 -0.9416
    5SAPS  C212  592   6.717   2.616   9.419 -0.0029 -0.2220 -0.6008
    5SAPS  H12R  593   6.792   2.541   9.390 -0.4563 -1.8175  2.0398
    5SAPS  C213  594   6.616   2.647   9.324  0.2790  0.4327  0.1930
    5SAPS  H13R  595   6.666   2.718   9.255  1.6411  0.2080  0.9154
    5SAPS  H13S  596   6.534   2.699   9.377  1.6239 -1.5366  4.7476
    5SAPS  C214  597   6.559   2.531   9.237  1.2742 -0.1389  0.9231
    5SAPS  H14R  598   6.527   2.446   9.299  0.4670 -1.4030 -1.1337
    5SAPS  C215  599   6.536   2.531   9.105  0.1535  0.6661  0.0068
    5SAPS  H15R  600   6.490   2.438   9.067 -0.4130  0.8159  0.3129
    5SAPS  C216  601   6.566   2.644   9.003 -0.3645 -0.1974 -0.8003
    5SAPS  H16R  602   6.627   2.726   9.045  2.3085 -1.2085 -2.4406
    5SAPS  H16S  603   6.478   2.694   8.959  0.7014  0.1390 -2.6816
    5SAPS  C217  604   6.639   2.580   8.886  0.0268  0.2452 -0.7603
    5SAPS  H17R  605   6.617   2.647   8.800 -2.0339  1.3810  0.5725
    5SAPS  H17S  606   6.597   2.483   8.852 -2.4451  1.3104 -0.9314
    5SAPS  C218  607   6.790   2.572   8.913  0.1359  0.1567 -0.3642
    5SAPS  H18R  608   6.836   2.672   8.927  2.4284 -1.0567  1.4517
    5SAPS  H18S  609   6.804   2.513   9.007 -0.5725  0.3258 -0.1466
    5SAPS  C219  610   6.861   2.493   8.794  0.3711  0.0115  0.9336
    5SAPS  H19R  611   6.847   2.533   8.692  2.5770 -1.0161  0.1590
    5SAPS  H19S  612   6.828   2.387   8.789 -1.5300  0.6121 -0.5361
    5SAPS  C220  613   7.017   2.497   8.803 -0.6590 -0.2463  0.0104
    5SAPS  H20R  614   7.060   2.600   8.807  0.9051 -0.8758  0.1959
    5SAPS  H20S  615   7.072   2.437   8.727 -1.2653  1.0608 -1.5353
    5SAPS  H20T  616   7.045   2.454   8.901  1.7333 -0.4970 -0.7029
    5SAPS   C33  617   6.971   2.320  10.140 -0.7408 -0.0748  0.2696
    5SAPS   H3X  618   7.053   2.267  10.192 -1.4124 -0.1004  1.3349
    5SAPS   H3Y  619   6.959   2.415  10.195  3.6868  1.8631 -1.6315
    5SAPS   C34  620   6.994   2.358   9.991  0.0247  1.0416 -0.4099
    5SAPS   H4X  621   7.069   2.439   9.988 -0.0092  1.0683 -2.9541
    5SAPS   H4Y  622   6.897   2.401   9.956  1.0841  4.6880  0.6879
    5SAPS   C35  623   7.052   2.239   9.913  0.1615  0.0387 -0.5293
    5SAPS   H5X  624   6.970   2.166   9.918 -1.1169  1.2769 -2.1759
    5SAPS   H5Y  625   7.140   2.201   9.969 -1.1487 -1.6542  0.4670
    5SAPS   C36  626   7.093   2.267   9.769 -0.2043  0.7888  0.3488
    5SAPS   H6X  627   7.131   2.176   9.719  1.2938  0.8432  1.3484
    5SAPS   H6Y  628   7.180   2.336   9.765 -0.2220  0.8497 -3.8180
    5SAPS   C37  629   6.981   2.344   9.692 -0.2769  0.6734  0.3032
    5SAPS   H7X  630   6.944   2.432   9.748 -2.9840 -0.5453  0.5710
    5SAPS   H7Y  631   6.893   2.276   9.694 -0.0587  0.2833  4.3669
    5SAPS   C38  632   7.029   2.385   9.554  0.4831 -0.0472  0.2916
    5SAPS   H8X  633   7.112   2.457   9.541  0.4057 -0.2673 -1.7676
    5SAPS   H8Y  634   6.932   2.423   9.515  0.1327  0.0965  1.2880
    5SAPS   C39  635   7.073   2.267   9.463  0.0707  0.4625 -0.6686
    5SAPS   H9X  636   7.006   2.181   9.479 -1.3350  1.4685 -0.9703
    5SAPS   H9Y  637   7.175   2.227   9.483 -1.5440 -3.8952 -0.1548
    5SAPS  C310  638   7.062   2.298   9.316 -0.7943  0.6491 -0.2656
    5SAPS  H10X  639   7.135   2.371   9.276  0.4157 -0.5198 -0.2514
    5SAPS  H10Y  640   6.956   2.328   9.303 -0.8329  0.6835  0.1147
    5SAPS  C311  641   7.072   2.169   9.239 -0.0110  0.4736  0.7688
    5SAPS  H11X  642   6.986   2.101   9.253 -1.5542  2.1147 -0.2877
    5SAPS  H11Y  643   7.160   2.105   9.262 -0.0132  0.2667  0.2239
    5SAPS  C312  644   7.072   2.198   9.087  0.2262  0.9170  0.0948
    5SAPS  H12X  645   7.158   2.264   9.067 -0.6458  2.0368 -0.0385
    5SAPS  H12Y  646   6.983   2.255   9.052 -2.4903 -0.6529  3.7271
    5SAPS  C313  647   7.084   2.073   9.005  0.2028  0.0198  0.5578
    5SAPS  H13X  648   7.023   1.989   9.045  2.0934 -1.1263  1.1756
    5SAPS  H13Y  649   7.185   2.030   9.022  0.6091  0.8350  0.2168
    5SAPS  C314  650   7.067   2.088   8.851  0.1554 -0.3032 -0.0406
    5SAPS  H14X  651   7.148   2.154   8.813 -0.9341  0.7343 -0.6194
    5SAPS  H14Y  652   6.965   2.125   8.826  0.3505 -0.4248 -1.0703
    5SAPS  C315  653   7.085   1.961   8.761 -0.5560 -0.0982 -0.4039
    5SAPS  H15X  654   7.010   1.882   8.781  0.4558 -0.5101  2.1499
    5SAPS  H15Y  655   7.182   1.909   8.774 -0.9138 -0.7798 -0.4625
    5SAPS  C316  656   7.079   1.992   8.606 -0.3757  1.0195 -0.0849
    5SAPS  H16X  657   7.173   2.043   8.574 -0.2690  0.6553 -0.3660
    5SAPS  H16Y  658   6.991   2.059   8.597 -0.8186  0.8078  2.1739
    5SAPS  C317  659   7.054   1.870   8.514 -0.2725 -0.1564  0.2733
    5SAPS  H17X  660   7.026   1.914   8.416 -2.2645 -1.8035  0.0199
    5SAPS  H17Y  661   6.966   1.815   8.555  0.5090  0.8070  3.5501
    5SAPS  C318  662   7.172   1.769   8.493 -0.6706  0.3313  0.8738
    5SAPS  H18X  663   7.252   1.806   8.425 -0.8126 -0.8091  0.0702
    5SAPS  H18Y  664   7.129   1.677   8.447  1.3623  0.0698 -0.6194
    5SAPS  H18Z  665   7.223   1.743   8.588  1.7263 -0.5308 -0.5793
    6SAPS     N  666   6.348   1.125  11.187 -0.6725 -0.8435 -0.3048
    6SAPS   HN1  667   6.296   1.086  11.268  0.0745  0.2465  0.7165
    6SAPS   HN2  668   6.369   1.224  11.209  0.8876 -0.8916 -1.3919
    6SAPS   HN3  669   6.292   1.131  11.099 -0.0770  1.1040 -0.5897
    6SAPS   C12  670   6.472   1.053  11.163 -0.2517 -0.6274 -0.1285
    6SAPS  H12A  671   6.522   1.112  11.087 -0.4386 -0.2434  0.0401
    6SAPS   C13  672   6.555   1.050  11.293 -0.5319  0.0125  0.3655
    6SAPS  O13A  673   6.521   1.102  11.406 -0.2130  0.5894  0.0479
    6SAPS  O13B  674   6.674   1.003  11.278  0.2849 -0.2519  0.2182
    6SAPS   C11  675   6.437   0.910  11.120  0.1170 -0.1667 -0.4447
    6SAPS  H11A  676   6.418   0.859  11.217 -0.0141  1.4958  0.4629
    6SAPS  H11B  677   6.527   0.860  11.079  2.2641  1.6984  1.6906
    6SAPS     P  678   6.343   0.905  10.869  0.0034  0.0171  0.2867
    6SAPS   O13  679   6.357   0.770  10.812  0.2243  0.1633  0.2251
    6SAPS   O14  680   6.237   0.990  10.810 -0.3401 -0.2754 -0.2236
    6SAPS   O12  681   6.328   0.898  11.025 -0.1235 -0.0047 -0.0755
    6SAPS   O11  682   6.482   0.981  10.861 -0.0856  0.4388  0.0803
    6SAPS    C1  683   6.611   0.921  10.848 -0.0093  0.1316 -0.0944
    6SAPS    HA  684   6.687   0.960  10.919  0.3992 -0.7077 -0.0535
    6SAPS    HB  685   6.602   0.810  10.858 -0.8136  0.0295 -1.6381
    6SAPS    C2  686   6.677   0.946  10.713  0.0359 -0.1662 -0.6306
    6SAPS    HS  687   6.724   1.046  10.722  1.5007 -0.9249  0.9619
    6SAPS   O21  688   6.580   0.928  10.608 -0.0287  0.0583  0.2401
    6SAPS   C21  689   6.518   1.041  10.564  0.5367  0.1089 -0.6229
    6SAPS   O22  690   6.537   1.150  10.610 -0.3557  0.2068  0.2598
    6SAPS   C22  691   6.411   1.011  10.461 -0.5494  0.1468  0.8956
    6SAPS   H2R  692   6.462   0.955  10.380 -0.8450 -0.5417  1.1773
    6SAPS   H2S  693   6.340   0.947  10.518 -1.3485  0.6857  0.5320
    6SAPS    C3  694   6.791   0.845  10.693 -0.3386 -0.5053 -0.0954
    6SAPS    HX  695   6.760   0.739  10.696 -1.2887 -0.2244  1.7529
    6SAPS    HY  696   6.857   0.858  10.781  0.5217 -1.4308 -0.5950
    6SAPS   O31  697   6.870   0.879  10.576  0.3388 -0.0456  0.0438
    6SAPS   C31  698   6.883   0.787  10.485  0.3482 -0.1674 -0.2482
    6SAPS   O32  699   6.847   0.672  10.494 -0.1922  0.3643  0.5361
    6SAPS   C32  700   6.955   0.853  10.363 -0.1288  0.2562  0.0367
    6SAPS   H2X  701   7.063   0.826  10.366 -0.9798 -3.8523  0.1450
    6SAPS   H2Y  702   6.927   0.961  10.367  0.5371  0.4009  0.9126
    6SAPS   C23  703   6.330   1.127  10.392  0.8395  0.0302 -0.4376
    6SAPS   H3R  704   6.303   1.199  10.472 -0.1737 -0.9251  0.1036
    6SAPS   H3S  705   6.232   1.097  10.349  0.7577  1.7787 -1.5787
    6SAPS   C24  706   6.399   1.207  10.281  0.1035  0.0894  0.3632
    6SAPS   H4R  707   6.504   1.208  10.317  1.5873 -4.0371 -2.8819
    6SAPS   H4S  708   6.352   1.307  10.279  2.5703  1.3194 -0.1690
    6SAPS   C25  709   6.407   1.131  10.157  1.2935 -0.1685 -0.4113
    6SAPS   H5R  710   6.490   1.060  10.147  0.3312 -1.1710 -1.6203
    6SAPS   C26  711   6.322   1.142  10.054  0.0793 -0.3883 -0.5071
    6SAPS   H6R  712   6.330   1.070   9.972  0.8002  1.3255 -2.0106
    6SAPS   C27  713   6.210   1.242  10.062  0.2045  0.0123  0.6560
    6SAPS   H7R  714   6.255   1.342  10.043  1.3569 -0.2213  2.0250
    6SAPS   H7S  715   6.172   1.260  10.164 -0.2650  0.8210  0.3478
    6SAPS   C28  716   6.100   1.224   9.963  0.0693  0.2310 -0.0127
    6SAPS   H8R  717   6.013   1.178  10.014 -0.2445  0.2097 -0.5543
    6SAPS   C29  718   6.095   1.218   9.828  0.5062  0.1144  0.4514
    6SAPS   H9R  719   5.997   1.204   9.782 -0.0756 -2.5889  2.2779
    6SAPS  C210  720   6.205   1.244   9.730  0.4482 -0.6371 -0.0254
    6SAPS  H10R  721   6.288   1.289   9.787  1.6552 -0.2443 -2.0181
    6SAPS  H10S  722   6.176   1.318   9.652  1.2420 -0.9333 -0.6135
    6SAPS  C211  723   6.261   1.118   9.669  0.9972 -0.0039 -0.0011
    6SAPS  H11R  724   6.282   1.041   9.745  0.8832 -1.6671 -1.5897
    6SAPS  C212  725   6.274   1.086   9.540 -0.0823 -0.6133  0.5339
    6SAPS  H12R  726   6.320   0.989   9.514 -1.1509 -0.6012 -1.5990
    6SAPS  C213  727   6.228   1.172   9.421 -0.0045  0.6889 -0.1419
    6SAPS  H13R  728   6.253   1.277   9.445  0.3226  0.5577  0.0885
    6SAPS  H13S  729   6.119   1.158   9.405 -0.0496  1.2036 -0.2855
    6SAPS  C214  730   6.304   1.130   9.304 -0.1756  0.3729  0.2378
    6SAPS  H14R  731   6.410   1.113   9.327  0.6459  2.2789 -1.6947
    6SAPS  C215  732   6.266   1.138   9.175  0.0176  0.2787  1.0281
    6SAPS  H15R  733   6.333   1.105   9.095 -0.8386  0.1575  0.3423
    6SAPS  C216  734   6.133   1.178   9.119 -0.2687  0.3995 -0.2970
    6SAPS  H16R  735   6.092   1.279   9.141  0.5537  0.6012  0.3637
    6SAPS  H16S  736   6.058   1.101   9.147 -0.6530  1.1820  0.8783
    6SAPS  C217  737   6.131   1.192   8.961  0.3851  0.0140 -1.1058
    6SAPS  H17R  738   6.027   1.180   8.924 -0.2905 -1.1014  0.9967
    6SAPS  H17S  739   6.175   1.096   8.929 -2.1591 -1.7322  0.2655
    6SAPS  C218  740   6.187   1.314   8.897  0.5575 -0.0388 -0.3949
    6SAPS  H18R  741   6.290   1.327   8.934  0.3082 -1.0649  0.7308
    6SAPS  H18S  742   6.128   1.405   8.921 -1.0179 -1.0148 -0.4156
    6SAPS  C219  743   6.206   1.297   8.750  0.5376  0.6983  0.0887
    6SAPS  H19R  744   6.284   1.224   8.722 -0.7109  0.3485 -2.8516
    6SAPS  H19S  745   6.251   1.393   8.717 -0.4506  1.7627  1.6493
    6SAPS  C220  746   6.091   1.259   8.653 -0.2854  0.0609  0.0177
    6SAPS  H20R  747   6.020   1.343   8.669  0.9323  1.4461 -1.4801
    6SAPS  H20S  748   6.046   1.161   8.677  0.4195  0.1890  2.0221
    6SAPS  H20T  749   6.135   1.259   8.551  1.1860 -0.8809  0.6187
    6SAPS   C33  750   6.904   0.795  10.230 -0.2214 -0.1935 -0.0338
    6SAPS   H3X  751   6.793   0.785  10.224 -0.1892  0.1371 -1.8125
    6SAPS   H3Y  752   6.939   0.690  10.221  3.8432  0.8267  1.6582
    6SAPS   C34  753   6.968   0.868  10.107 -0.3231  0.7443 -0.3965
    6SAPS   H4X  754   7.075   0.872  10.138 -0.2917 -1.4169 -0.0859
    6SAPS   H4Y  755   6.929   0.971  10.097  0.4224  0.9348 -1.6026
    6SAPS   C35  756   6.949   0.799   9.969 -0.7876  0.0075  0.3883
    6SAPS   H5X  757   6.846   0.816   9.934 -0.1714  1.9811 -0.5855
    6SAPS   H5Y  758   6.965   0.691   9.990 -1.0854  0.2777  2.1349
    6SAPS   C36  759   7.059   0.836   9.866  0.0431 -0.4968 -0.3653
    6SAPS   H6X  760   7.161   0.821   9.907  0.4351  1.5640 -0.5098
    6SAPS   H6Y  761   7.067   0.943   9.840 -2.2224 -1.0426 -3.8796
    6SAPS   C37  762   7.049   0.755   9.739  0.0111  0.1873 -0.2918
    6SAPS   H7X  763   6.961   0.787   9.680  0.9968 -0.3872 -2.1228
    6SAPS   H7Y  764   7.056   0.645   9.757 -0.6152 -0.0080 -1.2236
    6SAPS   C38  765   7.163   0.788   9.642  0.2685 -0.5090 -0.7209
    6SAPS   H8X  766   7.250   0.729   9.677  1.3668  2.0748  1.2755
    6SAPS   H8Y  767   7.184   0.896   9.658 -1.4503 -0.5083  2.3443
    6SAPS   C39  768   7.118   0.769   9.492 -0.2348  0.4929 -0.0175
    6SAPS   H9X  769   7.044   0.838   9.446  0.5829  0.0992 -2.0272
    6SAPS   H9Y  770   7.088   0.662   9.497  2.8305 -0.3874  2.3368
    6SAPS  C310  771   7.240   0.789   9.395  0.0124  0.4904  0.2814
    6SAPS  H10X  772   7.225   0.743   9.295  0.1123  1.2094 -0.0697
    6SAPS  H10Y  773   7.321   0.732   9.446 -0.5525  1.8333  2.8358
    6SAPS  C311  774   7.261   0.938   9.388  0.3806  0.7630 -0.8466
    6SAPS  H11X  775   7.261   0.978   9.492  0.3395 -2.0697  0.3227
    6SAPS  H11Y  776   7.182   0.997   9.338  0.3388  1.7504  0.3348
    6SAPS  C312  777   7.385   0.959   9.309  0.1133  0.7690 -0.3478
    6SAPS  H12X  778   7.376   0.941   9.200  1.4236 -4.0830  0.1262
    6SAPS  H12Y  779   7.462   0.888   9.347 -2.6119 -2.0419  0.2987
    6SAPS  C313  780   7.451   1.098   9.324  0.0421  0.4906 -0.0098
    6SAPS  H13X  781   7.485   1.114   9.428  1.4643  1.3843 -0.5874
    6SAPS  H13Y  782   7.370   1.172   9.304 -1.3310 -1.0559 -0.3788
    6SAPS  C314  783   7.570   1.121   9.224  0.0538 -0.5020  0.2220
    6SAPS  H14X  784   7.620   1.025   9.199 -0.3475 -0.9132  0.9679
    6SAPS  H14Y  785   7.642   1.186   9.278  0.5165  0.4716 -1.4838
    6SAPS  C315  786   7.518   1.185   9.097 -0.1977  0.5306  0.3089
    6SAPS  H15X  787   7.494   1.291   9.122 -0.5627  0.7356 -0.8532
    6SAPS  H15Y  788   7.421   1.135   9.078  0.0786  0.9426 -2.6979
    6SAPS  C316  789   7.627   1.182   8.982  0.8691  0.2616 -0.2588
    6SAPS  H16X  790   7.638   1.075   8.953  1.9797 -0.2625  1.9088
    6SAPS  H16Y  791   7.725   1.222   9.015  1.0264  0.1260 -0.5615
    6SAPS  C317  792   7.590   1.261   8.860  0.9141 -0.2673 -0.1047
    6SAPS  H17X  793   7.602   1.369   8.883  0.1079 -0.0516 -0.6907
    6SAPS  H17Y  794   7.489   1.221   8.838  0.9266 -1.4700  1.7800
    6SAPS  C318  795   7.674   1.226   8.732 -0.1447 -0.2324  0.2913
    6SAPS  H18X  796   7.653   1.124   8.693  0.5715  0.2054 -1.2994
    6SAPS  H18Y  797   7.780   1.246   8.759 -0.3056  1.4153 -0.1795
    6SAPS  H18Z  798   7.650   1.287   8.643  0.7773 -1.3539 -0.7584
    7SAPS     N  799   0.804   1.650  10.863  0.0084 -0.0411 -0.4113
    7SAPS   HN1  800   0.808   1.568  10.799  0.4207  1.2294 -2.0859
    7SAPS   HN2  801   0.891   1.707  10.860  0.6533 -0.9585  0.1804
    7SAPS   HN3  802   0.783   1.632  10.963  0.6407  1.0826 -0.0510
    7SAPS   C12  803   0.697   1.742  10.807 -0.2475  1.1162  0.2502
    7SAPS  H12A  804   0.627   1.682  10.751  0.9150 -0.1392  0.0937
    7SAPS   C13  805   0.626   1.831  10.915  0.2240  0.5094  0.1586
    7SAPS  O13A  806   0.657   1.833  11.033  0.3407 -0.0486 -0.3398
    7SAPS  O13B  807   0.553   1.921  10.866  0.6189  0.7082  0.0904
    7SAPS   C11  808   0.756   1.837  10.701  0.0280  0.1013 -0.1959
    7SAPS  H11A  809   0.832   1.897  10.755 -1.1854  0.9822  0.5759
    7SAPS  H11B  810   0.686   1.908  10.654 -1.9398 -0.4354  1.7397
    7SAPS     P  811   0.914   1.846  10.494  0.1231  0.1957 -0.2107
    7SAPS   O13  812   0.947   1.979  10.550 -0.4092  0.1855 -0.4728
    7SAPS   O14  813   1.024   1.756  10.447  0.3995  0.2207  0.3747
    7SAPS   O12  814   0.828   1.768  10.600 -0.0839 -0.4284  0.2059
    7SAPS   O11  815   0.805   1.866  10.382 -0.0320 -0.3419  0.2191
    7SAPS    C1  816   0.779   1.763  10.293 -0.1057 -0.2642  0.2113
    7SAPS    HA  817   0.855   1.682  10.290  0.4340  0.2239  0.5628
    7SAPS    HB  818   0.676   1.723  10.292 -0.8238  1.4449 -1.6284
    7SAPS    C2  819   0.800   1.820  10.146  0.0414 -0.8430 -0.4047
    7SAPS    HS  820   0.754   1.753  10.070  0.1528 -1.6543  0.2388
    7SAPS   O21  821   0.939   1.844  10.120 -0.4797  0.1147  0.5382
    7SAPS   C21  822   1.007   1.742  10.073 -0.3931  0.1722  0.4333
    7SAPS   O22  823   0.955   1.632  10.061  0.2577 -0.5494  0.5632
    7SAPS   C22  824   1.156   1.774  10.057  0.5220  0.0791 -0.4582
    7SAPS   H2R  825   1.169   1.846   9.973 -0.9190 -0.3428 -1.0619
    7SAPS   H2S  826   1.190   1.824  10.150 -2.0133  0.1898  0.4718
    7SAPS    C3  827   0.719   1.955  10.129 -0.0960 -0.0729 -0.2026
    7SAPS    HX  828   0.752   2.025  10.209 -0.8456 -0.7042  0.6834
    7SAPS    HY  829   0.620   1.925  10.169  1.1185  0.3549  3.5146
    7SAPS   O31  830   0.723   2.023  10.003  0.4071  0.6275  0.5644
    7SAPS   C31  831   0.639   1.968   9.915  0.4392  0.6277  0.0519
    7SAPS   O32  832   0.575   1.866   9.932  0.1947 -0.2143  0.2079
    7SAPS   C32  833   0.627   2.049   9.787 -0.1322 -0.5169  0.5085
    7SAPS   H2X  834   0.727   2.063   9.741 -1.2298 -0.6930 -2.0690
    7SAPS   H2Y  835   0.583   2.149   9.808  0.9981  0.1401 -0.1488
    7SAPS   C23  836   1.235   1.643  10.035 -0.1201  0.1090  0.4740
    7SAPS   H3R  837   1.203   1.606   9.935 -1.2396  0.7176  0.5963
    7SAPS   H3S  838   1.211   1.573  10.118 -0.5200  0.4611  0.6612
    7SAPS   C24  839   1.391   1.667  10.024  0.1473  0.4659 -0.1242
    7SAPS   H4R  840   1.447   1.572  10.034  2.3376  1.4031 -2.2307
    7SAPS   H4S  841   1.416   1.724  10.116  0.5459  0.1583 -0.0389
    7SAPS   C25  842   1.437   1.743   9.901 -0.0340  0.4590  0.2501
    7SAPS   H5R  843   1.415   1.850   9.901 -0.7074  0.3272 -0.5179
    7SAPS   C26  844   1.497   1.690   9.792 -0.8661 -0.3140  0.4571
    7SAPS   H6R  845   1.523   1.753   9.706 -0.3115 -1.6538 -0.3916
    7SAPS   C27  846   1.522   1.545   9.768 -0.6810 -0.5491 -0.2217
    7SAPS   H7R  847   1.537   1.494   9.866 -2.8322  0.2166  0.5733
    7SAPS   H7S  848   1.615   1.534   9.708  0.6534 -1.2852  1.8659
    7SAPS   C28  849   1.412   1.476   9.697  0.1821 -0.0808  0.3745
    7SAPS   H8R  850   1.314   1.521   9.720 -0.3533 -0.3553 -1.2524
    7SAPS   C29  851   1.417   1.349   9.652  0.4287  0.3928  0.3283
    7SAPS   H9R  852   1.329   1.304   9.604  1.8430 -2.1674 -0.0516
    7SAPS  C210  853   1.537   1.254   9.655  0.8371 -0.6563  0.4199
    7SAPS  H10R  854   1.623   1.301   9.708  1.2612 -1.8702  0.8337
    7SAPS  H10S  855   1.568   1.233   9.550  0.4853 -2.6726  0.6902
    7SAPS  C211  856   1.512   1.127   9.727  0.1450 -0.1318  0.0304
    7SAPS  H11R  857   1.491   1.140   9.835  2.3147  0.5694  0.4198
    7SAPS  C212  858   1.529   1.009   9.659 -0.8209 -0.8309 -0.3628
    7SAPS  H12R  859   1.528   0.918   9.720  0.2144  0.1815  1.2279
    7SAPS  C213  860   1.571   0.978   9.515 -0.2356 -0.3175 -0.0094
    7SAPS  H13R  861   1.680   0.956   9.506 -0.2544  0.0645 -1.3952
    7SAPS  H13S  862   1.552   1.061   9.444 -0.0128 -1.3971 -1.3779
    7SAPS  C214  863   1.490   0.876   9.450  0.0634 -0.0039  0.2014
    7SAPS  H14R  864   1.430   0.819   9.522 -0.4669  2.3354  1.7257
    7SAPS  C215  865   1.484   0.839   9.319 -0.1707 -0.0970  1.0485
    7SAPS  H15R  866   1.421   0.753   9.289  0.3449  0.1787 -0.9425
    7SAPS  C216  867   1.563   0.911   9.212 -0.3243 -0.0501  0.2829
    7SAPS  H16R  868   1.666   0.913   9.253  0.8220  0.6152 -2.4352
    7SAPS  H16S  869   1.541   1.020   9.205 -0.6190 -0.0891  0.6153
    7SAPS  C217  870   1.557   0.848   9.073 -0.2950 -0.0763  0.3809
    7SAPS  H17R  871   1.455   0.816   9.045  0.2827 -1.4235 -0.3209
    7SAPS  H17S  872   1.621   0.756   9.076 -2.0510 -1.3323  0.6672
    7SAPS  C218  873   1.591   0.952   8.964 -0.4465  0.1644 -1.1587
    7SAPS  H18R  874   1.694   0.987   8.985 -0.8035 -0.1802  1.5060
    7SAPS  H18S  875   1.528   1.044   8.973  1.9668  1.8074 -0.2044
    7SAPS  C219  876   1.572   0.900   8.818  0.0310  0.2605 -0.2169
    7SAPS  H19R  877   1.464   0.896   8.794 -0.3326 -1.6429  1.4334
    7SAPS  H19S  878   1.611   0.796   8.809 -0.8657 -0.4562  3.0673
    7SAPS  C220  879   1.642   1.002   8.716  0.1772 -0.2071  0.3254
    7SAPS  H20R  880   1.740   1.035   8.757 -0.1468  0.1531  0.8192
    7SAPS  H20S  881   1.581   1.093   8.698  0.7197  0.2628  0.7904
    7SAPS  H20T  882   1.645   0.962   8.613  0.7092  1.0111 -0.1521
    7SAPS   C33  883   0.555   1.980   9.671  0.0925 -0.0073  0.3673
    7SAPS   H3X  884   0.445   1.990   9.666  0.1523  0.1645 -1.2546
    7SAPS   H3Y  885   0.582   1.872   9.666  2.7720  0.6003 -0.2212
    7SAPS   C34  886   0.612   2.027   9.535 -0.9522  0.2582  0.8094
    7SAPS   H4X  887   0.722   2.010   9.534 -0.6292  2.0686 -0.3674
    7SAPS   H4Y  888   0.600   2.138   9.534 -1.4375  0.2063  0.6127
    7SAPS   C35  889   0.555   1.946   9.420  0.4339  0.3291 -0.0896
    7SAPS   H5X  890   0.445   1.964   9.414 -0.0260 -1.6509  1.2862
    7SAPS   H5Y  891   0.563   1.839   9.451 -2.0237 -0.0397 -0.4797
    7SAPS   C36  892   0.631   1.953   9.282 -0.1029 -0.1620  0.3766
    7SAPS   H6X  893   0.738   1.936   9.304  0.1937 -0.2742 -1.0768
    7SAPS   H6Y  894   0.625   2.058   9.246 -0.4210 -0.1796  0.3735
    7SAPS   C37  895   0.579   1.855   9.174  0.0785  1.1298  0.3566
    7SAPS   H7X  896   0.478   1.891   9.145 -0.7650 -0.9153  0.6099
    7SAPS   H7Y  897   0.565   1.754   9.219  1.4075  0.9864  0.4923
    7SAPS   C38  898   0.662   1.848   9.046 -0.2340  0.0773  0.0121
    7SAPS   H8X  899   0.764   1.812   9.074 -0.6571 -0.9314  0.3016
    7SAPS   H8Y  900   0.673   1.951   9.005 -0.0078 -0.1015 -0.3858
    7SAPS   C39  901   0.606   1.742   8.949  0.4127 -0.1863  0.2352
    7SAPS   H9X  902   0.496   1.745   8.938  0.3319  1.1233  1.2288
    7SAPS   H9Y  903   0.628   1.642   8.993  0.5971  0.1293  0.8796
    7SAPS  C310  904   0.674   1.757   8.807  0.4391 -0.7100 -0.0868
    7SAPS  H10X  905   0.767   1.815   8.817 -0.3566  0.5795  0.0564
    7SAPS  H10Y  906   0.604   1.826   8.755  1.2436  1.0947  1.1452
    7SAPS  C311  907   0.698   1.628   8.722  0.2927  0.1251  0.1499
    7SAPS  H11X  908   0.605   1.567   8.725  0.3245  0.0678  3.1062
    7SAPS  H11Y  909   0.782   1.573   8.769  0.4158  0.0592 -0.1461
    7SAPS  C312  910   0.750   1.664   8.580 -0.2256  0.0146 -0.0696
    7SAPS  H12X  911   0.855   1.696   8.591 -0.5019 -0.0063  4.4081
    7SAPS  H12Y  912   0.688   1.732   8.516  0.9009  0.4723 -0.7072
    7SAPS  C313  913   0.746   1.543   8.490  0.5543 -0.0861  0.5754
    7SAPS  H13X  914   0.643   1.504   8.503  0.3839  1.1773  4.3192
    7SAPS  H13Y  915   0.820   1.466   8.520 -0.1354 -1.0802 -0.2107
    7SAPS  C314  916   0.777   1.574   8.344 -0.4644  0.4041 -1.1252
    7SAPS  H14X  917   0.880   1.615   8.345 -0.5200  0.5347 -0.5501
    7SAPS  H14Y  918   0.706   1.652   8.308 -1.0173  0.9832  1.0414
    7SAPS  C315  919   0.769   1.458   8.243 -0.0552  0.2547 -0.3297
    7SAPS  H15X  920   0.696   1.379   8.271  1.1765 -0.6783  0.3778
    7SAPS  H15Y  921   0.867   1.405   8.249  0.0861  0.6527  2.1993
    7SAPS  C316  922   0.733   1.508   8.104  0.4243 -0.1587 -0.3700
    7SAPS  H16X  923   0.818   1.575   8.080  0.7748  0.1008  1.4376
    7SAPS  H16Y  924   0.635   1.561   8.102  0.3034 -0.3881 -1.9630
    7SAPS  C317  925   0.716   1.392   8.011  0.0056  0.2575  0.6847
    7SAPS  H17X  926   0.796   1.318   8.034  0.3371  0.7471  1.1038
    7SAPS  H17Y  927   0.733   1.431   7.908  1.5373 -0.5615  0.5972
    7SAPS  C318  928   0.581   1.324   8.011 -0.4539 -0.0134  0.1696
    7SAPS  H18X  929   0.507   1.406   8.013  1.7814  2.1232  1.9357
    7SAPS  H18Y  930   0.562   1.258   8.099 -0.7207 -0.6213 -0.3358
    7SAPS  H18Z  931   0.578   1.265   7.917 -3.5257 -1.1186  0.8437
    8SAPS     N  932   5.118   3.560  11.199 -0.5897 -0.0626 -0.0144
    8SAPS   HN1  933   5.154   3.566  11.101 -1.0558 -2.4180 -0.3845
    8SAPS   HN2  934   5.019   3.529  11.192 -1.3712  1.3395  3.0870
    8SAPS   HN3  935   5.116   3.655  11.241 -3.4674 -0.1688  0.2823
    8SAPS   C12  936   5.199   3.463  11.268 -0.3591 -0.1084 -0.0346
    8SAPS  H12A  937   5.268   3.521  11.327  1.1671 -2.2363  0.3747
    8SAPS   C13  938   5.128   3.374  11.365  0.7786 -0.5842  0.4007
    8SAPS  O13A  939   5.005   3.409  11.388 -0.4407 -0.0986  0.0852
    8SAPS  O13B  940   5.177   3.265  11.396  0.7995  0.1579 -0.3890
    8SAPS   C11  941   5.275   3.378  11.162 -1.0347 -0.8268 -0.2654
    8SAPS  H11A  942   5.209   3.306  11.108 -2.2642  2.3305 -3.4188
    8SAPS  H11B  943   5.343   3.302  11.207 -0.7779 -1.5133 -1.7557
    8SAPS     P  944   5.459   3.400  10.983 -0.1248 -0.1438  0.2065
    8SAPS   O13  945   5.505   3.492  10.872 -0.4206  0.3267 -0.7317
    8SAPS   O14  946   5.567   3.361  11.081  0.0321  0.0423  0.2950
    8SAPS   O12  947   5.335   3.460  11.064  0.7172 -0.0786 -0.0982
    8SAPS   O11  948   5.400   3.263  10.910  0.1422 -0.9753 -0.3254
    8SAPS    C1  949   5.275   3.259  10.835 -0.3775 -0.4749 -0.7286
    8SAPS    HA  950   5.199   3.191  10.878 -0.8454  1.8631  2.4963
    8SAPS    HB  951   5.228   3.360  10.827 -2.1827 -1.2619 -0.4643
    8SAPS    C2  952   5.309   3.205  10.694 -0.2904  0.1850  0.1767
    8SAPS    HS  953   5.340   3.100  10.716  0.5706  0.4958  0.4934
    8SAPS   O21  954   5.407   3.291  10.640 -0.0071 -0.5596  0.6277
    8SAPS   C21  955   5.532   3.258  10.655  0.0548  0.0750  0.1523
    8SAPS   O22  956   5.577   3.165  10.718 -0.2109 -0.1942 -0.2249
    8SAPS   C22  957   5.622   3.349  10.573  0.2756 -0.6373 -0.2668
    8SAPS   H2R  958   5.565   3.392  10.488  0.5045 -0.0476 -0.1315
    8SAPS   H2S  959   5.654   3.431  10.642 -1.4204 -0.6909  0.6416
    8SAPS    C3  960   5.186   3.190  10.592 -0.0779 -0.5858 -0.7314
    8SAPS    HX  961   5.167   3.294  10.557  1.2020 -0.0218  0.1758
    8SAPS    HY  962   5.101   3.153  10.653  1.5683 -0.7992  1.5788
    8SAPS   O31  963   5.208   3.098  10.486 -0.7872 -0.6191  0.2087
    8SAPS   C31  964   5.260   3.141  10.375  1.0015  0.3490 -0.3901
    8SAPS   O32  965   5.291   3.258  10.354 -0.1300  0.5345  0.5141
    8SAPS   C32  966   5.281   3.016  10.287 -0.1585 -0.1916  0.4070
    8SAPS   H2X  967   5.183   2.966  10.273 -1.6265  3.2612 -4.3720
    8SAPS   H2Y  968   5.342   2.943  10.345 -2.1623 -1.5210  0.9304
    8SAPS   C23  969   5.744   3.275  10.525 -0.2623  0.1146  0.1942
    8SAPS   H3R  970   5.789   3.219  10.610  3.7544  2.1362 -0.3851
    8SAPS   H3S  971   5.819   3.345  10.482  1.4102  0.0168  2.7386
    8SAPS   C24  972   5.722   3.185  10.397  0.2346 -0.1345  0.1546
    8SAPS   H4R  973   5.676   3.244  10.314 -0.7941 -0.7274  0.2814
    8SAPS   H4S  974   5.657   3.099  10.423  2.0614 -1.0708  1.8450
    8SAPS   C25  975   5.850   3.115  10.362  0.1767  0.6436  0.1515
    8SAPS   H5R  976   5.880   3.029  10.424  0.1117  2.2354  2.5139
    8SAPS   C26  977   5.935   3.156  10.261  0.2357  0.0454 -0.6182
    8SAPS   H6R  978   6.037   3.117  10.252  0.2215  0.0049 -0.6000
    8SAPS   C27  979   5.911   3.280  10.180  0.2116  0.0862  0.2351
    8SAPS   H7R  980   6.003   3.318  10.132 -0.2865  0.4217 -0.4814
    8SAPS   H7S  981   5.853   3.357  10.236 -2.2567 -0.8671 -0.8679
    8SAPS   C28  982   5.824   3.248  10.061 -0.0169  0.0742  0.2038
    8SAPS   H8R  983   5.756   3.166  10.087  0.4352  0.1753  1.8189
    8SAPS   C29  984   5.835   3.293   9.931  0.5790  0.0213 -0.3745
    8SAPS   H9R  985   5.751   3.276   9.863  1.2248 -2.2985 -0.7024
    8SAPS  C210  986   5.938   3.396   9.887 -0.4306 -0.1419 -0.5871
    8SAPS  H10R  987   5.980   3.438   9.981  2.5589 -2.9623 -0.4626
    8SAPS  H10S  988   5.888   3.472   9.824 -0.9379 -0.7500 -0.9358
    8SAPS  C211  989   6.054   3.326   9.820 -0.1598 -0.1364 -0.9313
    8SAPS  H11R  990   6.127   3.283   9.891 -3.2874 -0.4536  2.4042
    8SAPS  C212  991   6.060   3.302   9.687 -0.6674 -0.4493 -0.4045
    8SAPS  H12R  992   6.153   3.249   9.658  1.9668  3.1476  0.7216
    8SAPS  C213  993   5.972   3.351   9.574 -0.5629 -0.1940 -0.0664
    8SAPS  H13R  994   6.018   3.353   9.473 -2.7310  0.8688 -1.1096
    8SAPS  H13S  995   5.957   3.460   9.590  1.4222 -0.0127  0.7825
    8SAPS  C214  996   5.835   3.282   9.558 -0.6502 -0.7458 -0.3901
    8SAPS  H14R  997   5.801   3.238   9.653 -1.3920  2.6982  1.1222
    8SAPS  C215  998   5.753   3.270   9.451  0.8664  0.1104 -0.1920
    8SAPS  H15R  999   5.659   3.213   9.454  0.2827  1.0465 -0.4951
    8SAPS  C216 1000   5.791   3.335   9.326 -0.1934  0.3136 -0.1274
    8SAPS  H16R 1001   5.849   3.428   9.341  0.4240  0.1024 -1.1277
    8SAPS  H16S 1002   5.708   3.366   9.260  0.8244 -0.5929 -1.8827
    8SAPS  C217 1003   5.886   3.245   9.245 -0.6010  1.2238  0.4569
    8SAPS  H17R 1004   5.854   3.139   9.246 -2.1209  1.5403 -2.8865
    8SAPS  H17S 1005   5.994   3.248   9.269  0.4757 -1.1338 -3.3408
    8SAPS  C218 1006   5.884   3.273   9.092  0.1804 -0.8497 -0.3581
    8SAPS  H18R 1007   5.775   3.280   9.072 -0.1738 -0.6538  1.4112
    8SAPS  H18S 1008   5.922   3.192   9.027  1.8652 -0.5176  0.1501
    8SAPS  C219 1009   5.954   3.406   9.044 -0.3006 -0.0889 -0.5051
    8SAPS  H19R 1010   6.060   3.387   9.071 -0.1575  0.2030 -0.8499
    8SAPS  H19S 1011   5.925   3.494   9.105  1.0419 -0.6363  0.9829
    8SAPS  C220 1012   5.946   3.438   8.895  0.3464  0.4826  0.6023
    8SAPS  H20R 1013   5.844   3.425   8.853 -0.2374 -0.1242  2.1524
    8SAPS  H20S 1014   6.016   3.365   8.849  0.7756  0.9413  0.5217
    8SAPS  H20T 1015   5.988   3.536   8.862  3.6510 -1.3182 -1.0270
    8SAPS   C33 1016   5.347   3.051  10.149  0.3800 -0.8564 -0.5614
    8SAPS   H3X 1017   5.420   2.976  10.112  0.3808 -0.8131 -0.6475
    8SAPS   H3Y 1018   5.404   3.145  10.158  2.3893 -2.1546  1.1010
    8SAPS   C34 1019   5.232   3.072  10.051  0.2526 -0.5605  0.7575
    8SAPS   H4X 1020   5.170   3.163  10.071 -3.6578 -2.4329 -1.6493
    8SAPS   H4Y 1021   5.164   2.985  10.062  0.0568 -0.4503  0.4365
    8SAPS   C35 1022   5.271   3.078   9.909 -0.4356  0.1953  0.5822
    8SAPS   H5X 1023   5.177   3.071   9.849 -1.3217  1.4394  1.7783
    8SAPS   H5Y 1024   5.330   2.986   9.891  0.2044  0.4080  1.5587
    8SAPS   C36 1025   5.344   3.206   9.876 -0.1377  0.7465  0.0656
    8SAPS   H6X 1026   5.409   3.248   9.957 -0.9186 -0.2334  1.2483
    8SAPS   H6Y 1027   5.273   3.291   9.871 -2.1548 -0.8273  0.5442
    8SAPS   C37 1028   5.424   3.189   9.754 -0.9372 -0.1147  0.5348
    8SAPS   H7X 1029   5.495   3.105   9.766  0.3134  0.7436 -0.4972
    8SAPS   H7Y 1030   5.491   3.277   9.744 -0.5179 -0.6774 -2.7468
    8SAPS   C38 1031   5.344   3.191   9.626  0.2483  0.1812 -0.1483
    8SAPS   H8X 1032   5.291   3.289   9.629  1.2568  0.7498 -0.6693
    8SAPS   H8Y 1033   5.277   3.103   9.613 -1.2061  1.4359 -1.7264
    8SAPS   C39 1034   5.407   3.185   9.485  0.1670  0.2296 -0.2584
    8SAPS   H9X 1035   5.465   3.092   9.465  0.3849  0.1595  0.6448
    8SAPS   H9Y 1036   5.476   3.272   9.479  1.1296 -0.6104 -3.8840
    8SAPS  C310 1037   5.303   3.202   9.367 -0.1703  0.0889 -0.4237
    8SAPS  H10X 1038   5.255   3.302   9.368  2.2467  1.3445  0.2130
    8SAPS  H10Y 1039   5.218   3.130   9.373 -0.2963  0.2016 -0.8414
    8SAPS  C311 1040   5.369   3.164   9.232  0.3209 -0.2141  0.1070
    8SAPS  H11X 1041   5.431   3.074   9.252  1.3753  0.6138  0.6564
    8SAPS  H11Y 1042   5.429   3.255   9.208 -0.6236  0.2318 -0.6534
    8SAPS  C312 1043   5.267   3.129   9.119  0.0098  0.1451 -0.0019
    8SAPS  H12X 1044   5.313   3.126   9.018 -0.2976 -1.9542 -0.1192
    8SAPS  H12Y 1045   5.201   3.218   9.118 -2.6603 -1.6826  1.4692
    8SAPS  C313 1046   5.189   2.996   9.142 -0.5175 -1.0267 -0.0720
    8SAPS  H13X 1047   5.109   2.990   9.219 -0.0201 -1.8356  0.3958
    8SAPS  H13Y 1048   5.267   2.921   9.167  1.1237 -0.4508 -2.9799
    8SAPS  C314 1049   5.138   2.939   9.005 -0.3451 -0.7895  0.0353
    8SAPS  H14X 1050   5.106   2.835   9.028  1.6389 -1.8181 -1.5496
    8SAPS  H14Y 1051   5.221   2.930   8.931  0.0380  1.8995  0.0055
    8SAPS  C315 1052   5.029   3.020   8.950  0.3719  0.6189  0.1829
    8SAPS  H15X 1053   5.057   3.127   8.937 -2.4704  1.5544  1.0165
    8SAPS  H15Y 1054   4.930   3.011   9.000  0.4447 -1.4731  0.0336
    8SAPS  C316 1055   5.004   2.988   8.793  0.4900  0.5683  0.3937
    8SAPS  H16X 1056   4.967   2.884   8.786  1.8371  0.1170 -0.5749
    8SAPS  H16Y 1057   5.101   2.984   8.738 -0.2912 -1.2291 -0.9374
    8SAPS  C317 1058   4.893   3.080   8.725  0.2691  0.0863 -0.1300
    8SAPS  H17X 1059   4.938   3.181   8.729 -0.1313  0.3013 -0.8465
    8SAPS  H17Y 1060   4.805   3.079   8.794  0.6854 -1.7503  0.4176
    8SAPS  C318 1061   4.864   3.037   8.581  0.3190  0.0438  0.0637
    8SAPS  H18X 1062   4.953   3.039   8.515  0.5548  1.4409  0.3812
    8SAPS  H18Y 1063   4.792   3.111   8.538  0.0973 -1.0763 -1.5694
    8SAPS  H18Z 1064   4.823   2.934   8.579  2.5196 -0.8856 -1.1575
    9SAPS     N 1065   2.160   0.642   6.409 -0.1158  0.1423 -0.1617
    9SAPS   HN1 1066   2.256   0.644   6.370  0.8010  0.6145  1.9660
    9SAPS   HN2 1067   2.154   0.690   6.502 -0.7974  1.1055 -0.6823
    9SAPS   HN3 1068   2.125   0.544   6.415 -0.0884  0.1436  0.0410
    9SAPS   C12 1069   2.058   0.706   6.316  0.3092  0.2430 -0.2324
    9SAPS  H12A 1070   2.105   0.788   6.263  1.6967 -0.0556  0.4831
    9SAPS   C13 1071   2.014   0.595   6.211 -0.0376  0.1737  0.5146
    9SAPS  O13A 1072   2.050   0.474   6.218  0.0110 -0.0277 -0.2934
    9SAPS  O13B 1073   1.967   0.645   6.104  0.3294  0.2449  0.0981
    9SAPS   C11 1074   1.938   0.761   6.398  0.0467  0.2441 -0.8495
    9SAPS  H11A 1075   1.866   0.820   6.338  0.3924  1.5532 -0.0137
    9SAPS  H11B 1076   1.965   0.845   6.465 -0.4514  3.0866 -3.9684
    9SAPS     P 1077   1.721   0.644   6.488 -0.0312  0.1816 -0.4788
    9SAPS   O13 1078   1.658   0.679   6.360 -0.3600 -0.4248 -0.2743
    9SAPS   O14 1079   1.678   0.516   6.555 -0.2838  0.4519  0.0495
    9SAPS   O12 1080   1.880   0.658   6.479  0.2676 -0.8035  0.1928
    9SAPS   O11 1081   1.680   0.760   6.581 -0.0214 -0.0058  0.0079
    9SAPS    C1 1082   1.754   0.830   6.675 -0.0479  0.1501 -1.0976
    9SAPS    HA 1083   1.858   0.855   6.645  0.3572  0.9797  0.8293
    9SAPS    HB 1084   1.703   0.926   6.697 -1.8405 -0.8637 -0.6188
    9SAPS    C2 1085   1.759   0.756   6.810 -0.5364 -0.3355  0.1725
    9SAPS    HS 1086   1.800   0.816   6.894 -1.8274 -0.2969  0.7858
    9SAPS   O21 1087   1.837   0.626   6.804  0.0537 -0.7753 -0.5563
    9SAPS   C21 1088   1.969   0.647   6.817 -0.5119 -0.2843  0.5967
    9SAPS   O22 1089   2.023   0.755   6.831 -0.8674  0.2657 -0.4235
    9SAPS   C22 1090   2.045   0.511   6.826 -1.0591  0.5512  0.2348
    9SAPS   H2R 1091   2.029   0.456   6.731  0.9347 -0.3556  0.3747
    9SAPS   H2S 1092   2.155   0.533   6.829 -1.0159  0.6445 -1.3677
    9SAPS    C3 1093   1.613   0.719   6.844  0.4084 -0.2202 -0.6098
    9SAPS    HX 1094   1.570   0.629   6.795 -0.9677 -0.3297  0.7072
    9SAPS    HY 1095   1.554   0.805   6.806  1.2460  0.5934 -0.1075
    9SAPS   O31 1096   1.598   0.724   6.989  0.1001  0.5029  0.3331
    9SAPS   C31 1097   1.632   0.613   7.049 -0.2252 -0.2075 -0.2444
    9SAPS   O32 1098   1.664   0.509   6.992 -0.0915  0.4991  0.0476
    9SAPS   C32 1099   1.620   0.632   7.201  0.1945 -0.4279  0.3045
    9SAPS   H2X 1100   1.547   0.711   7.227  1.1770  1.3333 -1.9574
    9SAPS   H2Y 1101   1.724   0.666   7.219  0.4192 -1.0448  0.2164
    9SAPS   C23 1102   2.020   0.418   6.946  0.1325 -0.0664 -0.1391
    9SAPS   H3R 1103   2.063   0.316   6.934 -0.0807  0.0386 -2.2366
    9SAPS   H3S 1104   1.910   0.409   6.962  0.0116 -2.1993 -1.6489
    9SAPS   C24 1105   2.081   0.469   7.080 -0.7508  0.1477  0.0886
    9SAPS   H4R 1106   2.031   0.406   7.157  0.9564 -1.4037  0.0137
    9SAPS   H4S 1107   2.041   0.571   7.099 -0.7243  0.8584 -3.1244
    9SAPS   C25 1108   2.231   0.474   7.079 -0.2624  0.6749 -0.0545
    9SAPS   H5R 1109   2.286   0.527   7.000  1.5270 -1.5595 -0.4082
    9SAPS   C26 1110   2.304   0.413   7.171  0.3867 -0.5919 -0.5784
    9SAPS   H6R 1111   2.410   0.422   7.142  0.4000 -2.0530 -1.0640
    9SAPS   C27 1112   2.277   0.336   7.302  0.3534 -0.1288  0.2615
    9SAPS   H7R 1113   2.169   0.316   7.316  0.3445  0.6198  1.3282
    9SAPS   H7S 1114   2.295   0.404   7.388 -0.4225  0.2432  0.1371
    9SAPS   C28 1115   2.371   0.214   7.329  0.1598 -0.4503  0.0770
    9SAPS   H8R 1116   2.446   0.198   7.251  1.8695  1.3248  1.2535
    9SAPS   C29 1117   2.373   0.140   7.436 -0.1158  1.0380  0.0202
    9SAPS   H9R 1118   2.457   0.070   7.447 -0.1427  0.9683 -0.2153
    9SAPS  C210 1119   2.275   0.149   7.546 -0.5563 -0.3826  0.7338
    9SAPS  H10R 1120   2.259   0.043   7.573  1.3468 -0.8907  0.0187
    9SAPS  H10S 1121   2.173   0.161   7.503 -0.0640 -3.2614 -1.5790
    9SAPS  C211 1122   2.314   0.235   7.664  0.8497 -0.3874  0.1995
    9SAPS  H11R 1123   2.398   0.304   7.653 -0.1004  0.7560 -0.0434
    9SAPS  C212 1124   2.242   0.244   7.782  0.1424  0.0015  0.8093
    9SAPS  H12R 1125   2.266   0.322   7.854 -2.1211  0.7816  0.7794
    9SAPS  C213 1126   2.120   0.161   7.806  0.4717 -0.2415  0.5033
    9SAPS  H13R 1127   2.062   0.159   7.710  0.3933 -0.6447  0.5563
    9SAPS  H13S 1128   2.057   0.218   7.877 -0.1249 -0.3209  0.0531
    9SAPS  C214 1129   2.142   0.017   7.849 -0.5154  0.2210 -0.0024
    9SAPS  H14R 1130   2.165  -0.052   7.767 -0.8090  2.3894 -2.0108
    9SAPS  C215 1131   2.151  -0.021   7.979 -0.2995 -0.4693  0.1639
    9SAPS  H15R 1132   2.156  -0.126   8.011 -0.3718 -1.0415 -1.6384
    9SAPS  C216 1133   2.147   0.077   8.098  0.1329 -0.2431 -0.7167
    9SAPS  H16R 1134   2.073   0.046   8.175  1.1873 -1.0182  0.0101
    9SAPS  H16S 1135   2.132   0.182   8.063 -1.3656 -1.0497 -2.6644
    9SAPS  C217 1136   2.273   0.067   8.183 -0.8061  0.2194 -0.3060
    9SAPS  H17R 1137   2.288  -0.040   8.208 -2.3041 -0.4535 -2.0945
    9SAPS  H17S 1138   2.248   0.127   8.273 -0.9909 -1.2775  0.6667
    9SAPS  C218 1139   2.397   0.137   8.125  0.1491  1.2712 -0.0203
    9SAPS  H18R 1140   2.374   0.246   8.128 -2.7043  0.7134  1.5075
    9SAPS  H18S 1141   2.421   0.115   8.019  0.1820 -1.3983  0.4707
    9SAPS  C219 1142   2.524   0.111   8.197  0.3908 -0.1669 -0.4122
    9SAPS  H19R 1143   2.609   0.168   8.153  0.1594  0.5961  0.0950
    9SAPS  H19S 1144   2.544   0.003   8.185 -0.8105 -0.2016 -2.5472
    9SAPS  C220 1145   2.505   0.136   8.348  0.3409 -0.0030  0.4868
    9SAPS  H20R 1146   2.602   0.131   8.401  0.3725  0.4218  0.4752
    9SAPS  H20S 1147   2.435   0.058   8.385  1.9712 -1.4616  0.6052
    9SAPS  H20T 1148   2.465   0.239   8.361 -0.0690 -0.1320  0.2760
    9SAPS   C33 1149   1.591   0.506   7.283  0.2894  0.5355  0.6184
    9SAPS   H3X 1150   1.516   0.438   7.237  0.2126  1.3579 -0.5127
    9SAPS   H3Y 1151   1.565   0.515   7.390 -0.0077 -0.0593  0.5990
    9SAPS   C34 1152   1.715   0.421   7.292  0.1602  0.2744 -0.4093
    9SAPS   H4X 1153   1.780   0.418   7.202 -0.0356 -1.6856 -0.5351
    9SAPS   H4Y 1154   1.690   0.313   7.300  0.7571  0.1558 -0.0349
    9SAPS   C35 1155   1.813   0.443   7.411  0.0723  0.5295 -0.2795
    9SAPS   H5X 1156   1.814   0.554   7.415 -1.9296  0.5853 -0.1668
    9SAPS   H5Y 1157   1.914   0.402   7.392  0.5656  1.4586  0.2817
    9SAPS   C36 1158   1.754   0.389   7.545 -0.5507 -0.0182  0.3775
    9SAPS   H6X 1159   1.740   0.279   7.538  1.2726 -0.3121  0.9680
    9SAPS   H6Y 1160   1.648   0.420   7.557 -1.1635 -2.5427  1.9116
    9SAPS   C37 1161   1.838   0.430   7.672  0.4028  0.0814  0.4213
    9SAPS   H7X 1162   1.855   0.539   7.677  1.9620 -0.0900 -0.4052
    9SAPS   H7Y 1163   1.932   0.373   7.657 -0.0289 -0.4648 -0.3008
    9SAPS   C38 1164   1.769   0.374   7.799 -0.7408  0.7647  0.0599
    9SAPS   H8X 1165   1.754   0.266   7.776  1.0784 -0.0053  2.1408
    9SAPS   H8Y 1166   1.667   0.417   7.808 -0.8199  0.7636 -0.7577
    9SAPS   C39 1167   1.848   0.391   7.928 -0.2671  0.2249  0.5740
    9SAPS   H9X 1168   1.830   0.497   7.956  1.9163  1.0440 -0.8081
    9SAPS   H9Y 1169   1.953   0.403   7.893 -1.0498  2.3059 -1.2972
    9SAPS  C310 1170   1.827   0.295   8.036  0.2452 -0.1218  0.9408
    9SAPS  H10X 1171   1.876   0.199   8.009 -1.6556 -0.7015 -0.7231
    9SAPS  H10Y 1172   1.724   0.267   8.066  0.0715  0.4077  0.8405
    9SAPS  C311 1173   1.897   0.352   8.169 -0.9146  0.8971  0.8229
    9SAPS  H11X 1174   1.858   0.454   8.187 -3.3055  0.0954  0.6101
    9SAPS  H11Y 1175   2.005   0.346   8.143 -1.4526 -0.9704 -1.3828
    9SAPS  C312 1176   1.867   0.261   8.288  0.0730  0.5933 -0.0575
    9SAPS  H12X 1177   1.888   0.157   8.256  0.5898  1.8565 -4.4499
    9SAPS  H12Y 1178   1.762   0.283   8.319  0.3446  2.7703 -0.5069
    9SAPS  C313 1179   1.953   0.296   8.414  0.8319 -1.6221  0.4539
    9SAPS  H13X 1180   1.954   0.405   8.434 -0.4474 -0.9831 -2.3882
    9SAPS  H13Y 1181   2.055   0.262   8.387  1.2908  2.0411 -3.6643
    9SAPS  C314 1182   1.890   0.227   8.535 -0.3381  0.4552  0.0102
    9SAPS  H14X 1183   1.874   0.120   8.510 -0.2917  0.0539  1.6218
    9SAPS  H14Y 1184   1.797   0.284   8.557  0.3109  0.9239  1.6499
    9SAPS  C315 1185   1.977   0.234   8.658  0.1261  0.4974 -0.5758
    9SAPS  H15X 1186   2.014   0.337   8.677 -0.6946  0.8319 -0.7329
    9SAPS  H15Y 1187   2.074   0.187   8.633 -0.5769  0.0217 -2.6468
    9SAPS  C316 1188   1.909   0.184   8.786 -0.3048  0.6750 -1.0699
    9SAPS  H16X 1189   1.799   0.201   8.783 -0.7679 -1.9373 -2.5786
    9SAPS  H16Y 1190   1.941   0.240   8.877  0.0592 -0.1872 -0.6521
    9SAPS  C317 1191   1.958   0.039   8.809  0.5986 -0.4895  0.3964
    9SAPS  H17X 1192   1.938  -0.010   8.711 -1.3533 -2.3038  1.6153
    9SAPS  H17Y 1193   1.898  -0.009   8.889 -1.3593 -0.2360 -0.8417
    9SAPS  C318 1194   2.108   0.040   8.851  0.3176 -0.0528  0.2494
    9SAPS  H18X 1195   2.173   0.055   8.762  3.2671 -2.9828  1.6931
    9SAPS  H18Y 1196   2.125  -0.057   8.902  2.0129  0.9876  1.7768
    9SAPS  H18Z 1197   2.145   0.120   8.918 -1.1765 -0.2950  1.4269
   10SAPS     N 1198   2.880   0.689   6.552 -0.3686  0.1335  0.3576
   10SAPS   HN1 1199   2.945   0.765   6.577  1.0603 -0.7622 -0.5029
   10SAPS   HN2 1200   2.793   0.697   6.610 -0.7358  0.9748 -0.2898
   10SAPS   HN3 1201   2.934   0.601   6.564  1.0517  0.9945  0.5283
   10SAPS   C12 1202   2.830   0.696   6.412 -0.7071 -0.9204  0.4341
   10SAPS  H12A 1203   2.768   0.784   6.402 -0.4085 -0.8350 -0.8287
   10SAPS   C13 1204   2.942   0.689   6.304  0.2184 -0.4620 -0.0060
   10SAPS  O13A 1205   3.058   0.667   6.346  0.7278 -0.3572  0.8104
   10SAPS  O13B 1206   2.907   0.667   6.186 -0.6942 -0.2025 -0.1416
   10SAPS   C11 1207   2.732   0.582   6.391 -0.2035  0.5335  0.2203
   10SAPS  H11A 1208   2.788   0.487   6.379  0.9495  1.1561  0.4980
   10SAPS  H11B 1209   2.692   0.588   6.288 -0.9675  1.0243  0.5345
   10SAPS     P 1210   2.499   0.495   6.440 -0.1236  0.2767  0.0272
   10SAPS   O13 1211   2.418   0.601   6.369  0.0115  0.6516  0.4962
   10SAPS   O14 1212   2.530   0.373   6.362 -0.0890 -0.9370  0.0061
   10SAPS   O12 1213   2.632   0.568   6.489 -0.0661  0.9507  0.3179
   10SAPS   O11 1214   2.427   0.440   6.572 -0.9253 -0.0261 -0.2722
   10SAPS    C1 1215   2.433   0.508   6.703  0.4550 -0.7447  0.0209
   10SAPS    HA 1216   2.407   0.616   6.694 -2.9201 -1.3291  1.4919
   10SAPS    HB 1217   2.351   0.460   6.759  1.1517 -0.8239  0.9923
   10SAPS    C2 1218   2.553   0.492   6.795 -0.1160 -0.1469  0.0327
   10SAPS    HS 1219   2.646   0.507   6.736 -0.6966 -1.8037 -1.4192
   10SAPS   O21 1220   2.547   0.356   6.848  0.7660  0.3756  0.3290
   10SAPS   C21 1221   2.659   0.320   6.905 -0.8854  0.2617 -0.4011
   10SAPS   O22 1222   2.766   0.382   6.900 -0.9014  0.0348  0.0430
   10SAPS   C22 1223   2.634   0.184   6.969 -0.9396  0.6305  0.5039
   10SAPS   H2R 1224   2.591   0.199   7.070  0.3695 -0.1272  1.1992
   10SAPS   H2S 1225   2.555   0.134   6.909 -0.0344 -0.9748  0.6050
   10SAPS    C3 1226   2.546   0.606   6.904 -0.5383 -0.1916  0.2285
   10SAPS    HX 1227   2.483   0.569   6.987  1.6348 -0.2406  1.9502
   10SAPS    HY 1228   2.508   0.697   6.852 -2.6752 -0.7183  0.7709
   10SAPS   O31 1229   2.671   0.631   6.967 -0.4707 -0.8461 -0.2988
   10SAPS   C31 1230   2.753   0.700   6.899  0.1932 -1.0960 -0.8706
   10SAPS   O32 1231   2.739   0.743   6.788 -0.3904  0.2620 -0.1514
   10SAPS   C32 1232   2.883   0.712   6.970 -1.0774 -0.5333 -0.2173
   10SAPS   H2X 1233   2.912   0.820   6.967  0.9154 -1.0493 -1.5744
   10SAPS   H2Y 1234   2.968   0.660   6.922 -1.1238 -1.0134  0.2144
   10SAPS   C23 1235   2.763   0.096   6.965 -0.2395  0.6732 -0.1319
   10SAPS   H3R 1236   2.795   0.101   6.859  1.7959  1.2032  0.4743
   10SAPS   H3S 1237   2.728  -0.008   6.986 -0.5226  0.8200  0.1300
   10SAPS   C24 1238   2.865   0.129   7.078  0.2964  0.0637 -0.3745
   10SAPS   H4R 1239   2.807   0.156   7.169 -0.9631 -1.3420 -0.7129
   10SAPS   H4S 1240   2.917   0.224   7.055  2.5121 -0.2998  2.5924
   10SAPS   C25 1241   2.973   0.021   7.102  0.0293  0.8975 -0.3560
   10SAPS   H5R 1242   3.062   0.014   7.038 -0.5951  0.2486 -1.1685
   10SAPS   C26 1243   2.977  -0.061   7.209  0.5157  0.2809  0.2724
   10SAPS   H6R 1244   3.072  -0.115   7.221  0.4915  0.4175  1.1581
   10SAPS   C27 1245   2.874  -0.090   7.317  0.2666 -0.1248  0.6993
   10SAPS   H7R 1246   2.777  -0.040   7.296  0.9698  1.3529  0.8229
   10SAPS   H7S 1247   2.912  -0.037   7.407 -1.7840 -1.0891  2.2411
   10SAPS   C28 1248   2.861  -0.238   7.355  1.0158 -1.4901  0.1667
   10SAPS   H8R 1249   2.876  -0.310   7.273  1.5696  0.8691 -1.9240
   10SAPS   C29 1250   2.834  -0.277   7.479  0.3143 -0.4472  0.1477
   10SAPS   H9R 1251   2.842  -0.384   7.502 -0.1221 -0.3525  0.7648
   10SAPS  C210 1252   2.803  -0.192   7.607  0.7641 -0.6605  0.3087
   10SAPS  H10R 1253   2.881  -0.115   7.624  0.7780 -0.5955 -0.0549
   10SAPS  H10S 1254   2.798  -0.259   7.695 -1.7273 -1.5939 -0.4539
   10SAPS  C211 1255   2.662  -0.123   7.598  0.5118  0.3642 -0.2811
   10SAPS  H11R 1256   2.616  -0.120   7.498  0.2307  0.2539 -0.1559
   10SAPS  C212 1257   2.592  -0.061   7.694 -0.0436 -0.3166 -0.2394
   10SAPS  H12R 1258   2.489  -0.026   7.677 -0.2243 -0.0575  1.2830
   10SAPS  C213 1259   2.643  -0.056   7.835  0.2883 -0.4789 -0.5393
   10SAPS  H13R 1260   2.669  -0.160   7.863 -0.4272 -0.7555 -0.8860
   10SAPS  H13S 1261   2.560  -0.018   7.898 -0.0408 -0.6489 -0.8687
   10SAPS  C214 1262   2.770   0.032   7.860 -0.0813 -0.5088 -0.5069
   10SAPS  H14R 1263   2.864  -0.021   7.881  2.1927  3.0283 -1.0130
   10SAPS  C215 1264   2.785   0.165   7.858  0.2544 -0.1028  0.1067
   10SAPS  H15R 1265   2.879   0.216   7.881  0.5391  0.9571 -2.9492
   10SAPS  C216 1266   2.665   0.262   7.828 -0.2625  0.1634  0.8663
   10SAPS  H16R 1267   2.623   0.309   7.920 -1.7462  1.3330 -0.3650
   10SAPS  H16S 1268   2.577   0.211   7.784  2.5376 -1.9367 -2.8171
   10SAPS  C217 1269   2.704   0.374   7.730  0.0138 -0.0018 -0.5248
   10SAPS  H17R 1270   2.781   0.444   7.767 -1.5728  1.5759 -0.0615
   10SAPS  H17S 1271   2.615   0.440   7.727  0.4367  0.9428  3.1093
   10SAPS  C218 1272   2.740   0.319   7.586  0.0478 -0.2669 -0.5825
   10SAPS  H18R 1273   2.656   0.254   7.552 -2.1865  1.6992  0.8508
   10SAPS  H18S 1274   2.840   0.271   7.592  0.7528  1.2218 -0.0476
   10SAPS  C219 1275   2.754   0.435   7.481 -0.6081  0.4610  0.4077
   10SAPS  H19R 1276   2.859   0.473   7.483  0.2809 -1.7039 -1.3611
   10SAPS  H19S 1277   2.673   0.506   7.508 -1.1904  0.6518 -1.6656
   10SAPS  C220 1278   2.736   0.378   7.335  0.4850  0.2228 -0.1067
   10SAPS  H20R 1279   2.700   0.460   7.268  1.4201  1.2455  0.5955
   10SAPS  H20S 1280   2.668   0.291   7.323  0.0619  0.5380 -0.0315
   10SAPS  H20T 1281   2.838   0.352   7.302  0.6666 -1.7885  1.8245
   10SAPS   C33 1282   2.880   0.698   7.123  0.2759 -0.0217  0.1718
   10SAPS   H3X 1283   2.868   0.589   7.145 -0.6295 -0.0091 -0.1941
   10SAPS   H3Y 1284   2.796   0.745   7.179  2.7538  0.4615  3.8116
   10SAPS   C34 1285   3.009   0.736   7.197 -0.3919 -0.4219  0.3076
   10SAPS   H4X 1286   3.035   0.837   7.158  0.7551 -1.6750 -2.3852
   10SAPS   H4Y 1287   3.089   0.668   7.163  0.7216  0.7403  0.5224
   10SAPS   C35 1288   3.003   0.733   7.349  0.8548  0.3623 -0.0468
   10SAPS   H5X 1289   2.963   0.638   7.390  0.9011  0.7679  0.9665
   10SAPS   H5Y 1290   2.932   0.811   7.382  1.5133  2.1741 -2.5780
   10SAPS   C36 1291   3.132   0.770   7.413  0.6670  0.5356  0.1228
   10SAPS   H6X 1292   3.185   0.852   7.359  0.8971  0.7319  0.6375
   10SAPS   H6Y 1293   3.207   0.689   7.398  1.9191  1.4731  1.0810
   10SAPS   C37 1294   3.118   0.787   7.560  0.4635  0.2475 -0.5696
   10SAPS   H7X 1295   3.196   0.739   7.623 -1.2391 -0.3234  1.2322
   10SAPS   H7Y 1296   3.024   0.731   7.579  0.8696 -0.7719 -1.4755
   10SAPS   C38 1297   3.101   0.932   7.603  0.0110 -0.0896  0.0133
   10SAPS   H8X 1298   3.015   0.986   7.557  1.3569  0.7674 -1.5989
   10SAPS   H8Y 1299   3.190   0.991   7.571  2.7533 -2.5649  2.5052
   10SAPS   C39 1300   3.098   0.948   7.753 -0.0031  0.3687 -0.8018
   10SAPS   H9X 1301   3.007   0.902   7.796  0.6211  0.1895  0.3604
   10SAPS   H9Y 1302   3.081   1.057   7.765  0.6962  0.5783 -1.5763
   10SAPS  C310 1303   3.219   0.900   7.830  0.6050  0.5838  0.5642
   10SAPS  H10X 1304   3.307   0.947   7.781  2.4527  1.2597  4.2481
   10SAPS  H10Y 1305   3.230   0.790   7.832 -0.0240  0.3878 -2.1208
   10SAPS  C311 1306   3.236   0.961   7.970  0.0595  0.6387 -0.2705
   10SAPS  H11X 1307   3.220   1.071   7.969 -2.0975  0.4740  3.0893
   10SAPS  H11Y 1308   3.334   0.939   8.018 -0.9463 -0.4489  1.3403
   10SAPS  C312 1309   3.129   0.917   8.069  0.1122  0.1165 -0.0142
   10SAPS  H12X 1310   3.128   0.806   8.074 -0.5312  0.1654  1.6033
   10SAPS  H12Y 1311   3.030   0.958   8.039 -0.8269 -0.8984  1.5320
   10SAPS  C313 1312   3.157   0.980   8.210  0.0248 -0.1489  0.3371
   10SAPS  H13X 1313   3.166   1.091   8.204  0.5046 -0.2014  0.0642
   10SAPS  H13Y 1314   3.251   0.940   8.254 -0.2943 -2.0348 -0.6222
   10SAPS  C314 1315   3.048   0.946   8.317 -0.1091 -0.3887 -0.3393
   10SAPS  H14X 1316   3.083   0.998   8.409 -2.4229  0.0346  0.3481
   10SAPS  H14Y 1317   3.051   0.837   8.340 -1.0222 -0.1373  1.1096
   10SAPS  C315 1318   2.903   0.978   8.282 -0.2106 -0.1975  0.8896
   10SAPS  H15X 1319   2.874   0.928   8.187 -1.2986  1.3786  0.3434
   10SAPS  H15Y 1320   2.901   1.086   8.254 -0.2483  0.2476  2.4882
   10SAPS  C316 1321   2.798   0.971   8.392  0.0722 -0.3087 -1.0273
   10SAPS  H16X 1322   2.848   1.015   8.481 -2.7045 -0.0916  0.5337
   10SAPS  H16Y 1323   2.781   0.862   8.409  0.6123 -0.1873  0.4798
   10SAPS  C317 1324   2.669   1.043   8.364  0.3010  0.1592 -0.9831
   10SAPS  H17X 1325   2.633   1.004   8.266  1.6543 -1.5659 -0.8414
   10SAPS  H17Y 1326   2.679   1.154   8.365  0.2409  0.1732  0.8393
   10SAPS  C318 1327   2.557   1.012   8.468 -0.3935 -0.1111  0.6551
   10SAPS  H18X 1328   2.482   1.094   8.473 -0.4280 -0.1501  0.7830
   10SAPS  H18Y 1329   2.599   1.004   8.571 -0.9621  2.1139  1.1152
   10SAPS  H18Z 1330   2.524   0.911   8.437  2.0712 -1.2421  1.4477
   11SAPS     N 1331   2.646   3.961   6.046 -0.0054  0.0477  0.5475
   11SAPS   HN1 1332   2.597   3.915   6.125 -1.3238 -0.1354 -0.3457
   11SAPS   HN2 1333   2.742   3.993   6.067 -0.4898  1.3599  0.8063
   11SAPS   HN3 1334   2.593   4.049   6.033 -0.0671  0.0657  0.9135
   11SAPS   C12 1335   2.632   3.862   5.933  0.9867  0.7873 -0.0279
   11SAPS  H12A 1336   2.525   3.859   5.915  1.1090 -1.5762 -0.7492
   11SAPS   C13 1337   2.705   3.909   5.798 -0.1693 -0.3447  0.2260
   11SAPS  O13A 1338   2.774   4.014   5.800  0.5733 -0.3651 -0.6795
   11SAPS  O13B 1339   2.709   3.827   5.706 -0.2441  0.2238 -0.3056
   11SAPS   C11 1340   2.668   3.717   5.976 -0.6224 -0.2389  0.5039
   11SAPS  H11A 1341   2.661   3.650   5.888  1.3175  1.0484 -0.7136
   11SAPS  H11B 1342   2.594   3.682   6.050 -1.5904 -0.5696 -0.5910
   11SAPS     P 1343   2.867   3.576   6.070  0.1390 -0.3030 -0.3958
   11SAPS   O13 1344   2.820   3.476   5.968 -0.4682  0.0169  0.0511
   11SAPS   O14 1345   3.009   3.591   6.103 -0.2789  0.1150  0.1602
   11SAPS   O12 1346   2.800   3.708   6.024  0.2838  0.2875  0.0552
   11SAPS   O11 1347   2.786   3.549   6.204  0.7202 -0.8335  0.1367
   11SAPS    C1 1348   2.740   3.661   6.282 -0.0711 -0.7388 -0.1987
   11SAPS    HA 1349   2.773   3.757   6.236  2.5699 -0.9095  1.1521
   11SAPS    HB 1350   2.629   3.656   6.279 -0.2583  1.9854 -1.8320
   11SAPS    C2 1351   2.793   3.661   6.426 -0.7303  0.9434  0.2434
   11SAPS    HS 1352   2.829   3.762   6.456  0.7270 -0.0377  1.9787
   11SAPS   O21 1353   2.893   3.561   6.444 -0.4227  0.9910  0.4950
   11SAPS   C21 1354   3.020   3.601   6.428 -0.0989  0.9677  0.2923
   11SAPS   O22 1355   3.059   3.715   6.423  0.3772  0.6481 -0.0640
   11SAPS   C22 1356   3.121   3.480   6.414  0.5233 -0.1290 -0.1453
   11SAPS   H2R 1357   3.060   3.387   6.408 -0.2826  0.3723  0.1757
   11SAPS   H2S 1358   3.185   3.488   6.324 -3.2464 -0.5793 -3.1278
   11SAPS    C3 1359   2.684   3.623   6.527 -0.0746 -0.3558  0.4020
   11SAPS    HX 1360   2.652   3.518   6.515  1.2659 -0.6708 -0.6102
   11SAPS    HY 1361   2.595   3.690   6.525  1.0488  1.2481  1.2704
   11SAPS   O31 1362   2.741   3.631   6.661  0.7159  0.6109  0.2143
   11SAPS   C31 1363   2.776   3.523   6.726  0.1744  0.5031  0.4424
   11SAPS   O32 1364   2.750   3.405   6.709  0.2592 -0.3861 -0.1671
   11SAPS   C32 1365   2.867   3.586   6.841 -0.6935 -0.5279 -0.2593
   11SAPS   H2X 1366   2.826   3.686   6.865  0.1258  0.3685 -2.3874
   11SAPS   H2Y 1367   2.969   3.595   6.797 -0.7195  0.6083 -0.0946
   11SAPS   C23 1368   3.211   3.467   6.544 -0.7373  0.0248  0.1585
   11SAPS   H3R 1369   3.144   3.484   6.631 -0.0213  0.5395  0.6156
   11SAPS   H3S 1370   3.297   3.536   6.543 -0.1412 -0.6862  0.8070
   11SAPS   C24 1371   3.272   3.332   6.553  0.3456  0.4799 -0.2508
   11SAPS   H4R 1372   3.349   3.307   6.476  0.4204 -0.0990  0.0037
   11SAPS   H4S 1373   3.202   3.247   6.540 -0.3181  1.0054 -0.1467
   11SAPS   C25 1374   3.354   3.324   6.677 -0.4210  0.4717 -0.8429
   11SAPS   H5R 1375   3.462   3.342   6.663  0.1690 -0.8853  1.4220
   11SAPS   C26 1376   3.319   3.295   6.804 -0.4576  0.2021  0.6431
   11SAPS   H6R 1377   3.402   3.275   6.874  0.3167 -0.6849 -0.4848
   11SAPS   C27 1378   3.181   3.264   6.848  0.6717 -0.9615 -0.4761
   11SAPS   H7R 1379   3.106   3.260   6.765 -1.7879  0.1190  1.5653
   11SAPS   H7S 1380   3.141   3.347   6.909 -0.4006 -1.6535 -0.2030
   11SAPS   C28 1381   3.175   3.126   6.907  0.4704 -0.1006  0.2791
   11SAPS   H8R 1382   3.143   3.045   6.840  2.3086  1.0681 -2.1762
   11SAPS   C29 1383   3.177   3.087   7.034  0.0523  0.3766  0.7137
   11SAPS   H9R 1384   3.146   2.982   7.045 -0.8056  0.6462  0.9546
   11SAPS  C210 1385   3.209   3.174   7.151 -0.8444  0.2003 -0.2064
   11SAPS  H10R 1386   3.118   3.191   7.212 -1.8149  1.1911 -1.8349
   11SAPS  H10S 1387   3.249   3.268   7.106  0.1310 -0.1459 -0.0921
   11SAPS  C211 1388   3.312   3.099   7.233  0.3179  0.3520  0.0839
   11SAPS  H11R 1389   3.398   3.055   7.180 -0.4152 -1.2630  0.1864
   11SAPS  C212 1390   3.317   3.058   7.357 -0.6274 -0.0192  0.2520
   11SAPS  H12R 1391   3.403   2.998   7.390  2.1494  2.2562 -2.1931
   11SAPS  C213 1392   3.215   3.082   7.462 -0.5280  0.1950  0.3976
   11SAPS  H13R 1393   3.185   2.980   7.496 -1.6453  0.0983 -0.8283
   11SAPS  H13S 1394   3.126   3.129   7.417 -0.8222 -1.3119 -0.6539
   11SAPS  C214 1395   3.265   3.164   7.580 -0.5523 -0.1434 -0.1996
   11SAPS  H14R 1396   3.285   3.270   7.558 -1.1862  0.2080  0.7997
   11SAPS  C215 1397   3.303   3.122   7.701  0.4832 -0.2717 -0.1837
   11SAPS  H15R 1398   3.313   3.201   7.777 -1.2204 -0.5121  0.3539
   11SAPS  C216 1399   3.308   2.993   7.761  0.8083 -0.6148  0.5043
   11SAPS  H16R 1400   3.329   2.912   7.688 -0.1315 -1.2194  0.8904
   11SAPS  H16S 1401   3.215   2.964   7.813  0.6990 -2.7523 -0.7921
   11SAPS  C217 1402   3.431   2.990   7.864  0.6470  0.1815  0.7455
   11SAPS  H17R 1403   3.415   2.891   7.912 -2.3380 -0.1405 -0.6693
   11SAPS  H17S 1404   3.406   3.062   7.945 -1.6200 -0.3756  0.5948
   11SAPS  C218 1405   3.572   2.990   7.809 -0.3821  1.1604  0.4506
   11SAPS  H18R 1406   3.579   3.061   7.724  1.4372  0.4271 -0.0597
   11SAPS  H18S 1407   3.598   2.896   7.756  1.4813  2.5550 -1.2945
   11SAPS  C219 1408   3.677   3.003   7.924 -0.5980 -0.0132 -0.1452
   11SAPS  H19R 1409   3.660   3.104   7.968 -1.0716  0.0309 -0.4260
   11SAPS  H19S 1410   3.779   2.995   7.880 -1.0708 -2.8777 -0.9286
   11SAPS  C220 1411   3.658   2.892   8.034  0.0648  0.3224 -0.2924
   11SAPS  H20R 1412   3.568   2.913   8.095  0.2931  0.0568  0.1445
   11SAPS  H20S 1413   3.752   2.893   8.093  0.6359 -3.2974 -0.8860
   11SAPS  H20T 1414   3.644   2.791   7.989 -0.6577  0.1902  0.2272
   11SAPS   C33 1415   2.863   3.516   6.975 -0.1588  0.3138 -0.9561
   11SAPS   H3X 1416   2.924   3.423   6.963 -1.0177 -0.2982 -0.7087
   11SAPS   H3Y 1417   2.757   3.484   6.986  0.1607 -0.8989 -1.2022
   11SAPS   C34 1418   2.916   3.604   7.092  0.2304 -0.1358 -0.2897
   11SAPS   H4X 1419   2.865   3.702   7.091  1.0222  0.3658  1.9896
   11SAPS   H4Y 1420   3.022   3.629   7.067  0.4665  1.6856  2.1839
   11SAPS   C35 1421   2.913   3.529   7.232 -0.4850  0.0062 -0.1298
   11SAPS   H5X 1422   2.976   3.437   7.227  1.5624  1.3049  0.5292
   11SAPS   H5Y 1423   2.815   3.482   7.251  0.4078 -1.9651 -0.1710
   11SAPS   C36 1424   2.968   3.607   7.356 -0.0951  0.4401  0.2345
   11SAPS   H6X 1425   2.925   3.709   7.360  1.7097  1.2677 -0.3075
   11SAPS   H6Y 1426   3.076   3.628   7.341  0.2480 -0.2891  1.4939
   11SAPS   C37 1427   2.954   3.533   7.487 -0.2755 -0.7304  0.2382
   11SAPS   H7X 1428   3.014   3.439   7.484 -0.8110 -1.1847  2.2143
   11SAPS   H7Y 1429   2.851   3.508   7.518  0.3094 -2.2077  1.1047
   11SAPS   C38 1430   3.013   3.607   7.612  0.1834 -0.4911  0.1389
   11SAPS   H8X 1431   2.953   3.699   7.632  1.0222  0.1562 -0.2574
   11SAPS   H8Y 1432   3.119   3.633   7.588 -0.0797  1.3482  0.7896
   11SAPS   C39 1433   3.002   3.524   7.745 -0.2375  0.2828 -0.3188
   11SAPS   H9X 1434   2.925   3.443   7.741  1.9976 -2.0990  1.4513
   11SAPS   H9Y 1435   2.976   3.598   7.823  1.8188  1.4955 -0.7128
   11SAPS  C310 1436   3.126   3.436   7.781 -0.6201 -0.1502  0.0361
   11SAPS  H10X 1437   3.215   3.501   7.791  0.4179 -1.4030 -0.7428
   11SAPS  H10Y 1438   3.132   3.369   7.693  0.0461 -1.0116  0.7154
   11SAPS  C311 1439   3.104   3.348   7.908 -0.3831 -0.0601 -0.3527
   11SAPS  H11X 1440   3.201   3.295   7.921 -1.4744 -1.7540  1.3242
   11SAPS  H11Y 1441   3.020   3.283   7.877 -1.3447  1.1031 -0.2773
   11SAPS  C312 1442   3.064   3.423   8.037 -0.1880  0.7918  1.0793
   11SAPS  H12X 1443   2.962   3.468   8.037 -0.8037 -0.5756  0.8765
   11SAPS  H12Y 1444   3.134   3.509   8.045 -0.4048  1.2530 -1.1525
   11SAPS  C313 1445   3.079   3.320   8.153  0.5744 -0.2850  0.7214
   11SAPS  H13X 1446   3.178   3.272   8.169  0.7563  0.3656  1.6913
   11SAPS  H13Y 1447   3.015   3.235   8.120  0.5750  0.8628 -2.5170
   11SAPS  C314 1448   3.035   3.376   8.285  0.2052  0.0086 -0.5968
   11SAPS  H14X 1449   3.065   3.300   8.360  1.9606  1.2254 -0.0135
   11SAPS  H14Y 1450   2.926   3.389   8.271  0.0261 -0.2746  0.3988
   11SAPS  C315 1451   3.085   3.512   8.328 -0.1667 -0.0548 -0.0902
   11SAPS  H15X 1452   3.052   3.593   8.260  1.9650  1.9742  1.1383
   11SAPS  H15Y 1453   3.195   3.502   8.319 -0.2121 -0.1565 -0.5482
   11SAPS  C316 1454   3.053   3.555   8.469 -0.3019 -0.0922  0.4654
   11SAPS  H16X 1455   3.068   3.465   8.532  2.0869 -0.6257 -0.7391
   11SAPS  H16Y 1456   2.947   3.585   8.478  0.5887  2.9482  2.0319
   11SAPS  C317 1457   3.145   3.660   8.525 -0.1653 -0.8410 -1.5126
   11SAPS  H17X 1458   3.127   3.754   8.467 -1.3363  0.1823  0.3988
   11SAPS  H17Y 1459   3.249   3.627   8.509 -0.7974 -2.0151 -3.6242
   11SAPS  C318 1460   3.136   3.708   8.672  0.0748  0.1224  0.2812
   11SAPS  H18X 1461   3.238   3.746   8.698 -0.2637  1.5599 -0.3987
   11SAPS  H18Y 1462   3.114   3.621   8.736 -4.0458  1.1372  0.4753
   11SAPS  H18Z 1463   3.068   3.793   8.693 -0.9334 -0.8588  1.0834
   12SAPS     N 1464   3.533   2.474   6.229 -0.0865  0.0492  0.2700
   12SAPS   HN1 1465   3.434   2.446   6.215 -0.4429  0.4819  1.6765
   12SAPS   HN2 1466   3.602   2.421   6.172  0.9766  0.1843  1.3866
   12SAPS   HN3 1467   3.559   2.459   6.329 -0.0070  0.3132  0.2921
   12SAPS   C12 1468   3.553   2.616   6.196 -0.1073  0.2337 -0.2462
   12SAPS  H12A 1469   3.553   2.631   6.089  0.0003  3.2591  0.0893
   12SAPS   C13 1470   3.447   2.710   6.263  0.7597  0.3438  0.0799
   12SAPS  O13A 1471   3.347   2.669   6.332  0.3314 -0.4723  0.5422
   12SAPS  O13B 1472   3.451   2.835   6.236  0.0939  0.3279  0.1300
   12SAPS   C11 1473   3.689   2.656   6.258  0.0903 -0.5893  0.2649
   12SAPS  H11A 1474   3.688   2.632   6.367  1.0966  0.1675  0.4561
   12SAPS  H11B 1475   3.698   2.766   6.249 -2.5414 -0.2807  0.5528
   12SAPS     P 1476   3.916   2.653   6.120 -0.0064  0.0143 -0.2807
   12SAPS   O13 1477   4.026   2.558   6.098 -0.2972  0.1228  0.6324
   12SAPS   O14 1478   3.860   2.720   6.004  0.2763 -0.6562 -0.7044
   12SAPS   O12 1479   3.796   2.588   6.202 -0.2048  0.3349  0.2620
   12SAPS   O11 1480   3.966   2.774   6.211 -0.1578  0.3525  0.0286
   12SAPS    C1 1481   4.020   2.738   6.340 -0.3325 -0.1888  0.2559
   12SAPS    HA 1482   3.967   2.655   6.392  0.3340 -1.2478 -0.6907
   12SAPS    HB 1483   4.126   2.707   6.324 -0.7657 -1.3630 -0.4781
   12SAPS    C2 1484   4.032   2.866   6.428  0.5134  0.0715  0.3572
   12SAPS    HS 1485   4.104   2.934   6.378  1.3549  1.1751  2.9058
   12SAPS   O21 1486   4.085   2.808   6.548  0.0007  0.6209 -0.0236
   12SAPS   C21 1487   4.156   2.898   6.622 -0.0365 -0.4334  0.1586
   12SAPS   O22 1488   4.179   3.017   6.599  0.2504 -0.1396  0.6927
   12SAPS   C22 1489   4.216   2.820   6.741 -0.2382 -0.0740  0.6578
   12SAPS   H2R 1490   4.157   2.727   6.758  1.8498 -1.4789  0.6097
   12SAPS   H2S 1491   4.307   2.774   6.697 -1.5124 -0.8633 -1.2658
   12SAPS    C3 1492   3.897   2.935   6.446  0.4117 -0.5078 -0.8179
   12SAPS    HX 1493   3.860   2.964   6.345  1.3496 -0.4310 -1.1438
   12SAPS    HY 1494   3.906   3.030   6.504  0.8711 -1.5935  0.9878
   12SAPS   O31 1495   3.801   2.846   6.506  0.1473 -0.3174 -0.2042
   12SAPS   C31 1496   3.692   2.916   6.551  0.0073  0.1663 -0.1531
   12SAPS   O32 1497   3.664   3.033   6.526  0.0032 -0.4099 -0.2836
   12SAPS   C32 1498   3.602   2.827   6.639  0.3076  0.4833  0.0637
   12SAPS   H2X 1499   3.671   2.762   6.697  1.4567  3.2993  2.0998
   12SAPS   H2Y 1500   3.535   2.765   6.576 -0.4640 -0.3453  1.6361
   12SAPS   C23 1501   4.242   2.900   6.869 -0.6362 -0.0698 -0.2164
   12SAPS   H3R 1502   4.249   3.009   6.852 -0.2474  0.1123  1.0476
   12SAPS   H3S 1503   4.342   2.864   6.900 -0.5748  0.6560  0.4443
   12SAPS   C24 1504   4.137   2.887   6.983 -0.1613 -0.0154  0.3115
   12SAPS   H4R 1505   4.154   2.945   7.077 -4.8076  2.9058 -0.3301
   12SAPS   H4S 1506   4.153   2.784   7.020 -0.7621  0.2520  1.3700
   12SAPS   C25 1507   3.995   2.908   6.931 -0.1141  0.2988  0.4134
   12SAPS   H5R 1508   3.933   2.819   6.949 -1.0735  0.0375 -3.4220
   12SAPS   C26 1509   3.934   3.011   6.874 -0.2533  0.4405 -0.1865
   12SAPS   H6R 1510   3.834   2.992   6.833 -1.1420  2.0526  1.1062
   12SAPS   C27 1511   3.988   3.152   6.853  0.2269  0.1952 -0.4541
   12SAPS   H7R 1512   4.030   3.146   6.751 -3.1766 -1.3211 -1.8955
   12SAPS   H7S 1513   4.064   3.189   6.925 -0.9026  3.4853 -0.7990
   12SAPS   C28 1514   3.873   3.250   6.837  0.1355 -0.1280  0.0892
   12SAPS   H8R 1515   3.821   3.246   6.740 -1.1089 -0.3273  0.7530
   12SAPS   C29 1516   3.831   3.343   6.920  0.2565 -1.0418 -0.2060
   12SAPS   H9R 1517   3.746   3.405   6.888  0.3054 -0.1045  1.3773
   12SAPS  C210 1518   3.882   3.379   7.059  0.1089 -0.4659  0.8582
   12SAPS  H10R 1519   3.942   3.292   7.094 -0.5490 -1.1581  0.2950
   12SAPS  H10S 1520   3.788   3.383   7.118 -0.3169  0.7729  0.1338
   12SAPS  C211 1521   3.966   3.506   7.077 -0.7789  0.6678 -0.3203
   12SAPS  H11R 1522   4.002   3.538   6.978  0.7947 -1.2811 -0.4467
   12SAPS  C212 1523   3.992   3.572   7.190  0.5147 -0.7050  0.1456
   12SAPS  H12R 1524   4.061   3.658   7.183 -0.1486 -0.1373  0.4260
   12SAPS  C213 1525   3.948   3.537   7.325 -0.6574  0.5914 -0.4711
   12SAPS  H13R 1526   3.947   3.426   7.321 -0.1938  0.6046 -1.0368
   12SAPS  H13S 1527   3.847   3.583   7.334 -2.5877 -2.7812 -2.5873
   12SAPS  C214 1528   4.027   3.589   7.436 -0.1907 -1.0582  0.8441
   12SAPS  H14R 1529   4.083   3.680   7.408 -2.4072  0.4471  1.0295
   12SAPS  C215 1530   4.034   3.545   7.564  0.3596 -0.3910  0.3246
   12SAPS  H15R 1531   4.104   3.606   7.623  0.1485 -0.6842  0.8843
   12SAPS  C216 1532   3.965   3.431   7.640 -0.6347 -0.1363  0.3081
   12SAPS  H16R 1533   3.924   3.364   7.562 -1.1534  1.3922 -0.7909
   12SAPS  H16S 1534   3.886   3.473   7.706 -1.1812  1.2618 -1.1611
   12SAPS  C217 1535   4.066   3.357   7.729  0.4632 -0.7506  0.6627
   12SAPS  H17R 1536   4.104   3.417   7.813  0.9446  0.9248 -0.6957
   12SAPS  H17S 1537   4.147   3.313   7.666 -0.0221 -2.2992  1.0702
   12SAPS  C218 1538   4.001   3.242   7.803  0.0407  0.2721 -0.4371
   12SAPS  H18R 1539   3.940   3.185   7.730  1.8603  1.8893 -3.4212
   12SAPS  H18S 1540   3.931   3.281   7.880 -1.3740  0.8068 -1.9476
   12SAPS  C219 1541   4.106   3.149   7.870  0.1183 -0.6418  0.4327
   12SAPS  H19R 1542   4.181   3.219   7.912 -0.4089 -0.1266  0.5377
   12SAPS  H19S 1543   4.159   3.085   7.796  1.4187  0.4118  0.4113
   12SAPS  C220 1544   4.050   3.055   7.981 -0.2088 -0.9082  0.4930
   12SAPS  H20R 1545   4.133   3.005   8.035  0.8485  0.5170  0.2676
   12SAPS  H20S 1546   3.988   2.981   7.928  0.1252 -1.8098  1.3343
   12SAPS  H20T 1547   3.976   3.112   8.041 -1.6954 -0.7818 -1.3600
   12SAPS   C33 1548   3.509   2.901   6.728 -0.0070 -1.0646  0.0135
   12SAPS   H3X 1549   3.419   2.837   6.741 -0.4165 -0.3459  0.8979
   12SAPS   H3Y 1550   3.469   2.990   6.675 -0.3476 -1.6956 -0.8068
   12SAPS   C34 1551   3.546   2.945   6.870 -0.3277  0.8755 -0.2616
   12SAPS   H4X 1552   3.448   2.982   6.909 -0.9412 -1.4037  0.4855
   12SAPS   H4Y 1553   3.608   3.038   6.863  0.1695  0.5128 -0.7420
   12SAPS   C35 1554   3.614   2.827   6.953 -0.4667  0.1251  0.1962
   12SAPS   H5X 1555   3.712   2.810   6.904 -0.0199  1.2370  0.6729
   12SAPS   H5Y 1556   3.550   2.737   6.945 -0.5278  0.1779  0.0940
   12SAPS   C36 1557   3.626   2.844   7.106 -0.3231  0.2166 -0.5177
   12SAPS   H6X 1558   3.668   2.753   7.153 -1.3073  0.0683  0.1197
   12SAPS   H6Y 1559   3.523   2.835   7.148  0.1826 -1.2802  0.4612
   12SAPS   C37 1560   3.713   2.955   7.159  0.7837 -0.5250 -0.0316
   12SAPS   H7X 1561   3.698   3.052   7.108  2.0794  0.2248  0.9558
   12SAPS   H7Y 1562   3.814   2.930   7.120  0.6376  2.0303 -2.3753
   12SAPS   C38 1563   3.702   2.980   7.308 -0.4083  0.5353  0.1091
   12SAPS   H8X 1564   3.683   2.884   7.360 -4.4519  0.5215 -1.0768
   12SAPS   H8Y 1565   3.608   3.038   7.312 -0.0370  1.2369 -0.8264
   12SAPS   C39 1566   3.811   3.069   7.360  0.9319  0.3080 -0.0430
   12SAPS   H9X 1567   3.791   3.087   7.468 -0.3273  1.2160 -0.4095
   12SAPS   H9Y 1568   3.812   3.170   7.315  1.4091  0.5009  0.3798
   12SAPS  C310 1569   3.951   3.012   7.336  0.0621  0.4478 -0.1395
   12SAPS  H10X 1570   3.987   3.019   7.231  2.9431  1.5411  0.8021
   12SAPS  H10Y 1571   3.939   2.906   7.365  0.2023  0.2569 -0.7545
   12SAPS  C311 1572   4.056   3.076   7.428 -0.4752 -0.6386  0.6482
   12SAPS  H11X 1573   4.136   3.003   7.449  0.1786 -0.0074  0.4111
   12SAPS  H11Y 1574   4.015   3.109   7.525 -3.8523  1.3523 -1.2407
   12SAPS  C312 1575   4.137   3.203   7.375  0.0801  0.3210  0.2514
   12SAPS  H12X 1576   4.220   3.218   7.448  1.0749  0.4761 -0.8751
   12SAPS  H12Y 1577   4.064   3.285   7.358 -0.9663 -0.4261  1.0865
   12SAPS  C313 1578   4.201   3.182   7.239 -0.0065 -0.2617  1.0225
   12SAPS  H13X 1579   4.128   3.167   7.157 -2.7430  0.3380  3.1739
   12SAPS  H13Y 1580   4.256   3.086   7.251 -0.4048 -0.4958  1.0030
   12SAPS  C314 1581   4.298   3.297   7.207  0.9895 -0.7672  0.7606
   12SAPS  H14X 1582   4.385   3.302   7.276  1.0287  3.0273  0.6930
   12SAPS  H14Y 1583   4.249   3.397   7.209  0.0857 -1.1353 -0.8604
   12SAPS  C315 1584   4.361   3.285   7.067  0.0270 -0.0531  0.3485
   12SAPS  H15X 1585   4.281   3.269   6.992 -1.4731 -0.4823  1.9706
   12SAPS  H15Y 1586   4.425   3.194   7.067  0.2165  0.0407  2.4152
   12SAPS  C316 1587   4.454   3.408   7.021  0.3243 -0.1529 -0.4716
   12SAPS  H16X 1588   4.388   3.497   7.015  0.2006 -0.2377 -0.3648
   12SAPS  H16Y 1589   4.492   3.406   6.917 -1.2122  0.9431 -1.0893
   12SAPS  C317 1590   4.564   3.464   7.115  0.1738  0.2103  0.8597
   12SAPS  H17X 1591   4.513   3.497   7.208  0.0155  0.8918  0.5388
   12SAPS  H17Y 1592   4.606   3.554   7.066 -1.6690  0.8739  0.4104
   12SAPS  C318 1593   4.665   3.355   7.159 -0.0360 -0.0419 -0.5561
   12SAPS  H18X 1594   4.695   3.382   7.263 -1.1157  0.0753 -0.2652
   12SAPS  H18Y 1595   4.751   3.346   7.089  0.4341 -1.0205  0.1275
   12SAPS  H18Z 1596   4.609   3.260   7.172 -0.7967  0.2893 -1.3284
   13SAPS     N 1597   3.386   1.911   6.091  0.1721  0.4584  0.4904
   13SAPS   HN1 1598   3.477   1.896   6.140 -0.3453 -2.2466  0.8047
   13SAPS   HN2 1599   3.381   1.888   5.990 -0.5293  1.6197  0.2496
   13SAPS   HN3 1600   3.364   2.012   6.092  1.9804  0.9207 -0.9223
   13SAPS   C12 1601   3.283   1.834   6.165  0.2557 -0.0460  1.2937
   13SAPS  H12A 1602   3.255   1.888   6.254  1.4127  0.0814  1.5958
   13SAPS   C13 1603   3.155   1.810   6.067 -0.0249 -0.0430 -0.6746
   13SAPS  O13A 1604   3.169   1.806   5.941 -0.1824 -0.5628  0.0748
   13SAPS  O13B 1605   3.063   1.750   6.132  0.0802  0.3861  0.0245
   13SAPS   C11 1606   3.342   1.692   6.204  0.2367 -1.0253  0.9692
   13SAPS  H11A 1607   3.356   1.626   6.116 -2.5829 -3.2074  2.0269
   13SAPS  H11B 1608   3.261   1.648   6.266 -2.2684 -1.1681 -2.1412
   13SAPS     P 1609   3.562   1.592   6.309  0.3199  0.0642  0.0586
   13SAPS   O13 1610   3.517   1.468   6.240  0.1346  0.3350  0.6640
   13SAPS   O14 1611   3.700   1.642   6.271  0.5546 -0.2879  0.4913
   13SAPS   O12 1612   3.454   1.710   6.282 -0.7453 -0.8482  0.4223
   13SAPS   O11 1613   3.549   1.559   6.466 -0.2536 -0.2222 -0.4025
   13SAPS    C1 1614   3.499   1.665   6.544 -0.4504  0.9419 -0.4081
   13SAPS    HA 1615   3.556   1.759   6.527 -0.5964  0.9550 -0.8300
   13SAPS    HB 1616   3.392   1.686   6.522 -0.4147  1.3811 -0.1912
   13SAPS    C2 1617   3.506   1.603   6.692  0.4762 -0.0569 -0.3034
   13SAPS    HS 1618   3.460   1.671   6.767 -0.0852 -3.1187  2.3591
   13SAPS   O21 1619   3.637   1.572   6.741  0.5285 -0.1330 -0.1853
   13SAPS   C21 1620   3.726   1.671   6.750 -0.1067  0.0541  0.7273
   13SAPS   O22 1621   3.707   1.787   6.739  0.4080 -0.5849 -0.4655
   13SAPS   C22 1622   3.855   1.599   6.776 -0.1657 -0.3361  0.2860
   13SAPS   H2R 1623   3.878   1.544   6.682 -0.3454 -0.1414  0.1286
   13SAPS   H2S 1624   3.925   1.680   6.805 -0.8563  0.1141  0.7326
   13SAPS    C3 1625   3.420   1.473   6.698 -0.0799 -0.1501  0.2412
   13SAPS    HX 1626   3.454   1.401   6.621 -0.3200 -0.9778  0.8923
   13SAPS    HY 1627   3.320   1.504   6.661  1.2020  0.8287 -2.6874
   13SAPS   O31 1628   3.409   1.420   6.828 -0.2978  0.4331  0.3132
   13SAPS   C31 1629   3.490   1.315   6.850  0.2811 -0.1347 -0.9815
   13SAPS   O32 1630   3.575   1.267   6.777  0.1857 -0.5376 -0.0749
   13SAPS   C32 1631   3.463   1.269   6.996  0.5825 -0.0603  0.1326
   13SAPS   H2X 1632   3.369   1.209   6.994  1.4512 -1.5690  1.6524
   13SAPS   H2Y 1633   3.447   1.364   7.051 -2.4723  0.1296 -0.8629
   13SAPS   C23 1634   3.850   1.507   6.896  0.5661 -0.0615 -0.2385
   13SAPS   H3R 1635   3.811   1.409   6.864 -0.8684  0.5180 -0.3481
   13SAPS   H3S 1636   3.782   1.548   6.974 -0.5435 -1.5586 -0.3813
   13SAPS   C24 1637   3.985   1.486   6.964  0.0218 -0.2762 -0.7180
   13SAPS   H4R 1638   4.016   1.580   7.014 -0.4489 -0.3747 -0.2302
   13SAPS   H4S 1639   4.062   1.478   6.884 -1.9412 -0.4593 -2.7024
   13SAPS   C25 1640   3.989   1.374   7.071  0.3495  0.5523  1.2363
   13SAPS   H5R 1641   3.996   1.273   7.028  1.4905  1.3629 -0.6617
   13SAPS   C26 1642   3.995   1.387   7.198 -0.5413  0.2370  0.4782
   13SAPS   H6R 1643   4.012   1.296   7.259  1.4690 -0.7420 -1.3983
   13SAPS   C27 1644   4.003   1.509   7.281  0.4570 -0.2162  0.0398
   13SAPS   H7R 1645   3.976   1.594   7.215 -3.4907 -0.1688  1.4764
   13SAPS   H7S 1646   4.106   1.518   7.323  1.9314 -2.8107 -2.5961
   13SAPS   C28 1647   3.906   1.525   7.394  0.5402  0.3379  0.7393
   13SAPS   H8R 1648   3.816   1.585   7.372  0.9069  1.6172  2.4667
   13SAPS   C29 1649   3.926   1.480   7.521  0.2051 -0.9046  0.5374
   13SAPS   H9R 1650   3.837   1.494   7.584 -0.1056 -0.6147  0.0396
   13SAPS  C210 1651   4.044   1.404   7.579  0.4035  0.0198 -0.3426
   13SAPS  H10R 1652   4.102   1.340   7.509  0.6083 -0.1103 -0.0577
   13SAPS  H10S 1653   4.019   1.325   7.653  1.1568 -0.4963 -0.6188
   13SAPS  C211 1654   4.130   1.508   7.644 -0.4006  0.3280 -0.2343
   13SAPS  H11R 1655   4.165   1.586   7.575  3.3105 -1.8224 -1.0614
   13SAPS  C212 1656   4.166   1.528   7.773  0.6149  0.8686  0.0685
   13SAPS  H12R 1657   4.222   1.621   7.793  0.2736  1.3145 -0.9542
   13SAPS  C213 1658   4.128   1.449   7.899  0.1741  0.3277 -0.0422
   13SAPS  H13R 1659   4.062   1.366   7.868 -0.6490  1.2968 -0.9835
   13SAPS  H13S 1660   4.057   1.517   7.950 -0.6277  1.1804 -2.1783
   13SAPS  C214 1661   4.249   1.422   7.982  0.3180  0.2592  1.1918
   13SAPS  H14R 1662   4.309   1.331   7.970 -0.9357 -0.3329 -1.2525
   13SAPS  C215 1663   4.278   1.498   8.083 -1.0477  0.1817 -0.3322
   13SAPS  H15R 1664   4.367   1.474   8.144 -1.0220  2.1270  0.4745
   13SAPS  C216 1665   4.200   1.611   8.149 -0.0773 -0.1812  0.6257
   13SAPS  H16R 1666   4.129   1.564   8.221  0.2115 -3.0479 -0.8349
   13SAPS  H16S 1667   4.134   1.661   8.075 -1.3487 -1.9593  0.4737
   13SAPS  C217 1668   4.292   1.724   8.208  0.3001  0.2167 -0.4264
   13SAPS  H17R 1669   4.358   1.761   8.127 -0.9673  0.6968 -1.2702
   13SAPS  H17S 1670   4.366   1.683   8.280 -1.1082  1.3731  1.7572
   13SAPS  C218 1671   4.224   1.836   8.280  0.1930 -0.1911  0.1396
   13SAPS  H18R 1672   4.150   1.793   8.351 -1.2681 -2.8102 -2.7553
   13SAPS  H18S 1673   4.170   1.895   8.203 -0.8085 -0.0013  0.9639
   13SAPS  C219 1674   4.327   1.940   8.345 -0.2713 -0.4144  0.2992
   13SAPS  H19R 1675   4.264   2.012   8.401 -1.2606  0.0849 -1.3748
   13SAPS  H19S 1676   4.382   1.994   8.265 -0.8858 -1.9995 -1.2711
   13SAPS  C220 1677   4.432   1.875   8.438 -0.2374 -0.8731  0.0924
   13SAPS  H20R 1678   4.518   1.844   8.375 -1.6268  0.0840 -2.4473
   13SAPS  H20S 1679   4.382   1.793   8.493  0.2445 -0.1671  1.6359
   13SAPS  H20T 1680   4.469   1.953   8.509 -0.7649 -1.2893  0.8305
   13SAPS   C33 1681   3.586   1.194   7.047  0.0971 -0.0406  0.1392
   13SAPS   H3X 1682   3.679   1.249   7.020 -0.8085  0.6522 -1.7053
   13SAPS   H3Y 1683   3.591   1.097   6.993 -2.3877  0.1818 -0.6152
   13SAPS   C34 1684   3.580   1.176   7.198  0.8407 -0.5773 -0.7924
   13SAPS   H4X 1685   3.483   1.131   7.230  1.1279 -1.3488 -0.9811
   13SAPS   H4Y 1686   3.573   1.281   7.234 -2.0100 -1.2487  0.8934
   13SAPS   C35 1687   3.707   1.109   7.262  0.4914  0.6469 -0.5921
   13SAPS   H5X 1688   3.783   1.128   7.184  2.0994  3.2805  1.4407
   13SAPS   H5Y 1689   3.695   0.999   7.273 -1.3616  0.8782  0.0433
   13SAPS   C36 1690   3.751   1.176   7.398  0.6540  0.7441 -0.7530
   13SAPS   H6X 1691   3.751   1.285   7.378 -1.2153  0.8116 -0.5146
   13SAPS   H6Y 1692   3.856   1.150   7.424  0.0554 -0.3920  0.6853
   13SAPS   C37 1693   3.665   1.139   7.516 -0.3792  0.1299  0.4120
   13SAPS   H7X 1694   3.560   1.140   7.480 -1.5565  0.1878  3.5065
   13SAPS   H7Y 1695   3.676   1.215   7.596 -0.4988  1.5092 -0.8575
   13SAPS   C38 1696   3.701   0.998   7.575  0.5542  0.3410 -0.1662
   13SAPS   H8X 1697   3.810   0.986   7.591  0.4729 -1.4777 -0.7382
   13SAPS   H8Y 1698   3.659   0.930   7.498  0.5755  0.5886 -0.3980
   13SAPS   C39 1699   3.634   0.973   7.710  0.5866 -0.3012  0.4550
   13SAPS   H9X 1700   3.623   0.867   7.743 -1.9514 -0.0533  0.6046
   13SAPS   H9Y 1701   3.528   1.002   7.692  0.2774 -1.9491 -0.6566
   13SAPS  C310 1702   3.698   1.049   7.827 -0.2409  0.0891 -0.2814
   13SAPS  H10X 1703   3.701   1.159   7.813 -0.0987  0.1189 -0.0308
   13SAPS  H10Y 1704   3.805   1.020   7.821 -0.3878 -0.1994 -1.8723
   13SAPS  C311 1705   3.627   1.028   7.961  0.2918  0.2113 -0.3982
   13SAPS  H11X 1706   3.607   0.919   7.971 -2.6354  0.6715 -0.2182
   13SAPS  H11Y 1707   3.527   1.074   7.945  0.4611 -0.2174 -3.1494
   13SAPS  C312 1708   3.696   1.078   8.084 -0.4215  0.0529 -0.4326
   13SAPS  H12X 1709   3.762   0.992   8.107 -0.4332 -0.0971 -0.9373
   13SAPS  H12Y 1710   3.626   1.092   8.169 -1.0839 -4.0401 -0.1119
   13SAPS  C313 1711   3.770   1.208   8.068  0.3704 -0.1250 -0.3816
   13SAPS  H13X 1712   3.694   1.283   8.038  1.1335  0.6807 -0.3162
   13SAPS  H13Y 1713   3.847   1.221   7.990  0.3020  0.4641 -0.3533
   13SAPS  C314 1714   3.813   1.264   8.205 -0.0652  0.5760  0.1380
   13SAPS  H14X 1715   3.740   1.271   8.289  1.4383  0.7326  1.4842
   13SAPS  H14Y 1716   3.831   1.371   8.181  2.7635 -0.1604 -1.5563
   13SAPS  C315 1717   3.956   1.220   8.247  0.9763 -0.2318 -0.2724
   13SAPS  H15X 1718   4.031   1.249   8.170  2.7587 -0.1493  1.4306
   13SAPS  H15Y 1719   3.952   1.109   8.250 -1.0273 -0.1702  1.8164
   13SAPS  C316 1720   3.999   1.284   8.378  0.1466 -0.2745 -0.1624
   13SAPS  H16X 1721   3.933   1.253   8.463  1.3992  1.9368  1.7414
   13SAPS  H16Y 1722   4.001   1.395   8.383 -0.0817 -0.2321 -0.9807
   13SAPS  C317 1723   4.136   1.229   8.425  0.2485  0.2186  0.7977
   13SAPS  H17X 1724   4.207   1.259   8.345 -0.2198  0.3783  0.4339
   13SAPS  H17Y 1725   4.149   1.119   8.429  1.3011  0.2964 -0.0675
   13SAPS  C318 1726   4.191   1.294   8.551 -0.2899 -0.0152 -0.1733
   13SAPS  H18X 1727   4.300   1.279   8.533  0.2031  3.9561 -1.7760
   13SAPS  H18Y 1728   4.142   1.247   8.638  0.7688 -2.5790 -0.8863
   13SAPS  H18Z 1729   4.183   1.405   8.546 -1.5816 -0.0301  1.0737
   14SAPS     N 1730   4.226   2.437   5.667  0.2348  0.1617 -0.5696
   14SAPS   HN1 1731   4.170   2.430   5.754 -0.8428  1.6274 -1.1121
   14SAPS   HN2 1732   4.293   2.515   5.684 -2.2844  2.4383 -0.3972
   14SAPS   HN3 1733   4.162   2.470   5.591 -0.4562 -1.4591 -0.7390
   14SAPS   C12 1734   4.296   2.314   5.629 -0.1126  0.1507 -0.1879
   14SAPS  H12A 1735   4.226   2.236   5.601  0.6587 -0.5170 -0.2853
   14SAPS   C13 1736   4.392   2.326   5.512  0.0802  0.4171 -0.2325
   14SAPS  O13A 1737   4.399   2.431   5.447 -0.5645  0.2343 -0.0517
   14SAPS  O13B 1738   4.449   2.219   5.466 -0.0101 -0.2774 -0.2626
   14SAPS   C11 1739   4.370   2.262   5.760  0.4865  0.8294 -0.2148
   14SAPS  H11A 1740   4.444   2.188   5.723 -0.4342  0.1504 -0.7635
   14SAPS  H11B 1741   4.308   2.216   5.840  2.2142 -0.2291  0.5677
   14SAPS     P 1742   4.556   2.355   5.915 -0.1420 -0.4826  0.3402
   14SAPS   O13 1743   4.662   2.284   5.833 -0.3248 -0.8687 -0.9346
   14SAPS   O14 1744   4.596   2.486   5.973 -0.1443 -0.1348 -0.1153
   14SAPS   O12 1745   4.436   2.376   5.822 -0.2482  0.0503  0.1122
   14SAPS   O11 1746   4.504   2.265   6.036 -0.1754 -0.5085  0.0123
   14SAPS    C1 1747   4.604   2.242   6.134  0.6200 -0.4225 -0.6165
   14SAPS    HA 1748   4.673   2.166   6.090  0.3309 -0.2200 -1.4403
   14SAPS    HB 1749   4.649   2.339   6.164 -2.0259  1.4928 -2.3898
   14SAPS    C2 1750   4.551   2.177   6.268  0.5331  1.1281 -0.1782
   14SAPS    HS 1751   4.489   2.092   6.234  2.3892 -0.3560 -0.0082
   14SAPS   O21 1752   4.479   2.280   6.345 -0.0661 -0.1522 -0.0145
   14SAPS   C21 1753   4.374   2.231   6.425  0.7670 -0.1410  0.1849
   14SAPS   O22 1754   4.334   2.118   6.424  0.2403  0.0742 -0.7508
   14SAPS   C22 1755   4.314   2.345   6.508  0.2907  0.9688  0.1366
   14SAPS   H2R 1756   4.253   2.402   6.435 -0.2471 -0.3965 -0.5160
   14SAPS   H2S 1757   4.262   2.301   6.596  1.4400 -0.4843  0.1247
   14SAPS    C3 1758   4.666   2.107   6.352 -0.0247 -0.1627 -0.9446
   14SAPS    HX 1759   4.741   2.188   6.369  1.4659 -1.7132  0.1213
   14SAPS    HY 1760   4.716   2.033   6.286  0.7470 -0.1968 -0.3419
   14SAPS   O31 1761   4.620   2.034   6.478  0.1885  0.2847 -0.1968
   14SAPS   C31 1762   4.710   2.038   6.573  0.0281 -0.3230 -0.1025
   14SAPS   O32 1763   4.813   2.109   6.561  0.3692 -1.0109 -0.0877
   14SAPS   C32 1764   4.659   1.943   6.690 -0.3891  0.1922 -0.0072
   14SAPS   H2X 1765   4.659   1.840   6.649 -1.8801  0.2375 -0.1557
   14SAPS   H2Y 1766   4.549   1.957   6.692 -0.4177  0.6016 -2.3428
   14SAPS   C23 1767   4.407   2.443   6.579 -0.1272  0.0049  0.1244
   14SAPS   H3R 1768   4.352   2.508   6.650 -1.5301 -0.2826 -0.6620
   14SAPS   H3S 1769   4.448   2.504   6.496  0.2743 -0.5647 -0.1077
   14SAPS   C24 1770   4.511   2.364   6.667 -0.0598  0.3359  0.4109
   14SAPS   H4R 1771   4.563   2.446   6.721 -0.7978  0.0716  1.5555
   14SAPS   H4S 1772   4.590   2.317   6.605  0.4143 -0.5208  1.6314
   14SAPS   C25 1773   4.444   2.281   6.774  0.8365 -0.7610  0.7119
   14SAPS   H5R 1774   4.395   2.191   6.734  1.4487 -0.1196 -1.5905
   14SAPS   C26 1775   4.426   2.304   6.903 -0.3543  0.4404  0.2379
   14SAPS   H6R 1776   4.372   2.229   6.962 -0.1987 -0.0697 -0.2555
   14SAPS   C27 1777   4.474   2.422   6.977 -0.2344  0.5823  0.0654
   14SAPS   H7R 1778   4.550   2.470   6.912  1.6239  1.1952  2.5396
   14SAPS   H7S 1779   4.547   2.390   7.055  0.4783 -0.4349 -0.9839
   14SAPS   C28 1780   4.374   2.521   7.034 -0.2963  0.3656  0.1040
   14SAPS   H8R 1781   4.321   2.580   6.958  1.8214  1.2885 -0.7357
   14SAPS   C29 1782   4.353   2.553   7.164  0.1331  1.0670  0.9817
   14SAPS   H9R 1783   4.271   2.624   7.178 -1.4093  0.2645 -2.7313
   14SAPS  C210 1784   4.424   2.507   7.286 -0.3414 -0.1633  0.1074
   14SAPS  H10R 1785   4.460   2.601   7.334  1.7037 -0.3613 -0.9347
   14SAPS  H10S 1786   4.519   2.457   7.259  1.3658  1.5107  2.5778
   14SAPS  C211 1787   4.339   2.433   7.391 -0.1476 -0.5311  1.1132
   14SAPS  H11R 1788   4.294   2.342   7.349 -0.3856  1.3636 -3.1930
   14SAPS  C212 1789   4.318   2.467   7.517 -0.4367  0.0187 -0.4951
   14SAPS  H12R 1790   4.269   2.388   7.576  0.2094  1.0930  1.5921
   14SAPS  C213 1791   4.358   2.584   7.602 -0.5354  0.5325  0.4741
   14SAPS  H13R 1792   4.469   2.582   7.611 -0.2852 -2.0164 -1.9727
   14SAPS  H13S 1793   4.316   2.570   7.704 -1.9594  1.2198  0.0071
   14SAPS  C214 1794   4.320   2.723   7.553  0.1673 -0.9446 -0.0434
   14SAPS  H14R 1795   4.299   2.744   7.447  0.2000 -0.8215 -0.0256
   14SAPS  C215 1796   4.305   2.826   7.645  0.3083 -0.0732  0.3314
   14SAPS  H15R 1797   4.278   2.922   7.599 -1.4306 -1.1165 -0.9282
   14SAPS  C216 1798   4.332   2.826   7.794  0.0678 -0.4814  0.4643
   14SAPS  H16R 1799   4.360   2.729   7.841  1.2077  0.9359  2.8717
   14SAPS  H16S 1800   4.248   2.862   7.858  0.9198 -1.2376  2.0749
   14SAPS  C217 1801   4.448   2.918   7.823 -0.8759 -0.6117 -1.1547
   14SAPS  H17R 1802   4.437   3.027   7.805  1.0465 -0.1750  0.0563
   14SAPS  H17S 1803   4.524   2.890   7.748 -0.3983  1.4735 -1.5112
   14SAPS  C218 1804   4.505   2.907   7.971 -0.3739  0.4464 -0.0242
   14SAPS  H18R 1805   4.531   2.801   7.988  0.5073  0.7204  0.3856
   14SAPS  H18S 1806   4.419   2.936   8.035  0.0782 -0.0024  0.7936
   14SAPS  C219 1807   4.632   2.989   7.998  0.1543  0.0385 -0.0108
   14SAPS  H19R 1808   4.605   3.096   7.987 -1.1852 -0.3364 -0.6336
   14SAPS  H19S 1809   4.705   2.965   7.918  0.9350 -0.7440  0.9156
   14SAPS  C220 1810   4.698   2.967   8.131 -0.4843  0.6654 -0.0816
   14SAPS  H20R 1811   4.788   3.030   8.143 -1.1385  1.4010  1.1590
   14SAPS  H20S 1812   4.729   2.863   8.155 -0.2028  0.6861 -0.3497
   14SAPS  H20T 1813   4.634   3.005   8.214  2.4328  1.5770  1.9044
   14SAPS   C33 1814   4.738   1.943   6.828  0.0843  0.1121  0.7616
   14SAPS   H3X 1815   4.837   1.989   6.809  0.7251 -0.9907  1.2939
   14SAPS   H3Y 1816   4.757   1.840   6.867 -0.6093  0.4553  2.0523
   14SAPS   C34 1817   4.675   2.028   6.935  0.2523  0.1580  0.5628
   14SAPS   H4X 1818   4.566   2.009   6.950  0.0193  0.0687 -1.1149
   14SAPS   H4Y 1819   4.702   2.134   6.913 -0.2431  0.2291  0.2926
   14SAPS   C35 1820   4.733   1.992   7.070 -0.3659  0.0873 -0.1679
   14SAPS   H5X 1821   4.840   2.021   7.059 -0.5882  0.1763 -2.6176
   14SAPS   H5Y 1822   4.723   1.884   7.094  0.4389 -0.2251 -1.1822
   14SAPS   C36 1823   4.681   2.069   7.188  0.6134 -0.6391  0.0349
   14SAPS   H6X 1824   4.574   2.041   7.198 -0.2202  1.9660 -0.7185
   14SAPS   H6Y 1825   4.692   2.177   7.164 -0.6435 -0.7985 -1.4533
   14SAPS   C37 1826   4.752   2.057   7.320 -0.2424  0.5360 -0.3682
   14SAPS   H7X 1827   4.713   2.134   7.390  1.5450  1.5852 -0.4561
   14SAPS   H7Y 1828   4.861   2.075   7.303 -0.6388  0.5182 -3.3674
   14SAPS   C38 1829   4.730   1.917   7.380  0.1288  0.1658  0.4409
   14SAPS   H8X 1830   4.772   1.851   7.301  0.2792  0.3830  0.3391
   14SAPS   H8Y 1831   4.622   1.893   7.388  0.2396 -0.4556  0.1668
   14SAPS   C39 1832   4.799   1.879   7.511 -0.1087  0.6908 -0.7014
   14SAPS   H9X 1833   4.909   1.895   7.516 -0.0314 -0.0725  0.6105
   14SAPS   H9Y 1834   4.777   1.770   7.524  1.1648  0.1178 -2.8053
   14SAPS  C310 1835   4.738   1.962   7.625  0.1765  0.1857  0.3404
   14SAPS  H10X 1836   4.631   1.935   7.630  0.1614  0.4912  3.8160
   14SAPS  H10Y 1837   4.755   2.072   7.621  0.9495  0.1685  2.0965
   14SAPS  C311 1838   4.803   1.926   7.759 -0.1405 -0.0209  0.0555
   14SAPS  H11X 1839   4.910   1.955   7.765 -0.0885 -0.0960 -0.4407
   14SAPS  H11Y 1840   4.800   1.816   7.775  2.4386  0.1116  2.1168
   14SAPS  C312 1841   4.725   2.009   7.865 -0.0903  0.3789 -0.3792
   14SAPS  H12X 1842   4.618   1.994   7.840 -0.3591  1.2313  0.1969
   14SAPS  H12Y 1843   4.745   2.118   7.858 -0.8309  0.6842  1.4455
   14SAPS  C313 1844   4.769   1.970   8.007  0.5746 -0.2413  0.0888
   14SAPS  H13X 1845   4.875   2.000   8.021  0.1005  1.8702 -0.5002
   14SAPS  H13Y 1846   4.754   1.862   8.028 -0.4408 -0.0692  0.3148
   14SAPS  C314 1847   4.689   2.041   8.120  0.5593  0.7553  0.3880
   14SAPS  H14X 1848   4.580   2.020   8.134  0.1865  1.7222 -0.8556
   14SAPS  H14Y 1849   4.692   2.147   8.087 -0.8122  0.6347 -0.2004
   14SAPS  C315 1850   4.763   2.043   8.254  0.0108 -0.2551 -0.2343
   14SAPS  H15X 1851   4.871   2.070   8.249 -0.1685  1.2099  2.1718
   14SAPS  H15Y 1852   4.788   1.940   8.285  2.0923  0.3290  0.1632
   14SAPS  C316 1853   4.692   2.117   8.369  0.1124 -0.3921 -0.6566
   14SAPS  H16X 1854   4.588   2.080   8.373  0.0752 -0.1794  0.5204
   14SAPS  H16Y 1855   4.695   2.227   8.353  2.5702 -0.5002 -1.4790
   14SAPS  C317 1856   4.768   2.089   8.513 -0.9928 -0.8420  0.6295
   14SAPS  H17X 1857   4.764   1.979   8.523 -1.9231 -1.0276 -1.2079
   14SAPS  H17Y 1858   4.710   2.138   8.594 -0.5117  1.0096 -0.0871
   14SAPS  C318 1859   4.922   2.134   8.517  0.2379  0.0973  0.6810
   14SAPS  H18X 1860   4.933   2.160   8.624  0.8921 -1.7464  1.1012
   14SAPS  H18Y 1861   4.942   2.221   8.452 -0.1904 -0.8894 -0.8151
   14SAPS  H18Z 1862   4.992   2.052   8.491  0.3485  0.1123  0.9299
   15SAPS     N 1863   3.187   3.675   5.757  0.4368 -0.0213  0.6727
   15SAPS   HN1 1864   3.158   3.577   5.773 -1.1800  0.3664  0.2475
   15SAPS   HN2 1865   3.207   3.716   5.851  1.0902 -0.6817  0.8345
   15SAPS   HN3 1866   3.110   3.724   5.707  0.9960 -1.6888 -2.0136
   15SAPS   C12 1867   3.299   3.688   5.666  0.1573 -0.8657 -0.5573
   15SAPS  H12A 1868   3.269   3.639   5.574  0.1339  2.4726 -2.4719
   15SAPS   C13 1869   3.354   3.829   5.626  0.2091  0.1101 -0.4567
   15SAPS  O13A 1870   3.318   3.935   5.689  0.2693 -0.5453 -0.1757
   15SAPS  O13B 1871   3.437   3.835   5.534  0.1244 -0.1948 -0.0216
   15SAPS   C11 1872   3.421   3.603   5.701  0.0106 -0.3131 -0.1542
   15SAPS  H11A 1873   3.503   3.619   5.628  2.1619 -2.5375  1.5885
   15SAPS  H11B 1874   3.393   3.495   5.693  0.1347 -0.5687  2.1573
   15SAPS     P 1875   3.602   3.565   5.897  0.4911  0.2165 -0.1912
   15SAPS   O13 1876   3.611   3.421   5.854 -0.0353 -0.4099 -0.5101
   15SAPS   O14 1877   3.727   3.654   5.894  0.2971  0.6834 -0.1267
   15SAPS   O12 1878   3.472   3.636   5.832  0.2259 -0.1728 -0.1585
   15SAPS   O11 1879   3.559   3.561   6.050 -0.1391  0.9869  0.3246
   15SAPS    C1 1880   3.501   3.669   6.128 -0.0187 -0.5177 -0.6135
   15SAPS    HA 1881   3.464   3.756   6.069  0.4488  0.4684  0.4953
   15SAPS    HB 1882   3.417   3.643   6.196  1.7481  1.5147  2.6004
   15SAPS    C2 1883   3.600   3.728   6.228 -0.2510 -0.5065  0.3353
   15SAPS    HS 1884   3.681   3.773   6.167 -0.8080 -1.3304 -1.0430
   15SAPS   O21 1885   3.662   3.636   6.320  0.2191  0.1477  0.1928
   15SAPS   C21 1886   3.757   3.685   6.396 -0.9475 -0.4534  0.9152
   15SAPS   O22 1887   3.826   3.785   6.370  0.2844  0.0646 -0.2856
   15SAPS   C22 1888   3.801   3.584   6.507  0.2478  0.7637  0.5164
   15SAPS   H2R 1889   3.743   3.490   6.508  0.3612  0.6954  0.6816
   15SAPS   H2S 1890   3.893   3.552   6.453  0.2068  0.8162  0.4147
   15SAPS    C3 1891   3.530   3.843   6.312 -0.7198  0.6765 -0.0763
   15SAPS    HX 1892   3.467   3.885   6.230 -0.0436  0.8329 -0.5252
   15SAPS    HY 1893   3.603   3.924   6.330  0.9288 -0.0720 -2.7286
   15SAPS   O31 1894   3.446   3.799   6.421  0.2819  0.1079 -0.6527
   15SAPS   C31 1895   3.444   3.890   6.521 -0.8705  0.6437 -0.8754
   15SAPS   O32 1896   3.517   3.990   6.534  0.1325 -0.1823  0.1262
   15SAPS   C32 1897   3.333   3.851   6.614 -0.1168 -0.4275  0.0668
   15SAPS   H2X 1898   3.341   3.743   6.639  1.7951 -0.5008 -0.7244
   15SAPS   H2Y 1899   3.246   3.855   6.545  1.1571 -1.3231 -1.6566
   15SAPS   C23 1900   3.836   3.644   6.644 -1.1882  0.4051  0.0070
   15SAPS   H3R 1901   3.911   3.725   6.631 -0.5500 -0.0220  0.8950
   15SAPS   H3S 1902   3.888   3.562   6.698  1.5643  0.3996 -2.3837
   15SAPS   C24 1903   3.712   3.693   6.710  0.7781 -0.1064  0.5209
   15SAPS   H4R 1904   3.636   3.612   6.705  0.9300 -0.1736 -1.6985
   15SAPS   H4S 1905   3.669   3.780   6.655 -0.3758 -0.5202  0.7382
   15SAPS   C25 1906   3.760   3.724   6.851  0.0600  0.2246 -0.5718
   15SAPS   H5R 1907   3.858   3.768   6.874  0.4999 -0.5501 -0.9476
   15SAPS   C26 1908   3.676   3.711   6.959 -0.2473 -0.2459  0.1506
   15SAPS   H6R 1909   3.713   3.709   7.062 -4.3740  2.1595  1.9233
   15SAPS   C27 1910   3.528   3.667   6.956 -0.0921  0.9580  0.3959
   15SAPS   H7R 1911   3.488   3.645   6.854  0.8130  0.8840  0.0529
   15SAPS   H7S 1912   3.466   3.749   6.998 -0.7285 -0.5269  2.5236
   15SAPS   C28 1913   3.523   3.538   7.039  0.3216  1.7060  0.7527
   15SAPS   H8R 1914   3.540   3.446   6.982 -0.7770  0.9513  1.5843
   15SAPS   C29 1915   3.490   3.519   7.169  0.2396 -0.2536 -0.4137
   15SAPS   H9R 1916   3.476   3.421   7.216 -0.8914 -1.0814 -2.3790
   15SAPS  C210 1917   3.453   3.639   7.255  0.1491 -0.0524  0.4323
   15SAPS  H10R 1918   3.387   3.707   7.197 -1.8370 -1.5988  0.7908
   15SAPS  H10S 1919   3.542   3.698   7.285 -0.2459  1.6083 -1.4178
   15SAPS  C211 1920   3.369   3.597   7.374  0.5178 -0.4180 -0.4763
   15SAPS  H11R 1921   3.261   3.598   7.355  0.5971 -1.3292 -1.0248
   15SAPS  C212 1922   3.408   3.559   7.499  0.0234 -0.2098  0.3727
   15SAPS  H12R 1923   3.333   3.521   7.570 -0.1912 -0.4125  0.0445
   15SAPS  C213 1924   3.552   3.566   7.546  0.0409  0.1607 -0.0249
   15SAPS  H13R 1925   3.553   3.637   7.632  1.1243  1.2737 -0.9310
   15SAPS  H13S 1926   3.621   3.608   7.470  0.8893 -0.6792  0.2675
   15SAPS  C214 1927   3.595   3.425   7.584 -0.2088 -0.0780 -0.0946
   15SAPS  H14R 1928   3.631   3.364   7.500  0.9170  1.8269 -1.0750
   15SAPS  C215 1929   3.579   3.374   7.706  0.4257 -0.1853  0.1777
   15SAPS  H15R 1930   3.608   3.269   7.723  2.0121  0.3264  0.8197
   15SAPS  C216 1931   3.518   3.442   7.827 -0.3336  0.0222  0.5602
   15SAPS  H16R 1932   3.435   3.381   7.869 -0.3600 -0.6206 -0.3904
   15SAPS  H16S 1933   3.478   3.541   7.797 -1.3980 -0.8289 -0.9882
   15SAPS  C217 1934   3.625   3.473   7.939 -0.0651  0.2137 -0.8348
   15SAPS  H17R 1935   3.711   3.538   7.913  0.8510  0.2750  1.9856
   15SAPS  H17S 1936   3.680   3.382   7.972 -1.6560  0.1943  2.0682
   15SAPS  C218 1937   3.560   3.547   8.064 -0.9551  0.6238 -0.7075
   15SAPS  H18R 1938   3.452   3.558   8.043 -0.9055  0.2639 -1.1677
   15SAPS  H18S 1939   3.599   3.647   8.093 -0.2908 -0.2542  1.7019
   15SAPS  C219 1940   3.564   3.460   8.194 -0.3573 -0.6443 -0.6562
   15SAPS  H19R 1941   3.509   3.365   8.192  0.5844 -1.2057 -3.0266
   15SAPS  H19S 1942   3.530   3.529   8.274  2.6281  1.2402 -0.8247
   15SAPS  C220 1943   3.710   3.434   8.244 -0.7245 -0.0051  0.2126
   15SAPS  H20R 1944   3.769   3.525   8.223  2.6925 -2.3041 -1.1468
   15SAPS  H20S 1945   3.760   3.352   8.188  1.7994 -0.3664  2.8041
   15SAPS  H20T 1946   3.709   3.409   8.353  1.3545  0.5189  0.3951
   15SAPS   C33 1947   3.325   3.943   6.734 -0.0898  0.1170  0.1056
   15SAPS   H3X 1948   3.309   4.047   6.700  0.6326  0.4997  0.8949
   15SAPS   H3Y 1949   3.416   3.943   6.799  0.3062  0.8843 -0.4369
   15SAPS   C34 1950   3.199   3.905   6.811  0.0562  1.1065 -0.0945
   15SAPS   H4X 1951   3.204   3.800   6.846 -1.5952  1.0707  0.1140
   15SAPS   H4Y 1952   3.115   3.918   6.739 -0.8164  1.0245  0.8906
   15SAPS   C35 1953   3.178   3.987   6.938 -0.3149 -0.3206  0.0910
   15SAPS   H5X 1954   3.173   4.097   6.924  1.3112  0.0594  2.0545
   15SAPS   H5Y 1955   3.274   3.980   6.993 -0.5946  0.9030  0.7684
   15SAPS   C36 1956   3.049   3.938   7.011 -0.5997  0.0114 -0.1044
   15SAPS   H6X 1957   3.075   3.834   7.041  1.0048  0.3187 -0.3014
   15SAPS   H6Y 1958   2.969   3.925   6.935 -0.8493  1.3158 -0.0782
   15SAPS   C37 1959   3.012   4.032   7.132  0.1637 -0.5361 -0.2397
   15SAPS   H7X 1960   3.011   4.140   7.106  3.2068 -0.5461 -0.7563
   15SAPS   H7Y 1961   3.101   4.032   7.199  1.1983 -1.1670 -1.5738
   15SAPS   C38 1962   2.882   3.992   7.200  0.1535 -0.4158 -0.9093
   15SAPS   H8X 1963   2.884   3.881   7.200  1.9856 -0.4217  0.0872
   15SAPS   H8Y 1964   2.797   4.030   7.139  0.4123  1.3693 -0.2209
   15SAPS   C39 1965   2.866   4.038   7.346 -0.1029 -0.4621  0.3659
   15SAPS   H9X 1966   2.892   4.145   7.360  0.9578 -0.8533  1.6703
   15SAPS   H9Y 1967   2.939   3.979   7.405  0.0813  0.3616  0.9905
   15SAPS  C310 1968   2.726   4.001   7.402  0.2666 -0.5274  0.0667
   15SAPS  H10X 1969   2.714   3.891   7.400  0.2521 -0.5293  0.2670
   15SAPS  H10Y 1970   2.648   4.051   7.340  1.2219  0.5870 -0.2701
   15SAPS  C311 1971   2.720   4.046   7.550  0.3059 -0.1323  0.5312
   15SAPS  H11X 1972   2.614   4.035   7.584  0.6779 -1.9105  1.2112
   15SAPS  H11Y 1973   2.744   4.154   7.564  1.0256 -0.0413 -1.1990
   15SAPS  C312 1974   2.797   3.961   7.652 -0.0051  0.7262 -1.0582
   15SAPS  H12X 1975   2.905   3.987   7.641 -0.0748  0.4547 -2.5744
   15SAPS  H12Y 1976   2.783   3.853   7.628 -0.3620  0.0542  1.7790
   15SAPS  C313 1977   2.755   3.982   7.800 -0.1504  0.0368  0.6841
   15SAPS  H13X 1978   2.645   3.967   7.803 -0.0022 -0.9794  1.4251
   15SAPS  H13Y 1979   2.771   4.083   7.844 -1.0796 -0.5447  2.4334
   15SAPS  C314 1980   2.822   3.886   7.894 -0.6366 -0.1005  0.5263
   15SAPS  H14X 1981   2.932   3.901   7.896 -0.9063  2.4448  3.0176
   15SAPS  H14Y 1982   2.802   3.783   7.857 -3.2200  0.5598 -0.1420
   15SAPS  C315 1983   2.762   3.885   8.033  0.0373  0.8330  0.0244
   15SAPS  H15X 1984   2.653   3.884   8.014 -0.1096  3.4542  0.3828
   15SAPS  H15Y 1985   2.775   3.984   8.081 -3.1530  0.8326  1.0846
   15SAPS  C316 1986   2.821   3.775   8.120  0.2880 -0.4394  0.2536
   15SAPS  H16X 1987   2.925   3.811   8.133 -0.2648  0.8926  1.1987
   15SAPS  H16Y 1988   2.817   3.670   8.082 -1.6790 -0.5525  0.7020
   15SAPS  C317 1989   2.762   3.783   8.263  0.5512  0.5538 -0.0573
   15SAPS  H17X 1990   2.749   3.891   8.285 -1.1519  0.3645 -0.0395
   15SAPS  H17Y 1991   2.832   3.739   8.337  1.4170  0.5476 -0.8600
   15SAPS  C318 1992   2.627   3.714   8.270 -0.7164  0.1602  0.2178
   15SAPS  H18X 1993   2.567   3.744   8.181 -2.1650 -2.3411  0.2462
   15SAPS  H18Y 1994   2.566   3.736   8.361  0.0947  1.3011  0.5042
   15SAPS  H18Z 1995   2.629   3.603   8.271 -0.7432  0.0416 -2.8982
   16SAPS     N 1996   5.080   4.630   6.258 -0.2242  0.4372  0.2863
   16SAPS   HN1 1997   5.029   4.564   6.196 -0.0400 -0.2685  0.8715
   16SAPS   HN2 1998   5.139   4.569   6.318 -2.7197  1.2077  3.8641
   16SAPS   HN3 1999   5.016   4.659   6.334 -2.5507 -1.7950 -0.6415
   16SAPS   C12 2000   5.168   4.737   6.199 -0.2047  0.1712 -0.4967
   16SAPS  H12A 2001   5.236   4.688   6.130  1.4928  0.7275  0.7082
   16SAPS   C13 2002   5.096   4.845   6.115 -0.4756 -0.2360  0.3344
   16SAPS  O13A 2003   4.974   4.819   6.089  0.5107  0.3268  0.1276
   16SAPS  O13B 2004   5.153   4.936   6.050 -0.1831  0.1448 -0.3169
   16SAPS   C11 2005   5.241   4.785   6.328 -0.2449  0.1020 -0.2214
   16SAPS  H11A 2006   5.179   4.810   6.416  1.2572 -0.1090  0.9444
   16SAPS  H11B 2007   5.295   4.879   6.302  1.1130 -0.9558 -1.4267
   16SAPS     P 2008   5.471   4.691   6.445  0.2571 -0.1796  0.1173
   16SAPS   O13 2009   5.545   4.573   6.410  0.0983 -0.1362  1.0692
   16SAPS   O14 2010   5.533   4.824   6.411  0.2308  0.0786 -0.0733
   16SAPS   O12 2011   5.339   4.686   6.365 -0.1748  0.3574 -0.1619
   16SAPS   O11 2012   5.431   4.700   6.595  0.4869 -0.0059  0.1035
   16SAPS    C1 2013   5.304   4.653   6.632  0.0375 -0.4022 -0.1651
   16SAPS    HA 2014   5.239   4.742   6.644 -0.2204 -0.8736  2.6492
   16SAPS    HB 2015   5.259   4.578   6.563 -1.6102  0.3195  0.0694
   16SAPS    C2 2016   5.308   4.574   6.768 -0.4051 -0.1743  0.2315
   16SAPS    HS 2017   5.214   4.541   6.817 -0.6950 -1.2789 -1.0269
   16SAPS   O21 2018   5.377   4.647   6.869  0.0591 -0.2048 -0.8834
   16SAPS   C21 2019   5.340   4.770   6.892  0.5978 -0.2944  0.3537
   16SAPS   O22 2020   5.235   4.818   6.853 -0.1037 -0.0009  0.4740
   16SAPS   C22 2021   5.442   4.836   6.991  0.1560  0.2783  0.0559
   16SAPS   H2R 2022   5.532   4.778   7.019  0.3907  1.2026  1.3389
   16SAPS   H2S 2023   5.478   4.925   6.936 -0.4632  2.3505  2.7306
   16SAPS    C3 2024   5.388   4.438   6.752  0.1558  0.2722 -0.4995
   16SAPS    HX 2025   5.493   4.456   6.721  1.0130  0.8653  2.4987
   16SAPS    HY 2026   5.335   4.386   6.669 -0.3779 -1.0081  0.5970
   16SAPS   O31 2027   5.373   4.356   6.870 -0.4051 -0.0141 -0.4099
   16SAPS   C31 2028   5.464   4.373   6.966 -0.2631 -0.4727 -0.4720
   16SAPS   O32 2029   5.557   4.451   6.964 -0.0853 -0.0282 -0.1068
   16SAPS   C32 2030   5.444   4.281   7.085  0.2984  0.2310 -0.1479
   16SAPS   H2X 2031   5.436   4.182   7.034  1.0252  0.2164 -0.2545
   16SAPS   H2Y 2032   5.346   4.302   7.132 -0.6253 -1.2179 -1.3171
   16SAPS   C23 2033   5.382   4.893   7.119  0.8070 -0.1921  0.1712
   16SAPS   H3R 2034   5.273   4.894   7.098  0.7029 -1.3850  0.5716
   16SAPS   H3S 2035   5.410   5.000   7.131  3.0869 -0.6025 -0.9458
   16SAPS   C24 2036   5.407   4.805   7.246 -0.3407 -0.3197 -0.3855
   16SAPS   H4R 2037   5.337   4.851   7.319 -0.2854 -3.9483  2.2586
   16SAPS   H4S 2038   5.514   4.823   7.270  0.0444  2.4151 -3.4393
   16SAPS   C25 2039   5.375   4.657   7.233  0.7262  0.2878 -0.0647
   16SAPS   H5R 2040   5.451   4.580   7.214  0.8274  0.0982  1.0448
   16SAPS   C26 2041   5.246   4.614   7.233  0.3808 -0.0992  0.0613
   16SAPS   H6R 2042   5.228   4.505   7.236 -1.5479  0.1777 -0.3411
   16SAPS   C27 2043   5.114   4.691   7.250  0.0955  1.1430  0.1680
   16SAPS   H7R 2044   5.135   4.800   7.252  1.1779  0.9536  1.7300
   16SAPS   H7S 2045   5.062   4.653   7.340 -0.5659  0.2197 -0.5860
   16SAPS   C28 2046   5.022   4.662   7.136  0.6021 -0.3708  0.6581
   16SAPS   H8R 2047   5.049   4.713   7.043  1.4371 -0.4514  0.8520
   16SAPS   C29 2048   4.903   4.589   7.134 -0.2172  0.0805  0.0918
   16SAPS   H9R 2049   4.843   4.590   7.042  1.4562  0.6736 -1.0518
   16SAPS  C210 2050   4.835   4.510   7.244 -0.2953 -0.8298 -0.2201
   16SAPS  H10R 2051   4.900   4.429   7.283  0.5276 -0.1153 -0.0905
   16SAPS  H10S 2052   4.744   4.460   7.202 -1.9077  0.9263  1.0004
   16SAPS  C211 2053   4.785   4.596   7.356  0.1747  0.2249 -0.0141
   16SAPS  H11R 2054   4.712   4.669   7.318  1.5299  1.1874 -0.8405
   16SAPS  C212 2055   4.807   4.592   7.493 -0.5749 -0.0624  0.9722
   16SAPS  H12R 2056   4.734   4.648   7.553 -1.0177  0.1813  0.2126
   16SAPS  C213 2057   4.904   4.501   7.567  0.5398  0.3871  0.0757
   16SAPS  H13R 2058   4.968   4.440   7.499  1.1391  0.5553  0.4817
   16SAPS  H13S 2059   4.844   4.429   7.627 -0.1489  1.0263  0.1613
   16SAPS  C214 2060   4.983   4.589   7.660 -0.4707 -0.5383 -0.3546
   16SAPS  H14R 2061   4.996   4.694   7.631 -2.0427  0.0891  1.0065
   16SAPS  C215 2062   5.043   4.542   7.769  0.2618  0.1682  0.2114
   16SAPS  H15R 2063   5.073   4.611   7.849  0.0372  0.2324  0.2414
   16SAPS  C216 2064   5.032   4.397   7.812  0.4911  0.0961 -0.3044
   16SAPS  H16R 2065   5.135   4.362   7.834  0.2542 -0.2147  0.3343
   16SAPS  H16S 2066   4.992   4.324   7.738  1.0670 -1.0036  0.4423
   16SAPS  C217 2067   4.946   4.382   7.946 -0.0198 -0.0840  0.0987
   16SAPS  H17R 2068   4.946   4.273   7.969  2.3047 -0.7168 -2.3937
   16SAPS  H17S 2069   4.842   4.412   7.924  0.2111 -0.4829 -1.7496
   16SAPS  C218 2070   5.016   4.456   8.058 -0.3115 -0.1995 -0.1288
   16SAPS  H18R 2071   5.002   4.565   8.044 -0.5138 -0.2610 -0.4151
   16SAPS  H18S 2072   5.125   4.433   8.059 -0.7278 -2.4730  0.5717
   16SAPS  C219 2073   4.955   4.411   8.198 -0.8299 -0.3862  0.3547
   16SAPS  H19R 2074   5.010   4.464   8.279 -2.1094  0.4299  0.7178
   16SAPS  H19S 2075   4.990   4.306   8.199 -0.4258 -0.2812 -1.0452
   16SAPS  C220 2076   4.802   4.437   8.212 -0.5083  0.7014  0.3317
   16SAPS  H20R 2077   4.758   4.401   8.116 -0.6316  0.1935  0.5744
   16SAPS  H20S 2078   4.786   4.545   8.234  1.3243  1.6919 -2.6760
   16SAPS  H20T 2079   4.752   4.377   8.292  0.9053 -0.7085  0.2022
   16SAPS   C33 2080   5.561   4.288   7.183 -0.2989 -0.0143  0.2457
   16SAPS   H3X 2081   5.581   4.393   7.211 -1.1764  0.2340 -0.0189
   16SAPS   H3Y 2082   5.650   4.239   7.139 -0.2471 -0.5928  0.9629
   16SAPS   C34 2083   5.529   4.220   7.315 -0.0678 -0.7415  0.0203
   16SAPS   H4X 2084   5.603   4.187   7.391 -0.6710  1.0519  1.4626
   16SAPS   H4Y 2085   5.475   4.124   7.296  0.9694 -1.8814  2.3713
   16SAPS   C35 2086   5.440   4.312   7.395  0.1125 -0.1215  0.8102
   16SAPS   H5X 2087   5.368   4.373   7.336  1.7280  0.2754 -0.8836
   16SAPS   H5Y 2088   5.501   4.395   7.437 -0.4850  0.5981  0.2798
   16SAPS   C36 2089   5.367   4.233   7.505 -0.0393 -0.4050 -0.7961
   16SAPS   H6X 2090   5.322   4.144   7.456 -0.2527 -1.0858  0.5750
   16SAPS   H6Y 2091   5.280   4.296   7.533 -0.3587 -1.6532  1.2454
   16SAPS   C37 2092   5.459   4.203   7.630 -0.0716 -0.4709  0.1031
   16SAPS   H7X 2093   5.510   4.300   7.643 -0.9610  0.2268 -1.3523
   16SAPS   H7Y 2094   5.532   4.124   7.601  0.3026 -0.8360  1.9654
   16SAPS   C38 2095   5.380   4.166   7.753  0.8332 -0.1887  0.5349
   16SAPS   H8X 2096   5.306   4.086   7.728  0.0136  0.8212 -0.3961
   16SAPS   H8Y 2097   5.311   4.251   7.773 -0.2294 -0.6529 -0.9738
   16SAPS   C39 2098   5.463   4.134   7.871 -0.9718  0.4839  0.0358
   16SAPS   H9X 2099   5.544   4.210   7.873 -1.2697  0.7799  1.5550
   16SAPS   H9Y 2100   5.515   4.037   7.855 -0.0883  1.2179 -1.8900
   16SAPS  C310 2101   5.382   4.128   7.998  0.0799 -0.0240 -0.1811
   16SAPS  H10X 2102   5.331   4.225   8.015 -0.5126 -0.4181  0.3603
   16SAPS  H10Y 2103   5.437   4.102   8.090 -1.3949 -0.5755  0.5783
   16SAPS  C311 2104   5.268   4.022   7.988  0.3007 -0.8433  0.9049
   16SAPS  H11X 2105   5.304   3.924   7.950  0.6489 -1.5202  2.8826
   16SAPS  H11Y 2106   5.214   4.051   7.895  1.4663 -0.3508  0.3676
   16SAPS  C312 2107   5.177   4.021   8.106 -0.0257  0.1621 -0.0785
   16SAPS  H12X 2108   5.163   4.130   8.126 -1.3648 -0.2295  1.2774
   16SAPS  H12Y 2109   5.233   3.974   8.189 -0.7530 -0.7469 -0.0854
   16SAPS  C313 2110   5.038   3.957   8.080  0.1182  0.0065 -0.1855
   16SAPS  H13X 2111   5.054   3.852   8.048 -0.0060  0.2011 -0.8924
   16SAPS  H13Y 2112   4.997   4.017   7.996 -1.4889  1.1442  1.3264
   16SAPS  C314 2113   4.925   3.956   8.180 -0.4826  0.0634 -0.7333
   16SAPS  H14X 2114   4.827   3.939   8.131 -1.2987  0.0852  0.8408
   16SAPS  H14Y 2115   4.914   4.058   8.222  0.1397  0.7263 -2.1108
   16SAPS  C315 2116   4.934   3.841   8.283  0.7727  0.0267  0.6551
   16SAPS  H15X 2117   4.991   3.757   8.238  1.6804  0.6903  0.5333
   16SAPS  H15Y 2118   4.835   3.812   8.322  1.1297  0.1872  1.7115
   16SAPS  C316 2119   5.008   3.891   8.420 -0.6279 -0.0766 -0.1120
   16SAPS  H16X 2120   4.958   3.980   8.464 -1.4809 -0.1692 -0.8714
   16SAPS  H16Y 2121   5.111   3.921   8.393 -1.7291  1.6683 -2.8176
   16SAPS  C317 2122   5.012   3.773   8.523 -0.2871  0.0323 -0.6951
   16SAPS  H17X 2123   5.059   3.681   8.481 -1.6419 -1.5350  1.0404
   16SAPS  H17Y 2124   4.908   3.744   8.549  0.4036  0.2513  2.6431
   16SAPS  C318 2125   5.070   3.820   8.654  0.0461  0.4521 -0.3486
   16SAPS  H18X 2126   5.064   3.748   8.737  1.2403 -0.0508 -0.6774
   16SAPS  H18Y 2127   5.009   3.907   8.688 -0.2377 -0.3143  1.1695
   16SAPS  H18Z 2128   5.174   3.857   8.640 -0.2576  1.1083 -0.9707
   17SAPC     N 2129   3.314   6.364  10.358  0.1163  0.2454  0.3762
   17SAPC   C12 2130   3.401   6.270  10.442 -0.6235 -0.4227 -0.7960
   17SAPC  H12A 2131   3.350   6.205  10.512  1.0442  0.3633  1.2741
   17SAPC  H12B 2132   3.462   6.342  10.495 -2.0834 -0.7622  1.5052
   17SAPC   C13 2133   3.218   6.428  10.450  0.0282  0.2846  0.0411
   17SAPC  H13A 2134   3.170   6.344  10.497 -1.0728  1.1691  0.5705
   17SAPC  H13B 2135   3.255   6.499  10.523 -0.2629  0.5340 -0.0497
   17SAPC  H13C 2136   3.141   6.485  10.399 -1.3722 -0.6407  1.0298
   17SAPC   C14 2137   3.396   6.465  10.282  0.1562 -0.1076  0.4138
   17SAPC  H14A 2138   3.452   6.415  10.205 -0.0668 -1.6917  1.2497
   17SAPC  H14B 2139   3.333   6.541  10.237  0.3331 -0.9530 -1.3555
   17SAPC  H14C 2140   3.459   6.524  10.347 -0.6813  3.4400 -1.6939
   17SAPC   C15 2141   3.233   6.296  10.261 -0.6253 -0.1273 -0.1256
   17SAPC  H15A 2142   3.191   6.372  10.196  1.6395  1.8920  0.6224
   17SAPC  H15B 2143   3.306   6.232  10.213 -0.7477 -0.4288  0.0905
   17SAPC  H15C 2144   3.154   6.238  10.305 -2.7425  2.0061 -0.8880
   17SAPC   C11 2145   3.496   6.177  10.362 -0.7599  0.2229 -0.5008
   17SAPC  H11A 2146   3.434   6.105  10.305  0.0929 -0.4114 -0.6610
   17SAPC  H11B 2147   3.545   6.109  10.436  1.0850  2.2240  0.2053
   17SAPC     P 2148   3.715   6.308  10.349  0.0140  0.4163  0.2186
   17SAPC   O13 2149   3.775   6.401  10.255 -0.2538  0.0858  0.5677
   17SAPC   O14 2150   3.679   6.350  10.486 -0.1654  0.9434 -0.5068
   17SAPC   O12 2151   3.592   6.246  10.278  0.7400  0.2068  0.1081
   17SAPC   O11 2152   3.812   6.185  10.354 -0.0700 -0.3197 -0.9612
   17SAPC    C1 2153   3.824   6.076  10.266  0.0391 -0.5969 -0.1922
   17SAPC    HA 2154   3.855   5.988  10.327 -0.9754 -0.6035  0.3252
   17SAPC    HB 2155   3.728   6.056  10.215  0.9857  1.1043 -2.8521
   17SAPC    C2 2156   3.930   6.110  10.155  0.4530  0.2109 -0.2360
   17SAPC    HS 2157   3.966   6.018  10.105  0.3758  1.5775 -2.9708
   17SAPC   O21 2158   4.049   6.163  10.206  0.1817  0.2411  0.1386
   17SAPC   C21 2159   4.120   6.099  10.290  0.2345 -0.6382 -0.8006
   17SAPC   O22 2160   4.092   5.987  10.327  0.0152  0.1065 -0.0045
   17SAPC   C22 2161   4.249   6.171  10.320  0.1957  0.3311  0.5036
   17SAPC   H2R 2162   4.232   6.279  10.301  0.7384  0.2520 -0.5659
   17SAPC   H2S 2163   4.275   6.163  10.427 -2.8006  0.5402  1.3230
   17SAPC    C3 2164   3.875   6.199  10.036  0.4099  0.4075 -0.0141
   17SAPC    HX 2165   3.868   6.306  10.066  3.4771  0.9053 -0.6594
   17SAPC    HY 2166   3.772   6.167  10.012  0.4196 -1.6479  2.2943
   17SAPC   O31 2167   3.952   6.176   9.914  0.0175  0.5086  0.0267
   17SAPC   C31 2168   4.057   6.252   9.892 -0.3461 -1.0041 -0.1862
   17SAPC   O32 2169   4.093   6.355   9.953 -0.1995  0.0937 -0.4474
   17SAPC   C32 2170   4.141   6.203   9.782  0.0408  0.4272 -0.2508
   17SAPC   H2X 2171   4.138   6.092   9.780  2.7175  0.3088 -1.9899
   17SAPC   H2Y 2172   4.241   6.237   9.818  0.0670  1.1438 -0.9833
   17SAPC   C23 2173   4.360   6.113  10.240 -0.6696  0.1551 -0.2050
   17SAPC   H3R 2174   4.361   6.004  10.259 -1.4240  0.4208  1.5559
   17SAPC   H3S 2175   4.455   6.152  10.282 -0.5545 -1.0554  0.7116
   17SAPC   C24 2176   4.367   6.143  10.088 -0.0298 -0.4059  0.0267
   17SAPC   H4R 2177   4.352   6.252  10.071  0.8956 -0.5596 -2.0803
   17SAPC   H4S 2178   4.272   6.098  10.052 -0.7682  1.6777 -0.7567
   17SAPC   C25 2179   4.496   6.091  10.036 -0.9293 -0.2809 -0.2889
   17SAPC   H5R 2180   4.580   6.113  10.103 -1.1453 -0.2857 -0.0150
   17SAPC   C26 2181   4.515   6.011   9.931  0.4398  0.0438  0.3133
   17SAPC   H6R 2182   4.619   5.991   9.902  0.6046 -0.6406  1.3264
   17SAPC   C27 2183   4.409   5.954   9.838  0.1802 -0.5922 -0.4462
   17SAPC   H7R 2184   4.313   6.007   9.856  0.0248 -0.4179 -1.6474
   17SAPC   H7S 2185   4.393   5.845   9.855 -1.2787 -0.4872 -0.9539
   17SAPC   C28 2186   4.465   5.976   9.699  0.3702 -0.1779  0.1198
   17SAPC   H8R 2187   4.506   6.075   9.674 -0.8418  0.2321 -0.3149
   17SAPC   C29 2188   4.466   5.886   9.593  0.6643 -0.4123  0.4005
   17SAPC   H9R 2189   4.495   5.925   9.494 -1.2619  1.7981  0.6130
   17SAPC  C210 2190   4.420   5.742   9.606  0.8327  0.4773  0.6359
   17SAPC  H10R 2191   4.341   5.737   9.685 -0.7760  0.8481 -0.8973
   17SAPC  H10S 2192   4.505   5.680   9.643  1.2832  0.9985  0.5001
   17SAPC  C211 2193   4.375   5.690   9.467  0.5488 -0.0201 -0.5678
   17SAPC  H11R 2194   4.296   5.748   9.416 -0.7940 -0.5370  0.8297
   17SAPC  C212 2195   4.431   5.591   9.396 -0.5180 -0.6781  0.3684
   17SAPC  H12R 2196   4.396   5.580   9.292  2.5779 -1.0930 -0.7318
   17SAPC  C213 2197   4.541   5.504   9.449 -0.1827 -0.6905 -0.1944
   17SAPC  H13R 2198   4.523   5.396   9.431  1.5265 -1.1385  0.5316
   17SAPC  H13S 2199   4.550   5.521   9.559 -1.4061  1.3394 -0.3608
   17SAPC  C214 2200   4.671   5.543   9.395 -0.2541  0.1711  0.1082
   17SAPC  H14R 2201   4.695   5.648   9.412  2.7856 -0.6195  1.3517
   17SAPC  C215 2202   4.769   5.467   9.344 -0.1083  0.4663 -0.4431
   17SAPC  H15R 2203   4.862   5.523   9.324  0.0284  0.2942 -0.2900
   17SAPC  C216 2204   4.772   5.317   9.319 -0.6336 -0.6267 -0.3167
   17SAPC  H16R 2205   4.718   5.271   9.405 -1.4101  0.3700 -0.2526
   17SAPC  H16S 2206   4.874   5.274   9.331 -1.1470 -1.9046 -0.3167
   17SAPC  C217 2207   4.700   5.265   9.190 -0.1330  0.8302  0.1470
   17SAPC  H17R 2208   4.718   5.324   9.097  0.3106 -0.5589 -0.6651
   17SAPC  H17S 2209   4.595   5.268   9.224  0.1760 -0.1544  1.2576
   17SAPC  C218 2210   4.738   5.118   9.167 -0.2226 -0.0167 -0.1452
   17SAPC  H18R 2211   4.732   5.063   9.264 -0.1738 -1.8030 -1.1077
   17SAPC  H18S 2212   4.842   5.094   9.135  0.3984 -0.7635  2.2208
   17SAPC  C219 2213   4.643   5.042   9.080 -0.0501  0.5236  0.7421
   17SAPC  H19R 2214   4.543   5.047   9.130 -0.3098  1.7190  0.1387
   17SAPC  H19S 2215   4.685   4.939   9.073  0.5032  0.6089  2.2949
   17SAPC  C220 2216   4.614   5.101   8.947  0.0831 -0.1007 -0.6278
   17SAPC  H20R 2217   4.559   5.033   8.878 -1.1311  0.7356 -0.5190
   17SAPC  H20S 2218   4.711   5.116   8.895  0.2607  0.4929 -0.1376
   17SAPC  H20T 2219   4.573   5.204   8.955  1.1817  0.3429 -0.5476
   17SAPC   C33 2220   4.108   6.252   9.636  0.3498  0.0324 -0.4867
   17SAPC   H3X 2221   4.099   6.362   9.626 -0.8046  0.1162  1.0341
   17SAPC   H3Y 2222   4.005   6.226   9.602  0.6878  1.2038 -2.5380
   17SAPC   C34 2223   4.192   6.184   9.527  0.4922  0.5688  0.8390
   17SAPC   H4X 2224   4.189   6.074   9.546 -0.9011  0.7221  1.6766
   17SAPC   H4Y 2225   4.299   6.210   9.546  0.1507  2.4986  0.2752
   17SAPC   C35 2226   4.163   6.209   9.377  0.2056 -0.3013  0.1958
   17SAPC   H5X 2227   4.152   6.319   9.361  1.4437 -0.3072 -0.8225
   17SAPC   H5Y 2228   4.069   6.157   9.352 -0.0763  0.1293  0.3373
   17SAPC   C36 2229   4.275   6.144   9.288  0.3430  0.1431  0.2361
   17SAPC   H6X 2230   4.293   6.041   9.324  0.7694  0.4008  0.7726
   17SAPC   H6Y 2231   4.365   6.198   9.324 -0.6072  0.3727  2.4407
   17SAPC   C37 2232   4.259   6.162   9.134 -0.4422  0.0982 -0.8608
   17SAPC   H7X 2233   4.162   6.123   9.095  0.5107 -3.3926  0.0072
   17SAPC   H7Y 2234   4.341   6.104   9.087  0.4460 -1.6007  2.4913
   17SAPC   C38 2235   4.281   6.300   9.082  0.6939 -0.0451  0.0593
   17SAPC   H8X 2236   4.359   6.357   9.137 -1.6899  0.6599  2.9935
   17SAPC   H8Y 2237   4.183   6.342   9.112 -0.4454 -2.7271  0.3704
   17SAPC   C39 2238   4.287   6.308   8.931  0.5913  0.0541 -0.4895
   17SAPC   H9X 2239   4.201   6.246   8.899 -0.4532  1.0535  0.2972
   17SAPC   H9Y 2240   4.380   6.252   8.907  1.7366  2.1444 -1.2394
   17SAPC  C310 2241   4.300   6.454   8.875 -0.3006  0.2041  0.2668
   17SAPC  H10X 2242   4.408   6.478   8.888 -0.3331 -0.1850  1.4442
   17SAPC  H10Y 2243   4.240   6.528   8.932  0.2461 -0.3657  1.6366
   17SAPC  C311 2244   4.284   6.445   8.724  0.4577  0.1162  0.3222
   17SAPC  H11X 2245   4.179   6.415   8.703 -0.2405  0.2956  3.1270
   17SAPC  H11Y 2246   4.356   6.371   8.683 -0.2492 -1.7450  2.2454
   17SAPC  C312 2247   4.301   6.580   8.653 -0.4503 -0.1602 -0.1613
   17SAPC  H12X 2248   4.212   6.644   8.672  0.4678  1.0397  0.1945
   17SAPC  H12Y 2249   4.301   6.561   8.543 -0.5799  0.7919 -0.3391
   17SAPC  C313 2250   4.436   6.649   8.674  0.2207 -0.3187  0.2570
   17SAPC  H13X 2251   4.518   6.585   8.635 -1.6526 -1.2490 -2.4044
   17SAPC  H13Y 2252   4.455   6.665   8.783 -0.1604 -1.0503  0.4380
   17SAPC  C314 2253   4.443   6.778   8.597 -0.2867  0.5777  0.7467
   17SAPC  H14X 2254   4.357   6.844   8.622  0.7713  1.4092  2.3990
   17SAPC  H14Y 2255   4.436   6.764   8.487  1.7236  0.8769  0.5353
   17SAPC  C315 2256   4.575   6.857   8.625 -0.2136  0.0374 -0.8020
   17SAPC  H15X 2257   4.578   6.948   8.561  2.9561  0.9386  0.4525
   17SAPC  H15Y 2258   4.657   6.786   8.599 -0.3216 -0.4359  0.1336
   17SAPC  C316 2259   4.593   6.907   8.769 -0.3940 -0.1078 -0.5888
   17SAPC  H16X 2260   4.592   6.821   8.840  1.2239  0.1881 -0.1569
   17SAPC  H16Y 2261   4.511   6.977   8.798  0.5327  0.5075  0.6488
   17SAPC  C317 2262   4.725   6.976   8.804  0.2465  0.6126  0.5094
   17SAPC  H17X 2263   4.730   6.982   8.914 -0.3667  0.3369  0.5541
   17SAPC  H17Y 2264   4.732   7.078   8.758  0.7176  0.7419  0.8554
   17SAPC  C318 2265   4.850   6.889   8.759 -0.3240 -0.1377  0.3114
   17SAPC  H18X 2266   4.951   6.919   8.794  1.5459 -0.4895 -4.1949
   17SAPC  H18Y 2267   4.846   6.780   8.778  1.4428 -0.2241  0.3765
   17SAPC  H18Z 2268   4.857   6.896   8.649 -0.3995  0.3636  0.3358
   18SAPC     N 2269   4.467   5.523  10.894  0.3845  0.6486 -0.4764
   18SAPC   C12 2270   4.427   5.588  10.757  0.1941 -0.1353  0.3864
   18SAPC  H12A 2271   4.348   5.525  10.719  0.4895  1.2145 -2.7614
   18SAPC  H12B 2272   4.509   5.580  10.688  0.6213  1.9046  0.6095
   18SAPC   C13 2273   4.504   5.377  10.864  0.8972  0.3795  0.0231
   18SAPC  H13A 2274   4.571   5.377  10.779  0.7795  2.4513 -0.1273
   18SAPC  H13B 2275   4.547   5.324  10.947 -0.2837  1.0303  1.0751
   18SAPC  H13C 2276   4.411   5.331  10.833  0.5215  0.5539  0.8758
   18SAPC   C14 2277   4.599   5.584  10.942  0.0952 -0.0051  0.0399
   18SAPC  H14A 2278   4.628   5.539  11.035 -1.2682 -2.1417 -0.5123
   18SAPC  H14B 2279   4.678   5.566  10.870  1.6028 -1.8812  2.0377
   18SAPC  H14C 2280   4.588   5.689  10.967  2.0584  0.0920  0.7364
   18SAPC   C15 2281   4.357   5.531  10.993  0.0063 -0.6000 -0.7496
   18SAPC  H15A 2282   4.262   5.529  10.942  1.5172  1.5031 -4.0199
   18SAPC  H15B 2283   4.370   5.450  11.064 -0.5199 -1.4048 -1.5571
   18SAPC  H15C 2284   4.366   5.622  11.051  0.3345 -0.1000 -1.5702
   18SAPC   C11 2285   4.372   5.731  10.767 -0.1026  0.3849  0.3559
   18SAPC  H11A 2286   4.295   5.728  10.848 -0.4125 -0.2360  0.0490
   18SAPC  H11B 2287   4.333   5.743  10.663 -0.5263 -0.0290  0.4605
   18SAPC     P 2288   4.555   5.892  10.673  0.2823 -0.0073  0.3312
   18SAPC   O13 2289   4.468   5.989  10.601  0.3435  0.2158  0.0738
   18SAPC   O14 2290   4.681   5.944  10.735 -0.5032  0.3592  0.2148
   18SAPC   O12 2291   4.472   5.830  10.792 -0.0181  0.4515 -0.2060
   18SAPC   O11 2292   4.593   5.769  10.581  0.2542  0.7960  0.3187
   18SAPC    C1 2293   4.717   5.694  10.597 -0.0552 -0.4708 -0.7013
   18SAPC    HA 2294   4.745   5.694  10.704  0.0533 -0.3254 -0.7295
   18SAPC    HB 2295   4.698   5.587  10.572  0.5347 -0.4014 -1.5141
   18SAPC    C2 2296   4.838   5.743  10.515 -0.2969 -0.3813 -0.0025
   18SAPC    HS 2297   4.856   5.849  10.546 -0.6453 -0.6181  1.0502
   18SAPC   O21 2298   4.805   5.731  10.377  0.4673  0.8653 -0.0945
   18SAPC   C21 2299   4.832   5.836  10.298  0.6493  0.9751 -0.1673
   18SAPC   O22 2300   4.886   5.936  10.332  0.1092 -0.0958  0.0525
   18SAPC   C22 2301   4.786   5.808  10.157  0.5616  0.2537  0.1608
   18SAPC   H2R 2302   4.714   5.726  10.143  2.7408 -1.4001 -2.1989
   18SAPC   H2S 2303   4.731   5.900  10.126 -0.7637 -0.4715  0.2919
   18SAPC    C3 2304   4.970   5.670  10.545 -0.6801  0.0887  0.4858
   18SAPC    HX 2305   4.953   5.565  10.512 -1.5264 -0.7439  3.2746
   18SAPC    HY 2306   4.972   5.676  10.656  0.0613  1.1350  0.4265
   18SAPC   O31 2307   5.086   5.730  10.483  0.0783 -0.2834  0.0786
   18SAPC   C31 2308   5.128   5.688  10.359 -0.2780  0.7283 -0.1261
   18SAPC   O32 2309   5.073   5.605  10.290  0.3900 -0.5757  0.5116
   18SAPC   C32 2310   5.260   5.768  10.328  0.5541  0.7881 -0.0355
   18SAPC   H2X 2311   5.322   5.757  10.420 -0.4141 -1.3106  0.4289
   18SAPC   H2Y 2312   5.237   5.875  10.311  0.5198  0.3761 -3.2502
   18SAPC   C23 2313   4.907   5.774  10.059  0.3009  0.0124  0.3542
   18SAPC   H3R 2314   4.942   5.669  10.072 -1.4438 -0.5026  1.1490
   18SAPC   H3S 2315   4.989   5.847  10.076 -3.5878  5.1155 -0.2906
   18SAPC   C24 2316   4.857   5.784   9.914  0.5114  0.2097 -0.4769
   18SAPC   H4R 2317   4.933   5.758   9.837  0.1221  1.1559 -1.2133
   18SAPC   H4S 2318   4.835   5.890   9.886 -0.5611 -0.1066 -0.8684
   18SAPC   C25 2319   4.725   5.704   9.884  0.0697 -1.2519 -0.2765
   18SAPC   H5R 2320   4.639   5.770   9.869  1.1715 -0.1449 -2.0267
   18SAPC   C26 2321   4.709   5.570   9.870  0.3647  0.2865  0.0947
   18SAPC   H6R 2322   4.610   5.532   9.840  1.1319 -0.4424 -1.6175
   18SAPC   C27 2323   4.820   5.473   9.869  0.0323  0.2071 -0.5560
   18SAPC   H7R 2324   4.818   5.419   9.966  0.6069 -0.3954 -0.8725
   18SAPC   H7S 2325   4.912   5.535   9.870  0.2716 -0.0735  2.2525
   18SAPC   C28 2326   4.824   5.383   9.741  0.7322 -0.4260 -0.9143
   18SAPC   H8R 2327   4.732   5.383   9.681 -0.1654  2.0671  0.3124
   18SAPC   C29 2328   4.936   5.326   9.700 -0.2654  0.9145  0.0354
   18SAPC   H9R 2329   4.946   5.269   9.606 -0.0675  2.1820 -0.7319
   18SAPC  C210 2330   5.074   5.319   9.770 -0.7750  0.9951  0.2682
   18SAPC  H10R 2331   5.073   5.213   9.805 -1.4472  1.0802  0.5354
   18SAPC  H10S 2332   5.071   5.368   9.870 -1.0371 -0.5487  1.0484
   18SAPC  C211 2333   5.204   5.339   9.700 -0.3230 -0.0112 -0.5376
   18SAPC  H11R 2334   5.277   5.258   9.693 -1.0209 -0.6545 -0.4327
   18SAPC  C212 2335   5.227   5.447   9.620  0.5072 -0.0648 -0.6736
   18SAPC  H12R 2336   5.322   5.447   9.564  1.6780  3.8453  0.9666
   18SAPC  C213 2337   5.144   5.577   9.601  0.1688 -0.2518  0.3608
   18SAPC  H13R 2338   5.083   5.597   9.692 -0.4791 -1.6015  0.2470
   18SAPC  H13S 2339   5.077   5.553   9.516 -0.4023 -4.4426  1.7542
   18SAPC  C214 2340   5.237   5.698   9.583 -0.4557 -0.8849 -0.5421
   18SAPC  H14R 2341   5.283   5.717   9.681 -2.1972 -2.8462  0.7460
   18SAPC  C215 2342   5.281   5.764   9.472  0.0361  0.5273  0.1313
   18SAPC  H15R 2343   5.347   5.850   9.490  0.4366 -0.1929  2.4622
   18SAPC  C216 2344   5.230   5.726   9.336  0.8348 -1.3643  0.0702
   18SAPC  H16R 2345   5.217   5.616   9.326  0.4760 -1.1445 -2.6308
   18SAPC  H16S 2346   5.299   5.764   9.257 -0.6937 -1.6630 -1.4626
   18SAPC  C217 2347   5.093   5.780   9.313 -0.2553 -0.3792  0.1457
   18SAPC  H17R 2348   5.090   5.891   9.310 -2.8697 -0.3616  1.0859
   18SAPC  H17S 2349   5.024   5.757   9.397  0.5700  0.6308  1.1270
   18SAPC  C218 2350   5.044   5.714   9.179 -0.4854 -0.0832  0.4855
   18SAPC  H18R 2351   4.937   5.746   9.187  0.2590  2.9881 -0.4690
   18SAPC  H18S 2352   5.037   5.604   9.195  3.8443 -0.3787  1.3625
   18SAPC  C219 2353   5.123   5.752   9.049  0.3365 -0.1446 -0.8029
   18SAPC  H19R 2354   5.053   5.734   8.964  1.4882  2.0237 -2.2976
   18SAPC  H19S 2355   5.219   5.697   9.042  0.6537  0.4282 -1.0232
   18SAPC  C220 2356   5.134   5.900   9.020  0.2700 -0.2022  0.0030
   18SAPC  H20R 2357   5.125   5.921   8.911 -0.0469  0.6545  0.1814
   18SAPC  H20S 2358   5.212   5.949   9.082  0.3237 -1.7502  1.2180
   18SAPC  H20T 2359   5.049   5.962   9.058  1.2240  0.9381  0.3438
   18SAPC   C33 2360   5.332   5.699  10.208 -0.3688 -0.3257  0.5357
   18SAPC   H3X 2361   5.355   5.592  10.229  1.4267  0.1206  1.0817
   18SAPC   H3Y 2362   5.432   5.748  10.209  1.0379 -2.9525 -0.4539
   18SAPC   C34 2363   5.267   5.710  10.075  0.2592 -0.1283 -0.3851
   18SAPC   H4X 2364   5.279   5.817  10.048  0.8811  0.1912  1.0764
   18SAPC   H4Y 2365   5.160   5.679  10.075  0.5584 -1.3362  1.2201
   18SAPC   C35 2366   5.343   5.617   9.978  0.5047 -0.6085 -0.2897
   18SAPC   H5X 2367   5.290   5.620   9.881  0.5679  2.2498 -0.3424
   18SAPC   H5Y 2368   5.330   5.520  10.031 -1.1067 -0.2822 -0.0539
   18SAPC   C36 2369   5.486   5.667   9.943 -0.1138 -0.2448  0.0035
   18SAPC   H6X 2370   5.550   5.669  10.034  1.3788 -0.6458 -1.0002
   18SAPC   H6Y 2371   5.497   5.766   9.893  2.0244 -0.9790 -1.1123
   18SAPC   C37 2372   5.557   5.565   9.856  0.0364 -0.1765  0.0123
   18SAPC   H7X 2373   5.479   5.505   9.805 -0.6958 -2.4501  3.4927
   18SAPC   H7Y 2374   5.589   5.485   9.927 -1.6021 -1.4123 -0.5829
   18SAPC   C38 2375   5.683   5.598   9.783  0.7442  0.3482 -0.1043
   18SAPC   H8X 2376   5.750   5.509   9.789 -0.0350 -0.2095  0.4034
   18SAPC   H8Y 2377   5.728   5.688   9.832  0.0472  0.4122  0.4299
   18SAPC   C39 2378   5.671   5.628   9.637  0.1003 -0.0296  0.4197
   18SAPC   H9X 2379   5.760   5.692   9.614  0.7122 -0.9635  0.1385
   18SAPC   H9Y 2380   5.580   5.675   9.594  0.5258 -2.2479 -3.3778
   18SAPC  C310 2381   5.698   5.510   9.549  0.5441  0.0315  0.3386
   18SAPC  H10X 2382   5.610   5.443   9.560  1.0406 -0.7969 -0.5615
   18SAPC  H10Y 2383   5.785   5.447   9.579  0.1915 -0.7762 -0.2841
   18SAPC  C311 2384   5.720   5.543   9.399  0.0823  0.3647  0.0186
   18SAPC  H11X 2385   5.785   5.467   9.351  0.6661  0.7234  0.2317
   18SAPC  H11Y 2386   5.766   5.643   9.384  0.0280  0.2388 -1.0849
   18SAPC  C312 2387   5.584   5.557   9.318 -0.0132 -0.5002 -0.3842
   18SAPC  H12X 2388   5.551   5.663   9.327 -1.2969 -0.7809 -1.3980
   18SAPC  H12Y 2389   5.509   5.483   9.353  1.4067 -1.0672  1.6524
   18SAPC  C313 2390   5.604   5.532   9.171  0.3354 -0.1479 -0.2153
   18SAPC  H13X 2391   5.623   5.424   9.156 -4.1593 -1.3441  1.3140
   18SAPC  H13Y 2392   5.697   5.589   9.148  0.2795  0.9435  2.0157
   18SAPC  C314 2393   5.498   5.559   9.063 -0.1129  0.2644  0.6926
   18SAPC  H14X 2394   5.472   5.667   9.058 -3.0374 -0.1614  3.1561
   18SAPC  H14Y 2395   5.408   5.507   9.103  2.0609 -2.3472  2.5928
   18SAPC  C315 2396   5.539   5.498   8.921 -0.0027 -0.1031 -0.5306
   18SAPC  H15X 2397   5.566   5.391   8.930 -0.0416 -0.1041 -0.4315
   18SAPC  H15Y 2398   5.629   5.556   8.890  0.8668 -1.2317 -0.1965
   18SAPC  C316 2399   5.425   5.531   8.826  0.4128  0.5699  0.5278
   18SAPC  H16X 2400   5.395   5.638   8.834  0.3006  0.5313  0.6044
   18SAPC  H16Y 2401   5.340   5.463   8.845 -1.5560  2.7346 -0.0531
   18SAPC  C317 2402   5.479   5.490   8.686 -0.0397 -0.4409  0.7648
   18SAPC  H17X 2403   5.538   5.396   8.688 -0.2517 -0.6138 -0.4780
   18SAPC  H17Y 2404   5.558   5.566   8.666 -0.7882 -0.2038 -1.5819
   18SAPC  C318 2405   5.383   5.496   8.568 -0.4895 -0.0373 -0.3812
   18SAPC  H18X 2406   5.305   5.418   8.581 -0.5442 -0.4283 -2.6443
   18SAPC  H18Y 2407   5.431   5.470   8.471 -1.4815 -3.2581 -0.1197
   18SAPC  H18Z 2408   5.344   5.600   8.559 -0.1583  0.0382 -1.0310
   19SAPC     N 2409   4.570   0.884  10.816  0.0834  0.3123  0.4663
   19SAPC   C12 2410   4.569   0.939  10.675 -0.3105 -1.0983  0.4176
   19SAPC  H12A 2411   4.669   0.973  10.652 -1.1959  1.1950 -0.3333
   19SAPC  H12B 2412   4.515   1.033  10.673 -0.4587 -1.0890 -3.4152
   19SAPC   C13 2413   4.673   0.781  10.840 -0.4275 -0.2372  0.0394
   19SAPC  H13A 2414   4.645   0.681  10.811 -3.3256  0.5177 -0.0416
   19SAPC  H13B 2415   4.770   0.805  10.798 -1.0404 -0.3453 -1.4835
   19SAPC  H13C 2416   4.684   0.769  10.947 -0.5741 -0.6008  0.0148
   19SAPC   C14 2417   4.590   0.999  10.911 -0.2950  0.8781  0.4838
   19SAPC  H14A 2418   4.691   1.037  10.909 -0.6315  1.7831  0.0228
   19SAPC  H14B 2419   4.527   1.081  10.881 -0.6548 -0.0322 -1.4423
   19SAPC  H14C 2420   4.566   0.967  11.011  1.0761 -0.9728  0.2807
   19SAPC   C15 2421   4.434   0.829  10.850 -0.3468  0.1102 -0.3011
   19SAPC  H15A 2422   4.393   0.769  10.770  0.3573  1.4622 -1.7345
   19SAPC  H15B 2423   4.430   0.790  10.951 -3.6096  1.1335  0.0910
   19SAPC  H15C 2424   4.360   0.907  10.862 -0.5676 -0.2642  0.8898
   19SAPC   C11 2425   4.507   0.865  10.554 -0.3961 -0.4504  0.0442
   19SAPC  H11A 2426   4.560   0.768  10.543  0.9282  0.2119  0.3605
   19SAPC  H11B 2427   4.533   0.926  10.466  2.7888 -0.9408  0.5068
   19SAPC     P 2428   4.281   0.992  10.539  0.3010  0.4692 -0.0649
   19SAPC   O13 2429   4.156   0.976  10.616 -0.0200  0.3258 -0.0853
   19SAPC   O14 2430   4.364   1.111  10.575 -0.0833 -0.4955  0.3116
   19SAPC   O12 2431   4.367   0.860  10.571 -0.3875  0.1268  0.3824
   19SAPC   O11 2432   4.247   0.988  10.389  0.1948 -0.3293 -0.0522
   19SAPC    C1 2433   4.243   0.859  10.331  0.0641 -0.2025  0.6303
   19SAPC    HA 2434   4.339   0.803  10.328  0.2211 -0.1424  2.8667
   19SAPC    HB 2435   4.168   0.796  10.384  1.9188 -2.2988  0.9276
   19SAPC    C2 2436   4.194   0.871  10.191  0.3154 -0.0568  0.7499
   19SAPC    HS 2437   4.097   0.924  10.197  0.4797  0.1044  2.6517
   19SAPC   O21 2438   4.193   0.742  10.132  0.0000 -0.1908  0.2556
   19SAPC   C21 2439   4.090   0.670  10.155 -0.8031  0.3966 -0.0426
   19SAPC   O22 2440   3.987   0.712  10.209 -0.0903  0.4450 -0.4062
   19SAPC   C22 2441   4.111   0.536  10.103  0.5031  0.2809 -0.3885
   19SAPC   H2R 2442   4.217   0.507  10.087  0.0995 -0.6942 -1.3981
   19SAPC   H2S 2443   4.063   0.460  10.169 -2.0439  2.6665  0.6621
   19SAPC    C3 2444   4.273   0.973  10.097 -0.7161  0.4074  0.5158
   19SAPC    HX 2445   4.379   0.948  10.116 -0.9517 -0.3776  0.8400
   19SAPC    HY 2446   4.259   1.079  10.128  1.9324  1.9577 -2.9505
   19SAPC   O31 2447   4.231   0.954   9.959  0.2525 -0.0028  0.0578
   19SAPC   C31 2448   4.314   0.879   9.889  0.0600 -0.3621  0.2967
   19SAPC   O32 2449   4.409   0.818   9.933  0.1114 -0.4172 -0.0541
   19SAPC   C32 2450   4.275   0.892   9.737  1.2420 -0.8317  0.0371
   19SAPC   H2X 2451   4.200   0.973   9.732  1.6439 -0.3329  1.5570
   19SAPC   H2Y 2452   4.226   0.793   9.726 -0.9141 -0.0871  2.0319
   19SAPC   C23 2453   4.043   0.521   9.965  0.4077 -0.0137 -0.4758
   19SAPC   H3R 2454   4.075   0.614   9.914  2.1598 -1.4619 -2.2326
   19SAPC   H3S 2455   3.933   0.516   9.976  0.4816  1.4480  1.4431
   19SAPC   C24 2456   4.088   0.406   9.866  0.3055 -0.1730 -0.0336
   19SAPC   H4R 2457   4.067   0.312   9.921  0.8265  0.5420  1.4327
   19SAPC   H4S 2458   4.198   0.416   9.856  0.2573 -0.3241 -0.7374
   19SAPC   C25 2459   4.012   0.414   9.741  0.2404 -0.0860  0.6751
   19SAPC   H5R 2460   3.917   0.360   9.754 -0.7238  1.2365 -0.5638
   19SAPC   C26 2461   4.050   0.452   9.617  0.2065  0.1205  0.7464
   19SAPC   H6R 2462   3.961   0.449   9.552  0.7060 -1.6095  0.0936
   19SAPC   C27 2463   4.186   0.502   9.562 -1.1977 -0.2751  0.6165
   19SAPC   H7R 2464   4.272   0.459   9.618  2.5655  2.4208 -2.5488
   19SAPC   H7S 2465   4.200   0.611   9.572  0.3596 -0.2207 -1.4566
   19SAPC   C28 2466   4.215   0.466   9.418 -0.1402  0.0732 -0.5412
   19SAPC   H8R 2467   4.278   0.376   9.409 -1.2483 -0.8326  0.4752
   19SAPC   C29 2468   4.183   0.538   9.311 -0.4348 -0.8590 -0.5309
   19SAPC   H9R 2469   4.219   0.499   9.215 -0.2780  0.1304 -0.8910
   19SAPC  C210 2470   4.105   0.664   9.288 -0.4450 -0.2065 -0.2689
   19SAPC  H10R 2471   4.156   0.738   9.353  0.0766 -0.3589 -0.5045
   19SAPC  H10S 2472   4.008   0.643   9.339 -0.3369  0.7009  0.3445
   19SAPC  C211 2473   4.104   0.719   9.147  0.5177  0.3193 -0.1884
   19SAPC  H11R 2474   4.196   0.765   9.107  1.3995 -0.4358  0.9043
   19SAPC  C212 2475   4.007   0.702   9.059  0.4029 -0.8660 -0.1784
   19SAPC  H12R 2476   4.021   0.749   8.961  0.6585  0.4174  0.4562
   19SAPC  C213 2477   3.868   0.643   9.088  0.3535 -0.3845 -0.6488
   19SAPC  H13R 2478   3.796   0.728   9.095 -0.8446 -1.2185 -2.2019
   19SAPC  H13S 2479   3.870   0.601   9.190  2.6583  3.8177  1.3164
   19SAPC  C214 2480   3.808   0.533   8.993 -0.4507  0.3638  0.0798
   19SAPC  H14R 2481   3.884   0.459   8.965 -1.6943 -1.1575  0.5373
   19SAPC  C215 2482   3.684   0.515   8.940  1.0710 -0.3574  0.7427
   19SAPC  H15R 2483   3.662   0.434   8.869  0.4978 -0.2750  0.8205
   19SAPC  C216 2484   3.553   0.592   8.957  0.0475 -0.2143 -0.1967
   19SAPC  H16R 2485   3.572   0.686   9.012 -2.2705 -0.0133  0.3612
   19SAPC  H16S 2486   3.485   0.540   9.027  0.3237  2.0250  1.8462
   19SAPC  C217 2487   3.481   0.639   8.832  0.1006 -0.2478 -0.1792
   19SAPC  H17R 2488   3.549   0.699   8.767  0.2702  0.0918  0.3101
   19SAPC  H17S 2489   3.392   0.698   8.863  1.0873  0.8627  0.6070
   19SAPC  C218 2490   3.416   0.526   8.742  0.0336  0.0616  0.4499
   19SAPC  H18R 2491   3.334   0.476   8.797 -1.3275 -0.8463 -2.2163
   19SAPC  H18S 2492   3.500   0.454   8.730 -0.6691 -1.0439  1.8478
   19SAPC  C219 2493   3.357   0.582   8.612  0.1450 -0.3166  0.2663
   19SAPC  H19R 2494   3.430   0.640   8.551 -1.1423 -0.1442 -1.1582
   19SAPC  H19S 2495   3.276   0.648   8.649 -0.3949 -1.8806  2.0767
   19SAPC  C220 2496   3.294   0.484   8.516  0.1595 -0.3928  0.1478
   19SAPC  H20R 2497   3.251   0.541   8.431 -1.6179 -1.3820  0.3287
   19SAPC  H20S 2498   3.209   0.423   8.555 -0.5525  1.0056  0.8582
   19SAPC  H20T 2499   3.370   0.408   8.487 -0.6224 -0.8871 -0.6880
   19SAPC   C33 2500   4.394   0.916   9.639 -0.0023 -0.8206 -0.3029
   19SAPC   H3X 2501   4.464   0.831   9.624  1.0061  0.2446 -1.8815
   19SAPC   H3Y 2502   4.443   1.005   9.682  1.9375 -3.7312  4.3173
   19SAPC   C34 2503   4.339   0.951   9.502 -0.1242 -0.2656  0.2914
   19SAPC   H4X 2504   4.280   0.878   9.443  0.6596  0.2976 -1.2737
   19SAPC   H4Y 2505   4.422   0.980   9.433 -0.8453  4.1576  0.9869
   19SAPC   C35 2506   4.261   1.091   9.503 -0.4219  0.3899  0.4126
   19SAPC   H5X 2507   4.301   1.162   9.578 -1.1441  0.0125  1.1655
   19SAPC   H5Y 2508   4.154   1.075   9.528 -0.1365 -1.1098  0.7765
   19SAPC   C36 2509   4.264   1.144   9.360  0.5980  0.6062  0.4923
   19SAPC   H6X 2510   4.370   1.158   9.331  0.0312 -0.7471 -2.6200
   19SAPC   H6Y 2511   4.211   1.240   9.345 -0.0109 -0.0738 -2.3010
   19SAPC   C37 2512   4.193   1.063   9.245  0.1389  0.0218 -0.2305
   19SAPC   H7X 2513   4.085   1.064   9.274  0.9660  0.9121  3.3471
   19SAPC   H7Y 2514   4.231   0.959   9.231 -1.5417 -0.6793  0.1379
   19SAPC   C38 2515   4.203   1.139   9.111  0.4966  0.0518  0.0774
   19SAPC   H8X 2516   4.307   1.122   9.075  0.8387 -1.7587  1.7063
   19SAPC   H8Y 2517   4.179   1.246   9.130 -0.7657 -0.6961  3.5225
   19SAPC   C39 2518   4.106   1.072   9.011  0.3514 -0.1735  0.4048
   19SAPC   H9X 2519   4.093   0.967   9.042 -1.4782  0.0922  0.6634
   19SAPC   H9Y 2520   4.154   1.087   8.912  0.9744  0.2748  0.7669
   19SAPC  C310 2521   3.962   1.122   8.997 -0.1404 -0.1729 -0.3853
   19SAPC  H10X 2522   3.889   1.102   9.079 -0.8783  0.8092 -0.7817
   19SAPC  H10Y 2523   3.925   1.058   8.913 -0.5804 -2.1093  1.1877
   19SAPC  C311 2524   3.950   1.270   8.966 -0.5616 -0.6679 -0.7010
   19SAPC  H11X 2525   4.036   1.289   8.898  1.1464  0.9278  1.7203
   19SAPC  H11Y 2526   3.982   1.330   9.054  0.9007 -0.3012 -1.4404
   19SAPC  C312 2527   3.813   1.313   8.918 -0.0346  0.2462 -0.0616
   19SAPC  H12X 2528   3.787   1.417   8.948  2.1112  0.2377  2.1397
   19SAPC  H12Y 2529   3.732   1.255   8.966 -0.5692  2.1612  1.4755
   19SAPC  C313 2530   3.795   1.294   8.768  0.4054 -0.0148  0.0639
   19SAPC  H13X 2531   3.837   1.193   8.743  0.6105  0.0863 -0.0050
   19SAPC  H13Y 2532   3.850   1.371   8.709 -2.5656  0.6155 -2.0992
   19SAPC  C314 2533   3.653   1.283   8.728 -0.3940  0.7541  0.2137
   19SAPC  H14X 2534   3.589   1.354   8.783  1.3976  0.2582  3.1682
   19SAPC  H14Y 2535   3.613   1.180   8.745 -0.3586  0.4968 -1.1552
   19SAPC  C315 2536   3.628   1.283   8.579 -0.2199 -0.0204 -0.3951
   19SAPC  H15X 2537   3.679   1.195   8.534  0.6434  0.1572  0.2047
   19SAPC  H15Y 2538   3.678   1.373   8.536  0.4336  0.5459  1.4497
   19SAPC  C316 2539   3.479   1.289   8.537  0.5288  0.2386 -0.3937
   19SAPC  H16X 2540   3.482   1.318   8.430 -0.7470 -1.0972 -0.8204
   19SAPC  H16Y 2541   3.427   1.379   8.576 -1.0936 -0.2705 -1.2794
   19SAPC  C317 2542   3.399   1.160   8.543 -0.2118 -0.8033  0.0357
   19SAPC  H17X 2543   3.293   1.176   8.515 -0.8672 -0.0721  2.6895
   19SAPC  H17Y 2544   3.393   1.148   8.653  1.0240  2.0347  0.5189
   19SAPC  C318 2545   3.458   1.052   8.460 -0.3030 -0.6368  0.8705
   19SAPC  H18X 2546   3.544   1.004   8.512 -0.1518  0.3511  1.5551
   19SAPC  H18Y 2547   3.489   1.068   8.355 -3.5002 -2.5524 -0.5161
   19SAPC  H18Z 2548   3.380   0.975   8.440  0.4258 -0.8360 -1.5729
   20SAPC     N 2549   2.618   4.929  11.027 -0.7166 -0.0138  0.4783
   20SAPC   C12 2550   2.748   4.920  10.942 -0.3596 -0.1725 -0.3208
   20SAPC  H12A 2551   2.763   5.020  10.902 -0.5966  0.5581  1.3217
   20SAPC  H12B 2552   2.739   4.848  10.863  1.6123 -2.7539  1.6233
   20SAPC   C13 2553   2.594   4.801  11.102  0.4845 -0.2339  0.4238
   20SAPC  H13A 2554   2.502   4.810  11.158 -0.9824 -0.4578 -1.8636
   20SAPC  H13B 2555   2.570   4.719  11.037 -0.9637 -0.2664  0.9737
   20SAPC  H13C 2556   2.685   4.780  11.157 -0.1724 -0.8301  1.3137
   20SAPC   C14 2557   2.607   5.053  11.117 -0.0762  0.3906 -0.2712
   20SAPC  H14A 2558   2.515   5.049  11.173  0.6218 -1.6378  0.8298
   20SAPC  H14B 2559   2.692   5.067  11.182 -1.3692  2.0777  1.1589
   20SAPC  H14C 2560   2.614   5.140  11.053  0.9311 -0.1932 -0.9955
   20SAPC   C15 2561   2.506   4.949  10.931  0.4277 -0.7626 -0.4904
   20SAPC  H15A 2562   2.509   5.042  10.876  1.4205 -1.7130 -2.1304
   20SAPC  H15B 2563   2.501   4.873  10.854 -2.6193  0.5699 -1.7904
   20SAPC  H15C 2564   2.411   4.950  10.982  0.7366 -1.1845  0.1133
   20SAPC   C11 2565   2.882   4.887  11.013  0.0049  0.1000  0.1706
   20SAPC  H11A 2566   2.871   4.956  11.099 -1.8114  1.4331 -1.0542
   20SAPC  H11B 2567   2.969   4.917  10.950  0.3662 -4.0025 -1.6421
   20SAPC     P 2568   2.912   4.638  10.941 -0.5110  0.1309  0.0902
   20SAPC   O13 2569   3.020   4.547  10.995  0.3938  0.1310  0.1781
   20SAPC   O14 2570   2.785   4.588  10.888 -0.3678  0.6254 -0.1040
   20SAPC   O12 2571   2.896   4.748  11.057  0.4422  0.3497  0.3817
   20SAPC   O11 2572   2.973   4.724  10.827  0.2027  0.4385  0.2491
   20SAPC    C1 2573   3.043   4.665  10.718  0.1467 -1.0771 -0.0860
   20SAPC    HA 2574   3.146   4.704  10.704 -0.8564  1.3383 -1.2427
   20SAPC    HB 2575   3.060   4.555  10.725  0.6115 -0.8932  2.6123
   20SAPC    C2 2576   2.969   4.696  10.591 -0.2698 -0.0887  0.4161
   20SAPC    HS 2577   2.876   4.637  10.575  0.5249 -1.2035 -0.2391
   20SAPC   O21 2578   3.054   4.662  10.477  0.0457  1.0654 -0.0407
   20SAPC   C21 2579   3.053   4.536  10.432 -0.6616  0.4518  0.0978
   20SAPC   O22 2580   2.985   4.443  10.470 -0.1337 -0.2822  0.0767
   20SAPC   C22 2581   3.166   4.528  10.340 -0.0236  0.4787  0.2148
   20SAPC   H2R 2582   3.234   4.615  10.334  1.2686 -0.4781  0.7096
   20SAPC   H2S 2583   3.235   4.447  10.372  1.6672  1.9236  0.3694
   20SAPC    C3 2584   2.931   4.846  10.580 -0.2050  0.4147  0.1120
   20SAPC    HX 2585   3.026   4.904  10.587  0.2975 -0.1838 -1.2975
   20SAPC    HY 2586   2.869   4.878  10.666 -0.6361  1.0416 -0.4236
   20SAPC   O31 2587   2.858   4.879  10.458 -0.4284  0.6287  0.1172
   20SAPC   C31 2588   2.922   4.945  10.356 -0.3387 -0.1228  0.2293
   20SAPC   O32 2589   3.040   4.953  10.338 -0.2579 -0.4169 -0.2694
   20SAPC   C32 2590   2.823   4.979  10.254 -0.2399 -0.3810 -0.1709
   20SAPC   H2X 2591   2.724   4.991  10.303  0.3349 -0.1987  0.9799
   20SAPC   H2Y 2592   2.816   4.882  10.199  0.5318 -0.7431  0.3529
   20SAPC   C23 2593   3.111   4.489  10.205  0.2223  0.0083 -0.1845
   20SAPC   H3R 2594   3.047   4.399  10.216 -1.4003  1.3423  2.1723
   20SAPC   H3S 2595   3.197   4.449  10.147  0.7722  1.6512 -0.5507
   20SAPC   C24 2596   3.043   4.598  10.125 -0.0757 -0.7389 -0.7867
   20SAPC   H4R 2597   2.959   4.640  10.185  3.1983  1.8431  2.4085
   20SAPC   H4S 2598   3.013   4.546  10.031  0.5718 -2.3390 -0.1476
   20SAPC   C25 2599   3.124   4.725  10.089  0.0266 -0.4504 -0.1545
   20SAPC   H5R 2600   3.183   4.775  10.167 -1.4091  0.5735  0.3173
   20SAPC   C26 2601   3.140   4.773   9.963  0.7586 -0.7143 -0.2144
   20SAPC   H6R 2602   3.211   4.855   9.949  0.0861 -0.3213 -1.5551
   20SAPC   C27 2603   3.075   4.712   9.847  0.3119  0.1379  0.1227
   20SAPC   H7R 2604   3.056   4.792   9.772 -2.4785 -0.6005 -0.0916
   20SAPC   H7S 2605   2.969   4.693   9.874 -0.0405 -0.4542 -1.5516
   20SAPC   C28 2606   3.135   4.587   9.782  0.1392  0.1012 -0.4949
   20SAPC   H8R 2607   3.191   4.529   9.857  0.8029  1.1381 -0.1686
   20SAPC   C29 2608   3.109   4.540   9.655 -0.1924  0.2756 -0.0452
   20SAPC   H9R 2609   3.135   4.437   9.626 -0.2644  0.5429 -1.0716
   20SAPC  C210 2610   3.033   4.618   9.551 -0.4232 -0.2587  0.1643
   20SAPC  H10R 2611   2.978   4.699   9.604  1.1603 -0.7308  2.7282
   20SAPC  H10S 2612   2.968   4.545   9.498 -2.4539  1.4948  0.0697
   20SAPC  C211 2613   3.133   4.669   9.444 -0.4626 -0.4533 -1.0075
   20SAPC  H11R 2614   3.177   4.765   9.476 -3.2552  0.9019 -0.9547
   20SAPC  C212 2615   3.162   4.622   9.318 -0.5259 -0.3499  0.1423
   20SAPC  H12R 2616   3.207   4.692   9.246 -0.6308 -0.5687 -0.1373
   20SAPC  C213 2617   3.108   4.497   9.261  0.1516  0.1834  0.2632
   20SAPC  H13R 2618   3.072   4.432   9.344 -1.3158  0.7052  0.0534
   20SAPC  H13S 2619   3.203   4.449   9.228 -0.1546 -0.3230  0.1207
   20SAPC  C214 2620   3.004   4.495   9.147 -0.4717 -0.3720 -0.4785
   20SAPC  H14R 2621   2.909   4.540   9.179  0.4819  0.1950  1.7860
   20SAPC  C215 2622   3.033   4.464   9.018 -0.1884  0.6393  0.4650
   20SAPC  H15R 2623   2.944   4.461   8.953 -0.9294  0.3459  1.4735
   20SAPC  C216 2624   3.165   4.421   8.958  0.5954 -0.0827 -0.5612
   20SAPC  H16R 2625   3.195   4.317   8.987  2.6577  1.1055  1.9610
   20SAPC  H16S 2626   3.248   4.485   8.994 -1.2175  1.4027  1.2094
   20SAPC  C217 2627   3.151   4.423   8.801  0.0067 -0.1451  0.0788
   20SAPC  H17R 2628   3.076   4.349   8.767 -1.7805  1.6695 -0.1721
   20SAPC  H17S 2629   3.243   4.380   8.758 -0.1458 -0.6989  0.3013
   20SAPC  C218 2630   3.131   4.565   8.747 -0.3151  0.1107 -0.1106
   20SAPC  H18R 2631   3.222   4.611   8.793 -0.5707  1.5638 -1.0179
   20SAPC  H18S 2632   3.039   4.617   8.781 -0.3114 -0.5168  0.9293
   20SAPC  C219 2633   3.135   4.587   8.593  0.5688  0.0497 -0.6385
   20SAPC  H19R 2634   3.038   4.549   8.557 -0.5971  1.1988  1.1291
   20SAPC  H19S 2635   3.224   4.527   8.562  1.4154  1.0966 -0.3078
   20SAPC  C220 2636   3.166   4.734   8.555  0.3884 -0.6352 -0.0063
   20SAPC  H20R 2637   3.077   4.798   8.535  1.4347  0.2457 -2.2656
   20SAPC  H20S 2638   3.205   4.735   8.451 -1.2906  1.6413 -0.7015
   20SAPC  H20T 2639   3.229   4.779   8.635  0.4171  1.4234 -1.1252
   20SAPC   C33 2640   2.843   5.093  10.150  1.6147 -0.5659  0.2764
   20SAPC   H3X 2641   2.884   5.185  10.196 -1.0665 -0.1620  2.0554
   20SAPC   H3Y 2642   2.741   5.122  10.118  0.2042 -5.0548 -0.1105
   20SAPC   C34 2643   2.933   5.063  10.035 -0.9566  0.2485  0.0769
   20SAPC   H4X 2644   2.898   4.972   9.981 -0.3000 -0.6771  1.1434
   20SAPC   H4Y 2645   3.034   5.040  10.075 -0.9589 -1.7108 -0.9087
   20SAPC   C35 2646   2.956   5.178   9.934  0.3013  0.2179  0.1896
   20SAPC   H5X 2647   2.987   5.261  10.001  2.7030 -0.2113 -0.2959
   20SAPC   H5Y 2648   2.859   5.195   9.881  0.8413 -2.6113 -1.8946
   20SAPC   C36 2649   3.055   5.147   9.820  0.0410  0.4705  0.1582
   20SAPC   H6X 2650   3.032   5.046   9.779 -1.4217 -0.1280  2.2857
   20SAPC   H6Y 2651   3.159   5.156   9.858 -1.0478  3.9591  2.8051
   20SAPC   C37 2652   3.039   5.253   9.707  0.1543 -0.3089 -0.0960
   20SAPC   H7X 2653   3.038   5.355   9.749  1.7319 -0.6620  0.8731
   20SAPC   H7Y 2654   2.937   5.244   9.665  0.2076 -0.4154 -0.2050
   20SAPC   C38 2655   3.135   5.233   9.592  0.0439 -0.8545  0.7545
   20SAPC   H8X 2656   3.135   5.122   9.580  1.2176 -0.7050 -1.2438
   20SAPC   H8Y 2657   3.241   5.261   9.608  1.1794 -2.0560 -3.3795
   20SAPC   C39 2658   3.090   5.294   9.459  0.3216 -0.0924  0.1819
   20SAPC   H9X 2659   3.098   5.405   9.463 -1.2995  0.0233  0.8536
   20SAPC   H9Y 2660   2.984   5.272   9.433 -0.4474  1.4510  1.7770
   20SAPC  C310 2661   3.184   5.247   9.343 -0.2088 -0.5230  0.0672
   20SAPC  H10X 2662   3.208   5.138   9.350  1.1328 -0.2119  0.6658
   20SAPC  H10Y 2663   3.282   5.298   9.358 -0.3536 -0.0184 -0.6633
   20SAPC  C311 2664   3.136   5.281   9.205  0.2402  0.5278 -0.0019
   20SAPC  H11X 2665   3.072   5.195   9.176 -0.2747  1.0187 -0.3656
   20SAPC  H11Y 2666   3.227   5.289   9.141  0.7862  1.9338  0.9100
   20SAPC  C312 2667   3.066   5.414   9.200  0.0477  0.7163  0.7004
   20SAPC  H12X 2668   3.124   5.475   9.273  0.1394  1.1538  0.2717
   20SAPC  H12Y 2669   2.959   5.397   9.226 -0.1618 -1.5132 -1.3162
   20SAPC  C313 2670   3.070   5.491   9.070 -0.0934 -0.4999 -0.5282
   20SAPC  H13X 2671   3.021   5.437   8.986 -3.9428  1.5420  0.1416
   20SAPC  H13Y 2672   3.176   5.511   9.044 -0.1500  2.6438  1.1845
   20SAPC  C314 2673   3.001   5.620   9.091 -0.1785  0.7571 -0.1257
   20SAPC  H14X 2674   3.058   5.691   9.155  0.2720  1.0394 -0.8288
   20SAPC  H14Y 2675   2.905   5.598   9.142  0.3290 -1.3804  0.0117
   20SAPC  C315 2676   3.000   5.690   8.954  0.1153  0.7191 -0.8592
   20SAPC  H15X 2677   2.966   5.610   8.884 -0.5768 -0.0374  0.3059
   20SAPC  H15Y 2678   3.109   5.703   8.937  0.8039 -1.8519  1.0412
   20SAPC  C316 2679   2.912   5.817   8.957  0.6667 -0.0344 -0.5658
   20SAPC  H16X 2680   2.818   5.778   9.001  2.0309 -1.0939  1.6455
   20SAPC  H16Y 2681   2.899   5.851   8.853 -2.3166  0.9036  0.0260
   20SAPC  C317 2682   2.967   5.935   9.040 -0.9737 -0.2225  0.0801
   20SAPC  H17X 2683   3.054   5.981   8.989 -1.2674  1.3989  0.9536
   20SAPC  H17Y 2684   3.002   5.893   9.136  1.0941  1.9016  0.3385
   20SAPC  C318 2685   2.867   6.051   9.076 -0.7711  0.0546 -0.0218
   20SAPC  H18X 2686   2.819   6.099   8.988 -2.4454 -0.1631  0.7306
   20SAPC  H18Y 2687   2.918   6.126   9.140 -1.6069 -0.7439  1.6224
   20SAPC  H18Z 2688   2.786   6.010   9.139  1.3383 -0.9042  2.2355
   21SAPC     N 2689   2.556   3.035  10.912 -0.3158  0.8041 -0.5934
   21SAPC   C12 2690   2.470   3.132  10.982 -0.0610 -0.5989 -0.7125
   21SAPC  H12A 2691   2.508   3.132  11.083  1.4133 -0.8367 -1.2514
   21SAPC  H12B 2692   2.368   3.099  10.995  0.4015 -1.5844  0.4915
   21SAPC   C13 2693   2.555   2.908  10.991 -0.1941 -0.4604 -0.0539
   21SAPC  H13A 2694   2.646   2.854  10.969 -0.1662 -0.1668 -0.6769
   21SAPC  H13B 2695   2.558   2.927  11.097 -1.9485 -1.6510  0.2407
   21SAPC  H13C 2696   2.461   2.856  10.985 -1.3974  1.1346  2.8360
   21SAPC   C14 2697   2.499   3.005  10.777  0.1683 -0.2130 -0.1136
   21SAPC  H14A 2698   2.543   2.921  10.727 -1.8449 -0.2001 -2.0600
   21SAPC  H14B 2699   2.394   2.980  10.769  0.0741  0.2561 -0.3646
   21SAPC  H14C 2700   2.495   3.089  10.710  0.1336  1.1109  1.4638
   21SAPC   C15 2701   2.697   3.085  10.903 -0.1110 -0.7587 -0.4637
   21SAPC  H15A 2702   2.727   3.114  11.002 -0.8231 -2.5532  0.3198
   21SAPC  H15B 2703   2.772   3.026  10.853  0.8100 -0.6576  0.7601
   21SAPC  H15C 2704   2.697   3.182  10.855  1.7825  0.5406  1.9496
   21SAPC   C11 2705   2.470   3.280  10.930 -0.3231  0.0155  0.4758
   21SAPC  H11A 2706   2.394   3.330  10.993 -0.9687  0.0717 -0.3320
   21SAPC  H11B 2707   2.433   3.274  10.825  2.8670  0.4005 -0.7961
   21SAPC     P 2708   2.619   3.467  10.836 -0.1885 -0.4983 -0.2036
   21SAPC   O13 2709   2.498   3.549  10.825  0.2781 -0.0698  0.7258
   21SAPC   O14 2710   2.738   3.543  10.882  0.6559 -0.4427  0.4296
   21SAPC   O12 2711   2.595   3.351  10.938 -0.2777  0.0738  0.0520
   21SAPC   O11 2712   2.636   3.379  10.703 -0.4857  0.3992 -0.1468
   21SAPC    C1 2713   2.760   3.309  10.664  0.7155  0.3934 -1.0302
   21SAPC    HA 2714   2.820   3.277  10.752  0.7114  0.0794 -1.1408
   21SAPC    HB 2715   2.717   3.223  10.610  0.2476  0.0837 -0.1812
   21SAPC    C2 2716   2.843   3.406  10.572 -0.4163 -0.1161 -0.3046
   21SAPC    HS 2717   2.878   3.479  10.648  0.7268 -1.1313  0.1799
   21SAPC   O21 2718   2.756   3.462  10.477 -0.0883  0.0836  0.0578
   21SAPC   C21 2719   2.803   3.567  10.410 -0.4868  0.3108  0.0015
   21SAPC   O22 2720   2.894   3.641  10.442 -0.8021  0.5915  0.2025
   21SAPC   C22 2721   2.722   3.596  10.290  0.3393  0.0922  0.2023
   21SAPC   H2R 2722   2.706   3.506  10.226 -0.1588  1.1786 -1.2659
   21SAPC   H2S 2723   2.615   3.602  10.320  0.3340 -1.1616  0.4702
   21SAPC    C3 2724   2.972   3.337  10.506  0.2468 -0.0320  0.4076
   21SAPC    HX 2725   3.018   3.275  10.586  2.2456  0.6816 -0.1315
   21SAPC    HY 2726   3.042   3.419  10.481 -0.3033  0.6971  1.1835
   21SAPC   O31 2727   2.938   3.268  10.389  0.2845 -0.5184  0.3079
   21SAPC   C31 2728   3.003   3.150  10.369 -0.2312 -0.2062  0.2327
   21SAPC   O32 2729   3.098   3.107  10.437 -0.1429 -0.3979 -0.3479
   21SAPC   C32 2730   2.969   3.085  10.237 -0.1760 -0.7956  0.4182
   21SAPC   H2X 2731   2.861   3.057  10.246  0.2218 -2.4589  0.3164
   21SAPC   H2Y 2732   3.022   2.988  10.226 -1.7549 -2.0837  3.1099
   21SAPC   C23 2733   2.777   3.716  10.198 -0.7377 -0.0883  0.5643
   21SAPC   H3R 2734   2.853   3.778  10.250 -0.1164  0.2517 -0.6952
   21SAPC   H3S 2735   2.685   3.773  10.171  0.9142  2.0774 -0.8267
   21SAPC   C24 2736   2.834   3.670  10.059  0.8908  0.8077  0.5503
   21SAPC   H4R 2737   2.768   3.595  10.009  1.7089  0.6941 -0.3989
   21SAPC   H4S 2738   2.925   3.617  10.093  2.4635  2.5954 -0.6972
   21SAPC   C25 2739   2.880   3.785   9.973  0.2309  0.1034 -0.1691
   21SAPC   H5R 2740   2.811   3.870   9.972 -0.5576 -0.5154 -1.7052
   21SAPC   C26 2741   3.009   3.792   9.918 -0.0037 -0.1686  0.0298
   21SAPC   H6R 2742   3.044   3.875   9.855 -1.2530 -0.7279 -1.4937
   21SAPC   C27 2743   3.113   3.683   9.932  0.6777  0.2847 -0.2327
   21SAPC   H7R 2744   3.169   3.657   9.839 -0.2509  0.1315 -0.7597
   21SAPC   H7S 2745   3.053   3.590   9.945  0.7897 -0.1154 -2.3082
   21SAPC   C28 2746   3.214   3.707  10.040  0.3795  0.1519 -0.7166
   21SAPC   H8R 2747   3.258   3.807  10.051  0.4484  0.2828 -2.0574
   21SAPC   C29 2748   3.263   3.610  10.124 -0.1387  0.2933  0.1456
   21SAPC   H9R 2749   3.344   3.633  10.194  0.4856 -1.2315 -0.0382
   21SAPC  C210 2750   3.227   3.461  10.127  0.4596  0.4198 -0.2808
   21SAPC  H10R 2751   3.136   3.434  10.069 -0.3789 -1.1663  1.6426
   21SAPC  H10S 2752   3.173   3.446  10.223  0.3307 -0.9114 -0.5346
   21SAPC  C211 2753   3.338   3.359  10.118  0.0510 -0.4687  0.0041
   21SAPC  H11R 2754   3.388   3.331  10.213 -0.2553 -0.8115  0.0636
   21SAPC  C212 2755   3.395   3.311  10.008 -0.2024  0.2659 -0.2631
   21SAPC  H12R 2756   3.481   3.243  10.023  1.6129  2.0588 -2.0554
   21SAPC  C213 2757   3.353   3.351   9.866 -0.6067  0.0296  0.2256
   21SAPC  H13R 2758   3.390   3.453   9.841  2.2634 -1.0958 -0.5889
   21SAPC  H13S 2759   3.244   3.368   9.863 -0.3305  2.1635  0.8282
   21SAPC  C214 2760   3.393   3.249   9.759  0.5322  0.1209  0.0791
   21SAPC  H14R 2761   3.434   3.152   9.791  1.1454 -0.0237 -1.0906
   21SAPC  C215 2762   3.393   3.262   9.627  1.3695 -0.1189  0.6112
   21SAPC  H15R 2763   3.405   3.174   9.563  1.2849  0.0111  0.4159
   21SAPC  C216 2764   3.350   3.387   9.540  0.4017 -0.2673  0.5296
   21SAPC  H16R 2765   3.431   3.428   9.476 -1.4721  2.1180 -0.4450
   21SAPC  H16S 2766   3.313   3.467   9.607 -2.4300 -0.3680 -0.7941
   21SAPC  C217 2767   3.225   3.356   9.449 -0.4605 -0.4843  0.5287
   21SAPC  H17R 2768   3.190   3.456   9.416  0.2341  0.5303  2.6767
   21SAPC  H17S 2769   3.138   3.322   9.509 -1.3413  3.5994  1.8506
   21SAPC  C218 2770   3.252   3.261   9.339  0.2174 -0.2525 -0.0186
   21SAPC  H18R 2771   3.293   3.161   9.367 -0.3137 -1.0015 -1.7758
   21SAPC  H18S 2772   3.333   3.297   9.272  0.3977  0.4005  0.5425
   21SAPC  C219 2773   3.131   3.255   9.247  0.5063 -0.3787  0.4286
   21SAPC  H19R 2774   3.146   3.178   9.168  1.1118 -0.2169  0.3871
   21SAPC  H19S 2775   3.112   3.348   9.188 -0.4814 -0.6587  0.2876
   21SAPC  C220 2776   2.997   3.215   9.302 -0.4727 -1.3013 -0.0242
   21SAPC  H20R 2777   2.928   3.198   9.216  2.1288  0.1120 -2.5718
   21SAPC  H20S 2778   2.953   3.290   9.371  0.7056 -2.2753  1.8436
   21SAPC  H20T 2779   3.005   3.118   9.354 -0.2994  0.0543  2.6779
   21SAPC   C33 2780   2.990   3.175  10.119 -0.2882 -0.6658 -0.1139
   21SAPC   H3X 2781   3.097   3.187  10.091  0.3601 -1.0081  2.0617
   21SAPC   H3Y 2782   2.948   3.278  10.128  0.1797 -0.2222 -2.3815
   21SAPC   C34 2783   2.909   3.129   9.994 -0.4288  0.5678  0.2068
   21SAPC   H4X 2784   2.802   3.143  10.019 -1.1133 -2.4838 -0.5015
   21SAPC   H4Y 2785   2.926   3.020   9.981 -0.5554  0.2526  2.2412
   21SAPC   C35 2786   2.938   3.199   9.855 -0.5375  0.4968  0.5945
   21SAPC   H5X 2787   2.876   3.136   9.788 -0.2127  0.0623  0.7026
   21SAPC   H5Y 2788   3.044   3.186   9.826 -0.5263 -1.2544  1.3101
   21SAPC   C36 2789   2.891   3.340   9.851  0.4496  0.0101  0.5321
   21SAPC   H6X 2790   2.943   3.409   9.922  0.0508  0.1276  0.7121
   21SAPC   H6Y 2791   2.783   3.348   9.878 -0.1560 -0.5367 -1.5697
   21SAPC   C37 2792   2.890   3.394   9.704  1.2044  0.2693 -0.9029
   21SAPC   H7X 2793   2.842   3.319   9.638  0.8823 -0.0037 -0.3617
   21SAPC   H7Y 2794   2.999   3.405   9.685  1.0067  2.2700 -1.0775
   21SAPC   C38 2795   2.821   3.527   9.706 -0.6105  0.3828 -0.9057
   21SAPC   H8X 2796   2.872   3.592   9.780 -0.2297  0.1110 -0.9227
   21SAPC   H8Y 2797   2.720   3.511   9.749 -0.3259 -0.8640 -0.6692
   21SAPC   C39 2798   2.820   3.607   9.572 -1.3936  0.1508 -0.0882
   21SAPC   H9X 2799   2.776   3.707   9.589 -0.5240  0.4314  0.6006
   21SAPC   H9Y 2800   2.749   3.551   9.508 -3.5359 -0.4054  2.5923
   21SAPC  C310 2801   2.961   3.604   9.508  0.4188  0.4156  0.7427
   21SAPC  H10X 2802   2.997   3.499   9.502  0.9128  0.5799  0.7458
   21SAPC  H10Y 2803   3.030   3.664   9.572  3.1382 -0.3994 -1.2463
   21SAPC  C311 2804   2.965   3.658   9.369 -0.3524  0.1750  0.9569
   21SAPC  H11X 2805   3.067   3.654   9.323 -1.7595  1.3658 -2.5990
   21SAPC  H11Y 2806   2.949   3.768   9.359  0.7223  0.3135  0.4888
   21SAPC  C312 2807   2.877   3.587   9.268  0.8091  0.4534 -0.0518
   21SAPC  H12X 2808   2.773   3.621   9.288  0.7044  0.3374 -0.3983
   21SAPC  H12Y 2809   2.889   3.477   9.268  3.0235  0.6281  1.3535
   21SAPC  C313 2810   2.908   3.631   9.126 -0.0327 -0.7746 -0.4006
   21SAPC  H13X 2811   3.015   3.609   9.107  1.2034  2.0227  2.3235
   21SAPC  H13Y 2812   2.900   3.742   9.124  2.4880 -0.5183  0.6250
   21SAPC  C314 2813   2.817   3.583   9.013  0.2237  0.3378  0.4355
   21SAPC  H14X 2814   2.863   3.612   8.916 -0.2548 -2.0506 -0.6010
   21SAPC  H14Y 2815   2.715   3.627   9.021  0.1756  0.4368 -0.6332
   21SAPC  C315 2816   2.810   3.428   9.007  0.2708 -0.7989 -1.4721
   21SAPC  H15X 2817   2.761   3.391   9.100 -0.3990 -0.2497 -1.6001
   21SAPC  H15Y 2818   2.915   3.391   9.008  1.7500  2.5203  3.5434
   21SAPC  C316 2819   2.728   3.371   8.893  0.1817  0.2555  0.4333
   21SAPC  H16X 2820   2.622   3.400   8.904 -0.6717 -2.1841 -0.6699
   21SAPC  H16Y 2821   2.734   3.261   8.909 -0.8605  0.4981  2.9695
   21SAPC  C317 2822   2.769   3.411   8.753 -0.1761  0.1923  0.0834
   21SAPC  H17X 2823   2.762   3.329   8.679  0.0334 -0.6116  0.9346
   21SAPC  H17Y 2824   2.875   3.442   8.740 -1.2598  3.2734 -2.9569
   21SAPC  C318 2825   2.693   3.532   8.691 -0.8688 -0.5782 -0.3910
   21SAPC  H18X 2826   2.586   3.506   8.678 -1.1676  0.2738  0.2733
   21SAPC  H18Y 2827   2.724   3.552   8.586 -0.8657  0.1241 -0.2624
   21SAPC  H18Z 2828   2.690   3.621   8.757  3.0169 -1.0257  0.6526
   22SAPC     N 2829   3.670   0.941  10.975  0.3609  0.4154  0.2067
   22SAPC   C12 2830   3.571   0.863  10.894 -0.2654  0.2425 -0.3250
   22SAPC  H12A 2831   3.482   0.826  10.943  1.5198 -2.8483  0.8807
   22SAPC  H12B 2832   3.616   0.768  10.870 -0.2618  0.1712 -0.0308
   22SAPC   C13 2833   3.675   0.881  11.111  0.5832 -0.3287  0.0785
   22SAPC  H13A 2834   3.760   0.815  11.119  1.6385  0.7797 -1.5915
   22SAPC  H13B 2835   3.681   0.968  11.175 -2.4288  0.5615 -0.6753
   22SAPC  H13C 2836   3.578   0.837  11.128  0.4593  0.0267  0.3030
   22SAPC   C14 2837   3.800   0.951  10.910 -0.0781  0.2941 -0.2198
   22SAPC  H14A 2838   3.786   1.023  10.831  0.0051  1.7364  1.0269
   22SAPC  H14B 2839   3.876   0.987  10.978 -1.2101 -1.0780  1.9059
   22SAPC  H14C 2840   3.842   0.860  10.869 -1.5855  0.1601 -1.5672
   22SAPC   C15 2841   3.617   1.077  10.992  0.1586  0.0680 -0.7068
   22SAPC  H15A 2842   3.653   1.123  11.083  0.8750 -1.4575 -0.1938
   22SAPC  H15B 2843   3.636   1.148  10.912 -3.2018  1.8532 -0.1218
   22SAPC  H15C 2844   3.510   1.080  11.005  0.1292 -1.5871 -0.3653
   22SAPC   C11 2845   3.541   0.931  10.757  0.4727 -0.3992  0.4488
   22SAPC  H11A 2846   3.503   1.035  10.770  0.5545 -0.2539 -0.3790
   22SAPC  H11B 2847   3.458   0.876  10.709 -0.1389 -0.4443  1.5279
   22SAPC     P 2848   3.699   0.795  10.603  0.0574  0.1003  0.6437
   22SAPC   O13 2849   3.845   0.799  10.597  0.0525  0.4217 -0.7545
   22SAPC   O14 2850   3.642   0.678  10.676 -0.4659  0.3310  0.0741
   22SAPC   O12 2851   3.649   0.930  10.665  0.5042  0.4735 -0.0905
   22SAPC   O11 2852   3.642   0.796  10.453 -0.6757 -0.5947 -0.1519
   22SAPC    C1 2853   3.522   0.870  10.421 -0.8105  0.7816 -0.3293
   22SAPC    HA 2854   3.433   0.808  10.446  0.0710  0.2403  1.6822
   22SAPC    HB 2855   3.514   0.963  10.482  1.8839  1.1738 -0.4475
   22SAPC    C2 2856   3.512   0.896  10.265  0.1206  0.2305  0.8218
   22SAPC    HS 2857   3.497   0.795  10.221 -0.6002  0.5648  0.2790
   22SAPC   O21 2858   3.631   0.967  10.230  0.1825 -0.2089  0.2019
   22SAPC   C21 2859   3.669   0.939  10.110 -0.4932  0.5007  0.2428
   22SAPC   O22 2860   3.619   0.859  10.030  0.0221 -0.7452 -0.0386
   22SAPC   C22 2861   3.800   1.002  10.086 -0.2986 -0.1910  0.2249
   22SAPC   H2R 2862   3.780   1.111  10.083  1.2227  0.1232  0.6952
   22SAPC   H2S 2863   3.874   0.980  10.166 -0.9311  1.8251  1.4426
   22SAPC    C3 2864   3.387   0.974  10.239 -0.6302 -0.1759  0.2515
   22SAPC    HX 2865   3.404   1.071  10.290 -0.3872  0.3421 -0.7923
   22SAPC    HY 2866   3.292   0.926  10.271 -1.2484 -0.0225 -1.2578
   22SAPC   O31 2867   3.377   1.006  10.093 -0.4260  0.4062  0.1796
   22SAPC   C31 2868   3.317   0.910  10.026 -0.0814 -0.3680  0.2021
   22SAPC   O32 2869   3.280   0.804  10.073  0.0434  0.4660  0.2859
   22SAPC   C32 2870   3.316   0.935   9.875  0.1992  0.2058 -0.0378
   22SAPC   H2X 2871   3.419   0.959   9.840  0.0195  0.7108 -0.2160
   22SAPC   H2Y 2872   3.255   1.026   9.863  0.1385  0.2609  0.6761
   22SAPC   C23 2873   3.861   0.951   9.952  0.2451 -0.7412  0.2159
   22SAPC   H3R 2874   3.859   0.840   9.956 -0.4443 -0.8049 -1.2949
   22SAPC   H3S 2875   3.963   0.994   9.953 -0.2562  0.6329 -1.8925
   22SAPC   C24 2876   3.783   1.005   9.833  0.3646  0.6779 -0.1677
   22SAPC   H4R 2877   3.781   1.116   9.838  1.1944  0.6601  1.0464
   22SAPC   H4S 2878   3.678   0.969   9.837  0.3368  0.6342 -1.0996
   22SAPC   C25 2879   3.828   0.968   9.696  0.1658  0.2393  0.4227
   22SAPC   H5R 2880   3.929   1.007   9.673 -0.7045  2.0598 -0.5093
   22SAPC   C26 2881   3.760   0.909   9.598  0.4634 -0.1744  0.0379
   22SAPC   H6R 2882   3.816   0.880   9.508  0.1824  0.7382 -0.4453
   22SAPC   C27 2883   3.613   0.863   9.605 -0.1875  0.2353 -0.1705
   22SAPC   H7R 2884   3.554   0.957   9.609 -1.5547 -0.6597  1.5370
   22SAPC   H7S 2885   3.585   0.811   9.699 -1.9261 -0.3358 -0.9732
   22SAPC   C28 2886   3.585   0.767   9.495  0.9543  0.4362  0.5624
   22SAPC   H8R 2887   3.589   0.663   9.530  1.8307  0.9176  1.9522
   22SAPC   C29 2888   3.553   0.799   9.369 -0.4958 -0.1274  0.0887
   22SAPC   H9R 2889   3.537   0.715   9.299  2.6572 -1.4363  0.7488
   22SAPC  C210 2890   3.553   0.936   9.312  0.2081 -0.0260 -0.1892
   22SAPC  H10R 2891   3.585   1.010   9.389 -0.2208 -0.2249  0.1898
   22SAPC  H10S 2892   3.447   0.957   9.285 -0.2655 -1.8843  0.0965
   22SAPC  C211 2893   3.642   0.950   9.192 -0.5293  0.3375  0.2642
   22SAPC  H11R 2894   3.748   0.927   9.206 -0.5515  0.9591  1.6294
   22SAPC  C212 2895   3.596   0.990   9.072  0.7906  0.4024  0.1511
   22SAPC  H12R 2896   3.675   0.990   8.995 -0.7297  0.3568 -1.4592
   22SAPC  C213 2897   3.450   1.012   9.024  0.3644  0.3212 -0.4462
   22SAPC  H13R 2898   3.418   1.117   9.038 -2.9769 -0.4320 -1.5224
   22SAPC  H13S 2899   3.382   0.949   9.085  0.2734  0.6844 -0.1727
   22SAPC  C214 2900   3.431   0.978   8.878  0.8398  0.0462  0.0049
   22SAPC  H14R 2901   3.525   0.977   8.821 -0.0334 -1.7750 -1.4950
   22SAPC  C215 2902   3.326   0.944   8.809  0.0265 -0.4799  0.0049
   22SAPC  H15R 2903   3.337   0.921   8.702  0.0887 -1.7373  0.2664
   22SAPC  C216 2904   3.188   0.933   8.861 -0.5706  0.0633 -0.0103
   22SAPC  H16R 2905   3.186   0.953   8.971 -0.0191 -2.0970  0.4446
   22SAPC  H16S 2906   3.155   0.828   8.858  0.1093 -0.1423 -0.4965
   22SAPC  C217 2907   3.075   1.022   8.794 -0.6462  0.4611  0.1915
   22SAPC  H17R 2908   3.050   0.996   8.689 -0.6047 -3.5245  1.0274
   22SAPC  H17S 2909   3.103   1.130   8.803 -0.5851  0.4531  0.1034
   22SAPC  C218 2910   2.950   1.013   8.877 -0.0755 -0.7539 -0.3044
   22SAPC  H18R 2911   2.967   1.063   8.975  1.7915 -1.5173 -0.1939
   22SAPC  H18S 2912   2.921   0.907   8.895 -2.2140  0.0150  1.1608
   22SAPC  C219 2913   2.835   1.086   8.805  0.1109 -0.2148  0.4828
   22SAPC  H19R 2914   2.832   1.035   8.706 -0.2847  1.2565 -0.2850
   22SAPC  H19S 2915   2.861   1.191   8.780 -3.4808  0.6866 -0.0793
   22SAPC  C220 2916   2.703   1.079   8.873 -0.2060 -0.2354 -0.3681
   22SAPC  H20R 2917   2.687   0.982   8.924  0.3229  1.1189  2.5482
   22SAPC  H20S 2918   2.617   1.110   8.808  0.1590  0.6206 -0.4505
   22SAPC  H20T 2919   2.693   1.154   8.954 -2.0588  2.1159 -2.5860
   22SAPC   C33 2920   3.257   0.811   9.797  0.4176 -0.7176  0.0587
   22SAPC   H3X 2921   3.173   0.780   9.864  1.2063  1.6406  2.2817
   22SAPC   H3Y 2922   3.337   0.734   9.794  2.4595  1.2057  1.8089
   22SAPC   C34 2923   3.227   0.844   9.647 -0.1440 -0.3166 -0.2330
   22SAPC   H4X 2924   3.320   0.887   9.604 -0.1186 -0.3343 -0.1956
   22SAPC   H4Y 2925   3.141   0.914   9.634 -0.6099 -0.9746 -0.7514
   22SAPC   C35 2926   3.178   0.714   9.578 -0.3634 -0.2553  0.1696
   22SAPC   H5X 2927   3.076   0.695   9.618  0.1905 -1.6423  0.9950
   22SAPC   H5Y 2928   3.234   0.621   9.600  0.8255 -0.2884 -2.6516
   22SAPC   C36 2929   3.178   0.738   9.427  0.8635 -0.0548  0.5293
   22SAPC   H6X 2930   3.281   0.760   9.391  0.7987  0.9547  0.9427
   22SAPC   H6Y 2931   3.101   0.816   9.406  0.8132  0.0742  1.1683
   22SAPC   C37 2932   3.148   0.608   9.334 -0.3336 -1.1740  0.6235
   22SAPC   H7X 2933   3.045   0.571   9.353 -1.2050 -0.4179 -2.1797
   22SAPC   H7Y 2934   3.223   0.533   9.368  2.9857  2.1084  1.1333
   22SAPC   C38 2935   3.176   0.637   9.185  0.3605 -0.6216  0.3771
   22SAPC   H8X 2936   3.284   0.624   9.161  0.6859 -0.4337  1.6934
   22SAPC   H8Y 2937   3.140   0.737   9.155 -0.1328 -0.7726  0.4583
   22SAPC   C39 2938   3.098   0.539   9.094  0.3818  0.0184 -0.6057
   22SAPC   H9X 2939   2.991   0.541   9.126  0.4516 -3.0242  0.0547
   22SAPC   H9Y 2940   3.142   0.438   9.099  0.1972 -0.0040  0.9983
   22SAPC  C310 2941   3.101   0.576   8.946  0.4122  0.2526  0.1581
   22SAPC  H10X 2942   3.206   0.586   8.911  0.6610 -0.8335  0.5589
   22SAPC  H10Y 2943   3.048   0.673   8.944  0.5594  0.3618 -2.3544
   22SAPC  C311 2944   3.027   0.476   8.859  0.3156 -0.0860  0.3433
   22SAPC  H11X 2945   2.935   0.441   8.912 -1.5527  1.8745 -1.3908
   22SAPC  H11Y 2946   3.100   0.392   8.853 -0.2058 -0.4262 -2.8722
   22SAPC  C312 2947   2.982   0.536   8.724  0.6312  0.0610 -0.5251
   22SAPC  H12X 2948   3.076   0.562   8.671  0.3242 -0.4144 -1.3279
   22SAPC  H12Y 2949   2.929   0.632   8.743 -2.3072 -0.5165 -4.5839
   22SAPC  C313 2950   2.894   0.440   8.641  0.3516 -0.7304  0.2758
   22SAPC  H13X 2951   2.929   0.336   8.657  0.6128 -0.9255 -1.4510
   22SAPC  H13Y 2952   2.894   0.459   8.532 -0.5466 -3.2062 -0.2188
   22SAPC  C314 2953   2.738   0.449   8.675 -1.1422  0.2646  0.4650
   22SAPC  H14X 2954   2.714   0.553   8.644 -0.7270  0.6125  1.2945
   22SAPC  H14Y 2955   2.740   0.447   8.786  1.0655  0.1105  0.4658
   22SAPC  C315 2956   2.649   0.348   8.607  0.0512  0.3146 -0.0013
   22SAPC  H15X 2957   2.683   0.246   8.634  0.2218 -0.1083 -1.7602
   22SAPC  H15Y 2958   2.656   0.362   8.497  1.2493 -1.8111 -0.2396
   22SAPC  C316 2959   2.498   0.366   8.643 -0.1504 -0.0745 -0.3822
   22SAPC  H16X 2960   2.481   0.362   8.752  0.9861  1.3348 -0.1141
   22SAPC  H16Y 2961   2.451   0.282   8.587 -0.8369  0.1104 -0.0782
   22SAPC  C317 2962   2.444   0.488   8.570 -0.2532 -0.2445 -0.0337
   22SAPC  H17X 2963   2.512   0.515   8.487  2.0364 -2.7514  0.8674
   22SAPC  H17Y 2964   2.466   0.576   8.634  1.6862 -0.3431 -0.4927
   22SAPC  C318 2965   2.303   0.483   8.517  0.4870  0.0510 -0.5280
   22SAPC  H18X 2966   2.291   0.410   8.434  0.0206 -0.1474 -0.2861
   22SAPC  H18Y 2967   2.256   0.582   8.498  0.0685  0.1010  0.6638
   22SAPC  H18Z 2968   2.230   0.461   8.598 -0.9641  3.3778 -0.7548
   23SAPC     N 2969   3.458   3.208  10.615  0.5356 -0.7033 -0.4853
   23SAPC   C12 2970   3.421   3.287  10.738  0.1356  0.5276 -0.0548
   23SAPC  H12A 2971   3.458   3.389  10.737 -2.2782  1.4698 -0.3818
   23SAPC  H12B 2972   3.466   3.243  10.826  1.0874 -0.4404 -1.0012
   23SAPC   C13 2973   3.454   3.065  10.642  0.6237 -0.1675 -0.1865
   23SAPC  H13A 2974   3.498   3.035  10.736 -1.1880 -0.6721  0.5516
   23SAPC  H13B 2975   3.351   3.030  10.647  0.6047 -0.0065  0.6698
   23SAPC  H13C 2976   3.488   3.014  10.553  0.8100  0.1489 -0.2974
   23SAPC   C14 2977   3.371   3.246  10.494 -0.5695 -0.0293  0.1287
   23SAPC  H14A 2978   3.420   3.203  10.409  0.3724 -3.0879  2.0811
   23SAPC  H14B 2979   3.269   3.211  10.504 -1.0272  1.1325 -0.2085
   23SAPC  H14C 2980   3.365   3.354  10.484  0.8188 -0.0062 -0.8471
   23SAPC   C15 2981   3.594   3.240  10.573 -0.2373 -0.1421  0.6554
   23SAPC  H15A 2982   3.628   3.150  10.524 -2.7915  0.6008 -2.8212
   23SAPC  H15B 2983   3.605   3.325  10.509 -1.5969  0.1504  0.7642
   23SAPC  H15C 2984   3.652   3.248  10.664  1.7059  0.9332 -0.6112
   23SAPC   C11 2985   3.265   3.313  10.749  0.7252 -0.2447 -0.1718
   23SAPC  H11A 2986   3.233   3.326  10.855 -0.7635 -2.2988 -0.3153
   23SAPC  H11B 2987   3.211   3.219  10.728 -1.2099  0.6653  0.5443
   23SAPC     P 2988   3.216   3.574  10.724  0.3954 -0.2543 -0.1495
   23SAPC   O13 2989   3.097   3.603  10.798  0.1555 -0.0144 -0.0497
   23SAPC   O14 2990   3.345   3.600  10.796 -0.2155  0.3881 -0.0682
   23SAPC   O12 2991   3.213   3.423  10.667  0.2134 -0.7300  0.1685
   23SAPC   O11 2992   3.220   3.655  10.584  0.4665  0.3240 -0.0314
   23SAPC    C1 2993   3.338   3.649  10.506 -0.1865  0.1385 -0.0555
   23SAPC    HA 2994   3.400   3.559  10.528 -1.5883 -0.8881 -0.1857
   23SAPC    HB 2995   3.310   3.643  10.399 -0.2270  0.8255 -0.0880
   23SAPC    C2 2996   3.422   3.784  10.512 -0.6710 -0.6159 -0.1904
   23SAPC    HS 2997   3.402   3.821  10.615  0.7113 -1.8742  0.5633
   23SAPC   O21 2998   3.385   3.882  10.416  0.1426 -0.2716  0.5221
   23SAPC   C21 2999   3.424   4.008  10.438 -0.4955  0.3656 -0.8536
   23SAPC   O22 3000   3.485   4.050  10.537 -0.6065  0.2502  0.0892
   23SAPC   C22 3001   3.365   4.098  10.326 -0.0947  0.4251  0.3550
   23SAPC   H2R 3002   3.256   4.074  10.322  0.4836 -2.3962 -2.1863
   23SAPC   H2S 3003   3.390   4.198  10.365 -0.2156 -0.0513  1.6949
   23SAPC    C3 3004   3.569   3.753  10.501  0.2380 -0.3962  0.1826
   23SAPC    HX 3005   3.593   3.687  10.587 -2.1849 -0.6257  0.7537
   23SAPC    HY 3006   3.629   3.846  10.503 -0.8251  0.3037  1.6341
   23SAPC   O31 3007   3.585   3.673  10.384 -0.6353 -0.5096 -0.8912
   23SAPC   C31 3008   3.652   3.730  10.276  0.0758 -0.3046 -0.2538
   23SAPC   O32 3009   3.696   3.843  10.282 -0.6236 -0.3508  0.5649
   23SAPC   C32 3010   3.624   3.654  10.145  0.2797  0.2077 -0.3059
   23SAPC   H2X 3011   3.534   3.590  10.157  1.1779 -1.7732 -2.9798
   23SAPC   H2Y 3012   3.719   3.598  10.127 -0.5315 -0.3528 -3.5000
   23SAPC   C23 3013   3.422   4.064  10.190 -0.4899 -0.6678  0.1614
   23SAPC   H3R 3014   3.393   3.963  10.154  2.5485 -1.0925 -1.4066
   23SAPC   H3S 3015   3.531   4.059  10.207 -0.6474 -2.1419  0.9331
   23SAPC   C24 3016   3.389   4.164  10.075  0.3688  0.0793 -0.1334
   23SAPC   H4R 3017   3.446   4.128   9.987  0.0959  0.3731 -0.4324
   23SAPC   H4S 3018   3.430   4.261  10.110  0.3265  0.8320 -2.0345
   23SAPC   C25 3019   3.244   4.173  10.041  0.0077 -0.1204 -0.1245
   23SAPC   H5R 3020   3.172   4.172  10.124  1.6909 -0.1812  1.3869
   23SAPC   C26 3021   3.189   4.175   9.912  0.2204  0.3054  0.5176
   23SAPC   H6R 3022   3.079   4.182   9.914  0.0542 -1.3554  3.8130
   23SAPC   C27 3023   3.253   4.174   9.780 -0.7175  0.3279  0.3577
   23SAPC   H7R 3024   3.352   4.218   9.807 -0.4279  0.1164 -0.3460
   23SAPC   H7S 3025   3.196   4.244   9.716 -0.9962 -0.4415 -0.2496
   23SAPC   C28 3026   3.264   4.043   9.703 -0.4277  0.3102  0.3573
   23SAPC   H8R 3027   3.301   3.960   9.765  1.3892  1.0483  0.3304
   23SAPC   C29 3028   3.229   4.017   9.575 -0.6250  0.1907 -0.0691
   23SAPC   H9R 3029   3.230   3.915   9.533 -3.1436  0.0302  0.0945
   23SAPC  C210 3030   3.190   4.126   9.477  1.0957  0.9044  0.3186
   23SAPC  H10R 3031   3.239   4.105   9.380 -0.0936  0.8000 -0.2746
   23SAPC  H10S 3032   3.220   4.227   9.513 -0.7026  0.9977  1.7108
   23SAPC  C211 3033   3.033   4.125   9.461 -0.6610  0.0691  0.9426
   23SAPC  H11R 3034   2.964   4.108   9.544 -2.0114 -0.5435 -0.2604
   23SAPC  C212 3035   2.972   4.128   9.343 -0.0452  0.3596 -0.0292
   23SAPC  H12R 3036   2.862   4.127   9.349 -0.1229  2.8351 -0.0680
   23SAPC  C213 3037   3.033   4.129   9.206 -0.3941 -0.0589  0.3492
   23SAPC  H13R 3038   3.134   4.176   9.213 -1.0230  1.2596  0.9033
   23SAPC  H13S 3039   2.980   4.200   9.139 -0.4238 -1.0044 -0.6690
   23SAPC  C214 3040   3.061   3.992   9.151 -0.1913  0.0650  0.5357
   23SAPC  H14R 3041   3.051   3.905   9.218 -1.1947  0.1510  0.5145
   23SAPC  C215 3042   3.073   3.951   9.018  0.2239  0.1227  0.3262
   23SAPC  H15R 3043   3.066   3.844   8.996 -2.8972  0.7271 -2.3222
   23SAPC  C216 3044   3.053   4.043   8.902  0.6159  0.0289  0.2526
   23SAPC  H16R 3045   3.066   3.979   8.811 -0.8514  0.8811 -0.5939
   23SAPC  H16S 3046   3.117   4.133   8.914 -1.2308  1.1396  2.6698
   23SAPC  C217 3047   2.902   4.087   8.885 -0.5838  0.1466 -0.8289
   23SAPC  H17R 3048   2.898   4.158   8.799 -1.9446  1.9651  0.6372
   23SAPC  H17S 3049   2.866   4.133   8.980  2.6219 -0.3221  0.7750
   23SAPC  C218 3050   2.809   3.969   8.846  0.6339  0.7315  0.1906
   23SAPC  H18R 3051   2.786   3.915   8.940 -1.9391  3.1101  1.0658
   23SAPC  H18S 3052   2.851   3.907   8.764  0.2289 -1.1444  1.3560
   23SAPC  C219 3053   2.684   4.033   8.776 -0.4443  0.3089  0.1696
   23SAPC  H19R 3054   2.720   4.110   8.704  0.7208  1.2411  1.6773
   23SAPC  H19S 3055   2.628   4.095   8.849 -1.6413  0.2633 -0.6831
   23SAPC  C220 3056   2.583   3.955   8.702  0.2444  0.6941 -0.7000
   23SAPC  H20R 3057   2.527   4.017   8.629  1.1102  1.3937 -0.7930
   23SAPC  H20S 3058   2.510   3.907   8.771  1.4111  0.5969  0.5252
   23SAPC  H20T 3059   2.624   3.871   8.642  1.7610  2.0852 -1.6772
   23SAPC   C33 3060   3.599   3.752  10.030  0.1168  0.4773  0.3546
   23SAPC   H3X 3061   3.682   3.825  10.019 -0.1638  1.1414  2.2891
   23SAPC   H3Y 3062   3.511   3.813  10.060 -1.5884 -0.6529 -2.0220
   23SAPC   C34 3063   3.555   3.687   9.900 -0.3143 -0.2756 -0.2912
   23SAPC   H4X 3064   3.455   3.640   9.904  0.0459 -1.1361 -1.0828
   23SAPC   H4Y 3065   3.630   3.609   9.876 -2.7527 -2.0348 -2.6929
   23SAPC   C35 3066   3.564   3.780   9.775 -0.1496 -0.6165 -0.3210
   23SAPC   H5X 3067   3.674   3.790   9.761 -0.3085 -0.5281 -1.5937
   23SAPC   H5Y 3068   3.523   3.882   9.794 -1.2537 -1.2812  1.0435
   23SAPC   C36 3069   3.499   3.720   9.648  0.2437  0.2353  0.4452
   23SAPC   H6X 3070   3.391   3.712   9.670  0.1147  0.4770 -0.1089
   23SAPC   H6Y 3071   3.549   3.620   9.645  4.5120  2.1420 -2.6466
   23SAPC   C37 3072   3.530   3.783   9.515  0.0198  0.6062 -0.3606
   23SAPC   H7X 3073   3.636   3.760   9.494  0.2051  0.4211  0.7414
   23SAPC   H7Y 3074   3.509   3.892   9.505 -0.2469  0.4306 -2.0551
   23SAPC   C38 3075   3.444   3.720   9.401  0.1069 -0.0895  0.2041
   23SAPC   H8X 3076   3.342   3.698   9.439  0.2587 -1.0835  0.0636
   23SAPC   H8Y 3077   3.489   3.621   9.377 -0.4010 -0.4022  0.5346
   23SAPC   C39 3078   3.432   3.809   9.279  0.1087 -0.0744 -0.0573
   23SAPC   H9X 3079   3.531   3.832   9.235 -0.4719  1.4767 -0.6425
   23SAPC   H9Y 3080   3.387   3.907   9.306 -0.6879  0.1514 -2.0580
   23SAPC  C310 3081   3.337   3.753   9.166 -0.1620 -0.1502  0.5222
   23SAPC  H10X 3082   3.352   3.806   9.069 -1.3619  0.4166  0.6381
   23SAPC  H10Y 3083   3.230   3.762   9.191 -0.3114 -1.6822  0.5381
   23SAPC  C311 3084   3.363   3.603   9.121  0.1587 -0.0446 -0.6351
   23SAPC  H11X 3085   3.317   3.532   9.194 -0.4451  1.6826  0.7395
   23SAPC  H11Y 3086   3.472   3.582   9.123  0.0609 -0.5730 -0.7893
   23SAPC  C312 3087   3.314   3.575   8.981 -0.0572  0.3145  0.1980
   23SAPC  H12X 3088   3.385   3.633   8.918  1.0304  0.0803  1.1754
   23SAPC  H12Y 3089   3.211   3.613   8.965 -0.0442 -0.0414 -0.7704
   23SAPC  C313 3090   3.310   3.426   8.954 -0.2723  0.0432 -0.2617
   23SAPC  H13X 3091   3.281   3.381   9.051  1.5637 -1.4423 -0.3573
   23SAPC  H13Y 3092   3.417   3.398   8.945  0.0794  1.3575 -0.4948
   23SAPC  C314 3093   3.218   3.373   8.833 -0.0779 -0.8227 -0.3443
   23SAPC  H14X 3094   3.254   3.431   8.745  0.3880 -1.5248 -0.6168
   23SAPC  H14Y 3095   3.110   3.393   8.855  0.3254  0.2459  0.8462
   23SAPC  C315 3096   3.235   3.225   8.823  0.4527  0.7294  0.0899
   23SAPC  H15X 3097   3.182   3.188   8.914  1.2613 -0.4396  0.1030
   23SAPC  H15Y 3098   3.340   3.193   8.838  0.1394  0.1068  1.0382
   23SAPC  C316 3099   3.170   3.170   8.692 -0.4490  0.1242  0.5520
   23SAPC  H16X 3100   3.211   3.233   8.610  0.2456  0.0592  0.8444
   23SAPC  H16Y 3101   3.060   3.184   8.698 -0.6544 -1.3739  0.6563
   23SAPC  C317 3102   3.206   3.024   8.652  0.0585  0.0683 -0.0891
   23SAPC  H17X 3103   3.313   3.005   8.674 -0.4162 -1.9734  0.5810
   23SAPC  H17Y 3104   3.189   3.026   8.542 -0.4653 -0.7028 -0.0291
   23SAPC  C318 3105   3.121   2.920   8.722  0.8078 -0.5508  0.1125
   23SAPC  H18X 3106   3.146   2.820   8.679  1.2935 -0.6324  0.5806
   23SAPC  H18Y 3107   3.012   2.937   8.710  1.3436  1.2661 -3.7827
   23SAPC  H18Z 3108   3.140   2.922   8.831  3.3711 -2.4840 -0.2058
   24SAPC     N 3109   5.870   4.334  11.446  0.3673  0.5288 -0.0371
   24SAPC   C12 3110   5.751   4.375  11.362 -0.3185  0.0213  0.2411
   24SAPC  H12A 3111   5.657   4.356  11.413 -1.0542 -0.5175 -1.2592
   24SAPC  H12B 3112   5.755   4.318  11.271  3.6507 -1.2230  1.0332
   24SAPC   C13 3113   5.871   4.190  11.482  0.4659 -0.6021 -1.1850
   24SAPC  H13A 3114   5.795   4.164  11.554  1.2099 -1.1658 -0.5939
   24SAPC  H13B 3115   5.869   4.125  11.396  0.8909  0.8750 -2.3552
   24SAPC  H13C 3116   5.964   4.174  11.535  0.3441  0.1771 -0.7079
   24SAPC   C14 3117   5.998   4.362  11.385 -0.1137 -0.4504 -0.3181
   24SAPC  H14A 3118   6.085   4.340  11.446  0.0631  0.2072 -0.3332
   24SAPC  H14B 3119   6.011   4.309  11.292 -1.5786 -1.8876  0.2385
   24SAPC  H14C 3120   5.998   4.462  11.344 -1.1088 -0.7992 -1.2336
   24SAPC   C15 3121   5.859   4.411  11.572  0.1940  0.1553  0.3970
   24SAPC  H15A 3122   5.773   4.384  11.632  1.1006 -1.1191  1.1737
   24SAPC  H15B 3123   5.935   4.382  11.643  2.1236  1.0008 -1.2518
   24SAPC  H15C 3124   5.860   4.518  11.556  2.4735  0.2052  0.6445
   24SAPC   C11 3125   5.751   4.524  11.325 -0.2917  0.0695  0.2973
   24SAPC  H11A 3126   5.753   4.595  11.411  1.9327 -2.2125  2.3025
   24SAPC  H11B 3127   5.656   4.541  11.269 -0.8212 -1.3078  0.7479
   24SAPC     P 3128   5.864   4.638  11.116 -0.1233 -0.0782  0.0594
   24SAPC   O13 3129   5.810   4.769  11.136  0.8403  0.1947  0.0539
   24SAPC   O14 3130   6.004   4.634  11.065  0.4554  0.0692  0.3382
   24SAPC   O12 3131   5.867   4.563  11.249  0.4387  0.5014 -0.0764
   24SAPC   O11 3132   5.765   4.555  11.021  0.1067  0.2183 -0.1912
   24SAPC    C1 3133   5.814   4.478  10.911 -0.5111  0.1241 -0.1226
   24SAPC    HA 3134   5.903   4.417  10.938 -0.2022  1.1147  1.1696
   24SAPC    HB 3135   5.743   4.393  10.897 -0.9832  0.4895  0.0257
   24SAPC    C2 3136   5.813   4.565  10.794  0.7951  0.1155  0.3248
   24SAPC    HS 3137   5.795   4.495  10.709  0.7555 -0.7192  1.0028
   24SAPC   O21 3138   5.929   4.645  10.791 -0.0008 -0.2337  0.5346
   24SAPC   C21 3139   6.047   4.577  10.762  0.5778  0.6063 -1.0459
   24SAPC   O22 3140   6.059   4.462  10.730  0.7288  0.3983 -0.2988
   24SAPC   C22 3141   6.167   4.660  10.767  0.2714 -0.4167  0.0177
   24SAPC   H2R 3142   6.207   4.668  10.871  0.7603  2.0443 -0.3090
   24SAPC   H2S 3143   6.231   4.592  10.707 -0.3698 -1.0203  0.0020
   24SAPC    C3 3144   5.684   4.654  10.784  0.6238 -0.2238 -0.2304
   24SAPC    HX 3145   5.695   4.748  10.842 -1.0822  0.2593 -0.6387
   24SAPC    HY 3146   5.618   4.580  10.833  3.0186 -0.7841  2.4330
   24SAPC   O31 3147   5.658   4.668  10.640 -0.2042 -0.0337  0.0609
   24SAPC   C31 3148   5.614   4.790  10.613 -0.7938 -0.5356  0.2411
   24SAPC   O32 3149   5.577   4.875  10.691 -0.0488 -0.4779 -0.0906
   24SAPC   C32 3150   5.617   4.797  10.457  0.1622 -0.6979 -0.6052
   24SAPC   H2X 3151   5.719   4.811  10.414 -0.6634  0.0567 -2.4029
   24SAPC   H2Y 3152   5.558   4.888  10.432  0.7970  0.3934  1.6170
   24SAPC   C23 3153   6.139   4.800  10.717 -0.3348 -0.1706  0.2881
   24SAPC   H3R 3154   6.225   4.868  10.735  0.0235  0.7090 -3.7169
   24SAPC   H3S 3155   6.060   4.849  10.777 -0.4034 -1.8267  1.6219
   24SAPC   C24 3156   6.108   4.826  10.566  0.3230  1.0336  0.0530
   24SAPC   H4R 3157   6.082   4.933  10.551  0.7092  1.0583 -0.5010
   24SAPC   H4S 3158   6.007   4.788  10.541  0.8399  0.2118 -0.8714
   24SAPC   C25 3159   6.221   4.776  10.477 -0.0503  0.2738  0.0793
   24SAPC   H5R 3160   6.316   4.827  10.496 -0.0751 -0.5150  2.5982
   24SAPC   C26 3161   6.208   4.683  10.376 -0.0165 -0.1131 -0.7069
   24SAPC   H6R 3162   6.294   4.664  10.309  0.1319  1.0678 -0.8727
   24SAPC   C27 3163   6.088   4.612  10.325 -0.1226 -0.0497 -0.1640
   24SAPC   H7R 3164   6.081   4.624  10.215  4.7773  1.2630 -0.5309
   24SAPC   H7S 3165   5.993   4.665  10.349 -0.1203 -0.1006 -0.0423
   24SAPC   C28 3166   6.077   4.467  10.372  0.5872  0.1562 -0.3544
   24SAPC   H8R 3167   6.142   4.434  10.455  1.1714 -0.4087 -1.0247
   24SAPC   C29 3168   5.995   4.370  10.306 -0.2951  0.5091  0.6844
   24SAPC   H9R 3169   6.001   4.265  10.338  0.9289  0.6773  1.1039
   24SAPC  C210 3170   5.910   4.391  10.180  0.7114 -0.7005  0.0921
   24SAPC  H10R 3171   5.957   4.451  10.099 -0.8981  0.2566 -0.1842
   24SAPC  H10S 3172   5.819   4.445  10.214  0.2242 -0.7015 -1.1378
   24SAPC  C211 3173   5.870   4.253  10.134 -0.3661 -0.2606  0.0021
   24SAPC  H11R 3174   5.867   4.177  10.215  0.9603  0.3344  0.6477
   24SAPC  C212 3175   5.842   4.217  10.006 -0.5140 -0.6636  0.0811
   24SAPC  H12R 3176   5.812   4.112   9.990  1.5755 -1.2888 -0.1337
   24SAPC  C213 3177   5.841   4.303   9.887 -0.0018  0.3542  0.7698
   24SAPC  H13R 3178   5.886   4.404   9.900  0.7865  0.4151 -1.7859
   24SAPC  H13S 3179   5.737   4.328   9.858  0.8984  0.8656 -2.4910
   24SAPC  C214 3180   5.906   4.225   9.772  0.7055  0.2592 -0.6750
   24SAPC  H14R 3181   5.846   4.142   9.731  1.5932 -1.1530  0.7676
   24SAPC  C215 3182   6.028   4.239   9.720  0.3476 -0.2253  0.0334
   24SAPC  H15R 3183   6.060   4.179   9.634 -0.0461 -0.1194 -0.1870
   24SAPC  C216 3184   6.126   4.342   9.774  0.0542  0.1611  0.8403
   24SAPC  H16R 3185   6.076   4.431   9.817 -1.4877 -0.0448 -0.4285
   24SAPC  H16S 3186   6.197   4.370   9.693 -0.1573 -2.2687 -0.2967
   24SAPC  C217 3187   6.205   4.268   9.884  0.6451 -0.1852 -0.0802
   24SAPC  H17R 3188   6.265   4.190   9.833 -1.2003 -1.9063  0.2844
   24SAPC  H17S 3189   6.127   4.226   9.951 -0.5454  1.8226 -0.1116
   24SAPC  C218 3190   6.284   4.361   9.973 -0.2480  0.0831 -0.4841
   24SAPC  H18R 3191   6.221   4.447  10.003 -0.8054 -0.6861  0.6492
   24SAPC  H18S 3192   6.367   4.410   9.918  2.9328 -1.2106  2.6829
   24SAPC  C219 3193   6.328   4.300  10.104  0.2179  0.4411  0.4435
   24SAPC  H19R 3194   6.389   4.207  10.100  1.5979  1.3415  0.0553
   24SAPC  H19S 3195   6.235   4.269  10.156 -0.1000 -2.2268 -1.5224
   24SAPC  C220 3196   6.404   4.395  10.191  0.0866  0.2423  0.0753
   24SAPC  H20R 3197   6.508   4.425  10.165  0.5710 -0.4310  1.1673
   24SAPC  H20S 3198   6.400   4.343  10.289 -2.5339  2.0706  1.0572
   24SAPC  H20T 3199   6.346   4.489  10.208  1.8666  1.4062  0.0133
   24SAPC   C33 3200   5.547   4.671  10.393  0.3870 -0.0753  0.0899
   24SAPC   H3X 3201   5.454   4.664  10.453 -0.0330 -2.0072 -0.7124
   24SAPC   H3Y 3202   5.612   4.584  10.417  0.5377  0.3849  1.4251
   24SAPC   C34 3203   5.518   4.689  10.243  0.1501 -0.4874 -0.1394
   24SAPC   H4X 3204   5.461   4.784  10.230  1.6300  0.5895  0.9636
   24SAPC   H4Y 3205   5.459   4.599  10.214 -0.9346 -0.2447  1.1976
   24SAPC   C35 3206   5.641   4.685  10.149  0.5218  0.3217  0.0677
   24SAPC   H5X 3207   5.697   4.592  10.167  1.1622  0.1882 -2.2571
   24SAPC   H5Y 3208   5.709   4.764  10.187 -0.1774  0.7851  0.3854
   24SAPC   C36 3209   5.605   4.690  10.003 -0.0752 -0.2969  0.8139
   24SAPC   H6X 3210   5.553   4.787   9.991  0.4358  0.3565  3.2737
   24SAPC   H6Y 3211   5.523   4.616   9.992 -0.4695  0.2611 -0.1105
   24SAPC   C37 3212   5.719   4.671   9.904  0.6988  0.8845 -0.2149
   24SAPC   H7X 3213   5.784   4.591   9.946  1.3701  2.1624  1.2533
   24SAPC   H7Y 3214   5.765   4.772   9.903  0.3163  1.0617 -0.3664
   24SAPC   C38 3215   5.661   4.628   9.767 -0.4822 -0.1005 -0.4698
   24SAPC   H8X 3216   5.594   4.708   9.730 -0.2014  0.7979  0.8699
   24SAPC   H8Y 3217   5.597   4.537   9.772 -2.1198  0.9837 -1.0468
   24SAPC   C39 3218   5.785   4.591   9.672  0.4645 -0.6322 -0.0456
   24SAPC   H9X 3219   5.858   4.518   9.711  0.3379 -1.0147 -0.5018
   24SAPC   H9Y 3220   5.831   4.689   9.647  0.3652 -0.5947 -0.0821
   24SAPC  C310 3221   5.735   4.534   9.539  0.0491 -0.3677 -0.7508
   24SAPC  H10X 3222   5.677   4.440   9.553 -0.8030 -0.3164 -3.3478
   24SAPC  H10Y 3223   5.820   4.523   9.468  0.1465  0.3781 -0.7573
   24SAPC  C311 3224   5.625   4.618   9.467  0.2482 -0.2313  0.1312
   24SAPC  H11X 3225   5.643   4.727   9.471  1.8400 -0.4448 -0.3264
   24SAPC  H11Y 3226   5.528   4.587   9.511 -0.0720  0.8320  0.1965
   24SAPC  C312 3227   5.605   4.576   9.324  0.5915 -0.2882  0.3502
   24SAPC  H12X 3228   5.569   4.470   9.321 -1.8493  0.4669  0.4203
   24SAPC  H12Y 3229   5.696   4.602   9.266  0.1756 -0.3671 -0.3465
   24SAPC  C313 3230   5.506   4.661   9.247 -0.1133 -0.3216  0.7347
   24SAPC  H13X 3231   5.553   4.759   9.222  0.6229 -0.6422  0.8199
   24SAPC  H13Y 3232   5.415   4.690   9.304  0.1331 -1.8092  1.9756
   24SAPC  C314 3233   5.454   4.601   9.107  0.4648  0.4669 -0.0825
   24SAPC  H14X 3234   5.395   4.513   9.138 -0.8316  0.4336 -2.4283
   24SAPC  H14Y 3235   5.539   4.573   9.041 -0.2402 -1.1858 -0.3275
   24SAPC  C315 3236   5.368   4.697   9.026 -0.3301 -0.1509  0.0362
   24SAPC  H15X 3237   5.421   4.791   8.999  0.3682 -1.5635 -4.3184
   24SAPC  H15Y 3238   5.274   4.717   9.083  1.1064 -1.3673  3.0304
   24SAPC  C316 3239   5.338   4.640   8.886 -0.3625  0.3483 -0.5186
   24SAPC  H16X 3240   5.422   4.650   8.814  0.8869 -0.7757  0.7294
   24SAPC  H16Y 3241   5.260   4.711   8.852 -0.5931 -0.0630 -0.8534
   24SAPC  C317 3242   5.270   4.501   8.895 -0.1161  0.0316  0.3548
   24SAPC  H17X 3243   5.182   4.503   8.827 -0.2940  1.0043  0.6065
   24SAPC  H17Y 3244   5.235   4.487   8.999  1.6953 -0.5058  0.9384
   24SAPC  C318 3245   5.362   4.388   8.851 -0.3518 -0.1122 -0.5268
   24SAPC  H18X 3246   5.305   4.293   8.836  0.3343 -0.7827  0.9562
   24SAPC  H18Y 3247   5.446   4.373   8.922  2.1011  1.4538 -2.9098
   24SAPC  H18Z 3248   5.420   4.417   8.761  0.8617 -2.4725 -0.6015
   25SAPC     N 3249   4.358   1.454   5.836  0.5393 -0.7464 -0.6031
   25SAPC   C12 3250   4.379   1.579   5.927  0.4949 -0.8199 -0.0778
   25SAPC  H12A 3251   4.472   1.620   5.890  0.3537 -0.9706 -0.6107
   25SAPC  H12B 3252   4.392   1.550   6.030  0.5222  2.7275  1.0490
   25SAPC   C13 3253   4.474   1.356   5.837  0.2124  0.5671 -0.1228
   25SAPC  H13A 3254   4.496   1.305   5.929 -0.0764  0.0856 -0.3155
   25SAPC  H13B 3255   4.445   1.278   5.767  0.0846 -0.6029  1.1997
   25SAPC  H13C 3256   4.566   1.402   5.805 -0.1228  1.3275 -0.0263
   25SAPC   C14 3257   4.238   1.380   5.876  1.0210 -0.4805  0.2061
   25SAPC  H14A 3258   4.153   1.442   5.903  0.7579 -0.3450 -0.8806
   25SAPC  H14B 3259   4.189   1.327   5.796 -1.0008  1.1463  0.2737
   25SAPC  H14C 3260   4.262   1.325   5.965  0.8813 -0.2371  0.3969
   25SAPC   C15 3261   4.351   1.504   5.694 -0.8704  0.3450  0.2767
   25SAPC  H15A 3262   4.264   1.568   5.683 -0.3091  1.1454  0.4219
   25SAPC  H15B 3263   4.438   1.564   5.674 -1.1038  0.4223 -0.5381
   25SAPC  H15C 3264   4.352   1.420   5.626  0.7623 -1.2839  2.1607
   25SAPC   C11 3265   4.267   1.688   5.933 -0.1899  0.1850  0.1978
   25SAPC  H11A 3266   4.239   1.717   5.830 -0.4560 -0.8001 -0.0218
   25SAPC  H11B 3267   4.301   1.781   5.982 -2.1612  0.8172  0.4408
   25SAPC     P 3268   4.107   1.627   6.138  0.2019 -0.3269 -0.3563
   25SAPC   O13 3269   4.064   1.756   6.185  0.4065 -0.1766  0.1509
   25SAPC   O14 3270   4.002   1.524   6.152 -0.1425  0.2692 -0.5057
   25SAPC   O12 3271   4.148   1.631   5.988 -0.1233 -0.0282 -0.4073
   25SAPC   O11 3272   4.239   1.572   6.209 -0.4890 -0.1833 -0.6581
   25SAPC    C1 3273   4.336   1.664   6.256 -0.6959 -0.5199  0.2781
   25SAPC    HA 3274   4.432   1.619   6.222 -0.8197 -1.3800  1.0162
   25SAPC    HB 3275   4.332   1.763   6.206  3.4881 -1.0342 -1.4357
   25SAPC    C2 3276   4.330   1.668   6.408 -0.3005 -0.0250 -0.6461
   25SAPC    HS 3277   4.299   1.568   6.444 -0.4480  0.3622  0.3365
   25SAPC   O21 3278   4.251   1.781   6.443  0.5108  0.0399  0.5302
   25SAPC   C21 3279   4.183   1.760   6.558 -0.0278 -0.4210  0.2189
   25SAPC   O22 3280   4.183   1.660   6.620 -0.4522  0.4812  0.4242
   25SAPC   C22 3281   4.095   1.879   6.598  0.5317 -0.7545 -0.0871
   25SAPC   H2R 3282   4.091   1.950   6.513  0.9119 -0.7235 -0.0815
   25SAPC   H2S 3283   3.990   1.847   6.616  0.5570 -0.1741  1.2166
   25SAPC    C3 3284   4.477   1.682   6.471  0.3139  0.4699  0.4518
   25SAPC    HX 3285   4.501   1.782   6.428  0.3677 -0.4378 -1.7283
   25SAPC    HY 3286   4.535   1.598   6.428 -2.2116 -0.3466 -1.6477
   25SAPC   O31 3287   4.470   1.692   6.613 -0.2793  0.4321  0.0406
   25SAPC   C31 3288   4.461   1.584   6.684  0.1748 -0.2976  0.7664
   25SAPC   O32 3289   4.460   1.470   6.637 -0.1264 -0.0044 -0.4011
   25SAPC   C32 3290   4.441   1.619   6.832  0.6960 -0.4222  0.4614
   25SAPC   H2X 3291   4.350   1.568   6.870 -0.3745  1.4969  0.6174
   25SAPC   H2Y 3292   4.415   1.726   6.844 -1.3815 -0.9508  0.9960
   25SAPC   C23 3293   4.150   1.970   6.712 -0.3523 -0.8433 -0.7341
   25SAPC   H3R 3294   4.259   1.984   6.696 -0.2776 -1.3576 -0.6871
   25SAPC   H3S 3295   4.149   1.906   6.803  0.3007 -1.8411 -1.4104
   25SAPC   C24 3296   4.071   2.101   6.728 -0.7595  0.8836 -0.0207
   25SAPC   H4R 3297   3.961   2.092   6.713 -0.5854  0.3929 -1.1306
   25SAPC   H4S 3298   4.103   2.162   6.640  1.0733 -0.3349 -0.2665
   25SAPC   C25 3299   4.101   2.171   6.857  0.3838 -0.2154 -0.4331
   25SAPC   H5R 3300   4.131   2.276   6.844 -0.4041  0.5759  3.0413
   25SAPC   C26 3301   4.090   2.126   6.980 -0.8167 -0.0097 -0.2680
   25SAPC   H6R 3302   4.133   2.183   7.063  1.2357  1.0161 -1.9489
   25SAPC   C27 3303   4.050   1.993   7.037  0.3132  0.2399  0.5036
   25SAPC   H7R 3304   3.974   1.941   6.975 -0.4148  0.0248  1.5541
   25SAPC   H7S 3305   4.008   2.015   7.138  1.1929  0.2811  0.8668
   25SAPC   C28 3306   4.174   1.908   7.065  0.8421  0.0925  0.4108
   25SAPC   H8R 3307   4.204   1.840   6.983 -0.8781  0.0774 -0.2531
   25SAPC   C29 3308   4.250   1.896   7.177  0.3138  0.2757  0.2835
   25SAPC   H9R 3309   4.327   1.817   7.180 -0.2129 -0.2744 -0.3462
   25SAPC  C210 3310   4.213   1.966   7.308  0.3108  0.2480 -0.0244
   25SAPC  H10R 3311   4.140   2.049   7.297  1.1135  0.7719 -1.6897
   25SAPC  H10S 3312   4.305   2.021   7.334  0.7387  0.0459 -1.0442
   25SAPC  C211 3313   4.174   1.864   7.411  0.2481  0.1932 -0.5104
   25SAPC  H11R 3314   4.153   1.763   7.374  1.1515  0.0117 -0.5643
   25SAPC  C212 3315   4.172   1.890   7.541 -0.1353 -0.4507  0.1562
   25SAPC  H12R 3316   4.123   1.810   7.599 -1.4023  0.9803  1.1494
   25SAPC  C213 3317   4.207   2.016   7.613  0.3863  0.5291 -0.0186
   25SAPC  H13R 3318   4.195   2.111   7.557  0.7702  0.9291  0.5766
   25SAPC  H13S 3319   4.314   2.011   7.639  0.2190 -1.3730  0.4453
   25SAPC  C214 3320   4.125   2.042   7.737  0.6139 -0.4469 -0.0779
   25SAPC  H14R 3321   4.016   2.053   7.732  0.6988  0.8540  0.3822
   25SAPC  C215 3322   4.175   2.052   7.864  0.9505  0.2623  0.2807
   25SAPC  H15R 3323   4.106   2.062   7.949  0.5038  0.5988 -0.1143
   25SAPC  C216 3324   4.320   2.036   7.905  0.0797  0.0231  0.1961
   25SAPC  H16R 3325   4.388   1.994   7.827  0.7640  1.6038 -0.0818
   25SAPC  H16S 3326   4.328   1.954   7.980  0.3923 -0.5307 -0.4259
   25SAPC  C217 3327   4.387   2.166   7.939 -0.0580  0.6160 -0.2626
   25SAPC  H17R 3328   4.363   2.230   7.852 -0.0017  1.5190  0.3763
   25SAPC  H17S 3329   4.496   2.146   7.936 -0.3124 -0.8897 -0.6430
   25SAPC  C218 3330   4.340   2.212   8.078  1.1254 -0.4299  0.5333
   25SAPC  H18R 3331   4.322   2.124   8.142  2.8223 -0.6561  0.7544
   25SAPC  H18S 3332   4.239   2.256   8.063  0.9448  0.3829  3.4602
   25SAPC  C219 3333   4.423   2.306   8.159  0.1102  0.2329 -0.9875
   25SAPC  H19R 3334   4.508   2.252   8.205  0.4715  1.0084 -0.7335
   25SAPC  H19S 3335   4.358   2.333   8.245 -0.8091 -1.2790 -1.1583
   25SAPC  C220 3336   4.488   2.423   8.082  0.0939  0.1393  0.1445
   25SAPC  H20R 3337   4.537   2.380   7.991 -1.2204 -0.8884 -0.0978
   25SAPC  H20S 3338   4.568   2.460   8.150 -0.4626  0.8749  0.4100
   25SAPC  H20T 3339   4.409   2.497   8.057 -0.0675  0.9164  2.7111
   25SAPC   C33 3340   4.559   1.578   6.924 -0.6075  0.3252  0.1621
   25SAPC   H3X 3341   4.645   1.645   6.905  0.0501 -0.7914 -0.9824
   25SAPC   H3Y 3342   4.596   1.477   6.894 -1.1996  0.1698 -0.0532
   25SAPC   C34 3343   4.532   1.555   7.075  0.4063  0.0518 -0.1449
   25SAPC   H4X 3344   4.441   1.492   7.076 -2.7589  4.1918  2.1507
   25SAPC   H4Y 3345   4.493   1.652   7.113  0.7184 -0.6767  2.1890
   25SAPC   C35 3346   4.652   1.508   7.155 -0.3076 -0.0115  0.0877
   25SAPC   H5X 3347   4.709   1.598   7.186  1.1417 -0.1963 -1.8631
   25SAPC   H5Y 3348   4.710   1.453   7.078  0.2576  0.6947  0.0047
   25SAPC   C36 3349   4.613   1.430   7.279 -0.3265 -0.4595  0.5005
   25SAPC   H6X 3350   4.709   1.391   7.320 -1.1293 -2.4564  0.6035
   25SAPC   H6Y 3351   4.541   1.351   7.248  1.9986 -2.3420 -0.4520
   25SAPC   C37 3352   4.543   1.505   7.384 -1.1353  0.0266  0.4308
   25SAPC   H7X 3353   4.434   1.512   7.363 -1.2576 -0.0871  1.0006
   25SAPC   H7Y 3354   4.573   1.611   7.395  2.8401 -1.0444  1.5567
   25SAPC   C38 3355   4.534   1.432   7.517 -0.6940 -0.3788 -0.0318
   25SAPC   H8X 3356   4.536   1.322   7.507  1.7672 -0.3539 -0.4770
   25SAPC   H8Y 3357   4.437   1.458   7.565 -0.7183  1.6876 -1.0503
   25SAPC   C39 3358   4.646   1.473   7.612 -0.0269  0.9258 -0.1993
   25SAPC   H9X 3359   4.680   1.576   7.587  1.2188  1.1281  2.0672
   25SAPC   H9Y 3360   4.722   1.394   7.595  0.0187  0.3385  2.3521
   25SAPC  C310 3361   4.604   1.488   7.759  0.0300  0.3783 -1.0249
   25SAPC  H10X 3362   4.543   1.400   7.788  1.9638 -0.1336  1.8085
   25SAPC  H10Y 3363   4.537   1.576   7.764  0.3680  0.7199 -2.1878
   25SAPC  C311 3364   4.721   1.494   7.865  0.2616  0.3167 -0.1880
   25SAPC  H11X 3365   4.790   1.574   7.832  1.1530 -0.6869 -0.7893
   25SAPC  H11Y 3366   4.781   1.402   7.854  3.2924  2.0161  0.9207
   25SAPC  C312 3367   4.679   1.517   8.004 -0.1541  1.1341 -1.1221
   25SAPC  H12X 3368   4.625   1.434   8.053  0.0445  1.4127 -0.4232
   25SAPC  H12Y 3369   4.610   1.603   8.014 -2.4487 -0.5557 -1.5706
   25SAPC  C313 3370   4.805   1.539   8.096  0.3489 -0.0275 -0.2249
   25SAPC  H13X 3371   4.853   1.624   8.044 -0.0714 -0.3252 -1.1058
   25SAPC  H13Y 3372   4.870   1.449   8.100 -1.3757 -1.3859 -1.4874
   25SAPC  C314 3373   4.790   1.579   8.242 -0.2930 -0.2707 -0.9133
   25SAPC  H14X 3374   4.762   1.485   8.295  0.9063 -1.7705 -2.8025
   25SAPC  H14Y 3375   4.707   1.651   8.262 -0.9465 -1.5763  1.5928
   25SAPC  C315 3376   4.923   1.634   8.305  0.1657 -0.1234  0.3470
   25SAPC  H15X 3377   4.930   1.742   8.282 -1.7228 -0.0052  0.1901
   25SAPC  H15Y 3378   5.016   1.582   8.272 -1.2601 -1.5864 -1.6081
   25SAPC  C316 3379   4.916   1.617   8.459 -0.8569  0.7453 -0.2793
   25SAPC  H16X 3380   4.946   1.513   8.485  0.3736  0.3705 -2.8736
   25SAPC  H16Y 3381   4.808   1.626   8.484 -0.6855  0.6776  0.5110
   25SAPC  C317 3382   5.013   1.720   8.534 -0.9047 -0.2658 -0.1147
   25SAPC  H17X 3383   4.977   1.713   8.639 -0.8686 -1.4423 -0.1613
   25SAPC  H17Y 3384   4.988   1.823   8.504  3.4425  0.7897 -0.8327
   25SAPC  C318 3385   5.167   1.706   8.531 -0.5335  0.0557  0.6475
   25SAPC  H18X 3386   5.186   1.596   8.538 -0.6241 -0.1763 -1.9336
   25SAPC  H18Y 3387   5.204   1.755   8.624 -0.5233  0.5939  0.3615
   25SAPC  H18Z 3388   5.222   1.745   8.443 -2.8764  2.1375  0.0073
   26SAPC     N 3389   2.176   4.028   5.830 -0.1029  0.5259 -0.3934
   26SAPC   C12 3390   2.149   4.075   5.969  0.3463  0.2914  0.6190
   26SAPC  H12A 3391   2.045   4.102   5.975  0.0578 -0.7662  0.5258
   26SAPC  H12B 3392   2.202   4.166   5.994 -0.2761  1.2915 -1.4430
   26SAPC   C13 3393   2.106   3.893   5.802 -0.3846 -0.0057 -0.1550
   26SAPC  H13A 3394   2.125   3.827   5.886  0.4081 -0.1999 -0.4765
   26SAPC  H13B 3395   2.002   3.922   5.803 -0.3227  0.2322  1.0571
   26SAPC  H13C 3396   2.145   3.843   5.715  3.1584  0.8795  0.7550
   26SAPC   C14 3397   2.126   4.135   5.736  1.2791 -0.2020 -0.4119
   26SAPC  H14A 3398   2.163   4.122   5.635  2.2191  0.3592 -0.1525
   26SAPC  H14B 3399   2.019   4.148   5.731  1.3116  1.4434  1.7131
   26SAPC  H14C 3400   2.176   4.224   5.771 -1.9552  1.1242  1.2062
   26SAPC   C15 3401   2.323   4.007   5.810 -0.9644 -0.2339  0.6484
   26SAPC  H15A 3402   2.335   3.964   5.711 -2.9998  0.9467 -0.1645
   26SAPC  H15B 3403   2.371   4.102   5.831 -1.1846 -0.3349  1.6167
   26SAPC  H15C 3404   2.364   3.933   5.877 -0.4528  1.6628  2.5093
   26SAPC   C11 3405   2.178   3.984   6.094  0.9856 -0.3365  0.6466
   26SAPC  H11A 3406   2.158   4.051   6.181  3.4282  0.4189  0.6992
   26SAPC  H11B 3407   2.287   3.966   6.102  0.9312 -0.5121  0.9837
   26SAPC     P 3408   1.964   3.854   6.170  0.0458  0.2331  0.3369
   26SAPC   O13 3409   1.876   3.968   6.129  0.0389 -0.2656  0.0086
   26SAPC   O14 3410   1.912   3.715   6.154 -0.0828 -0.1122  0.6500
   26SAPC   O12 3411   2.106   3.857   6.090 -0.2052 -0.9598 -0.4862
   26SAPC   O11 3412   2.016   3.886   6.317 -0.3612  0.0013  0.4828
   26SAPC    C1 3413   1.926   3.885   6.429  0.0664  0.7827  0.9866
   26SAPC    HA 3414   1.863   3.976   6.430 -0.7271  0.2492  0.1197
   26SAPC    HB 3415   1.866   3.792   6.429  1.5017 -0.2974 -2.2524
   26SAPC    C2 3416   2.003   3.862   6.562 -1.2451  0.0551  0.1487
   26SAPC    HS 3417   1.932   3.851   6.647  0.4927 -2.0862  1.4331
   26SAPC   O21 3418   2.101   3.968   6.589  0.1052  0.6058  0.0699
   26SAPC   C21 3419   2.053   4.089   6.604  0.7421  0.6699  0.5525
   26SAPC   O22 3420   1.937   4.115   6.610  0.1715  0.0017  0.2045
   26SAPC   C22 3421   2.165   4.191   6.621 -0.6126  0.0430 -0.2768
   26SAPC   H2R 3422   2.260   4.132   6.620 -0.1185  0.8290 -0.7855
   26SAPC   H2S 3423   2.163   4.270   6.543  0.6281  0.8958  0.5126
   26SAPC    C3 3424   2.103   3.737   6.550  0.8908 -0.1539 -0.5986
   26SAPC    HX 3425   2.174   3.750   6.466  1.0044 -2.3595 -0.9167
   26SAPC    HY 3426   2.030   3.659   6.518  1.2286 -0.4907 -0.5533
   26SAPC   O31 3427   2.157   3.686   6.677 -0.5768  0.0543  0.1416
   26SAPC   C31 3428   2.280   3.691   6.683 -0.2608  0.2164  0.9043
   26SAPC   O32 3429   2.359   3.729   6.593 -0.3294 -0.4822  0.3973
   26SAPC   C32 3430   2.318   3.624   6.807 -0.6371 -1.2359  0.1545
   26SAPC   H2X 3431   2.361   3.529   6.768 -0.4165 -0.5006 -1.4846
   26SAPC   H2Y 3432   2.230   3.599   6.870 -0.2590 -0.2993  1.0851
   26SAPC   C23 3433   2.140   4.265   6.757  0.0139 -0.0149  0.7976
   26SAPC   H3R 3434   2.034   4.282   6.786  0.0280  0.1013  0.7797
   26SAPC   H3S 3435   2.174   4.368   6.733  0.5782 -0.6830 -1.6161
   26SAPC   C24 3436   2.220   4.208   6.875 -0.0532  0.6295  0.0985
   26SAPC   H4R 3437   2.243   4.278   6.958  0.3658  2.8275 -1.7373
   26SAPC   H4S 3438   2.320   4.179   6.835 -0.4168 -0.7213  0.1385
   26SAPC   C25 3439   2.140   4.083   6.924  0.3928  0.3158 -0.4551
   26SAPC   H5R 3440   2.166   3.989   6.874  0.2646  0.3277 -0.5450
   26SAPC   C26 3441   2.047   4.078   7.023 -0.5653 -0.6212  0.4495
   26SAPC   H6R 3442   2.000   3.984   7.054 -1.8075 -0.1732 -0.0433
   26SAPC   C27 3443   2.014   4.198   7.113  0.1492  0.3539  0.1484
   26SAPC   H7R 3444   1.961   4.277   7.055 -0.0412  0.0315 -0.1230
   26SAPC   H7S 3445   2.108   4.248   7.145 -0.3379  0.7281  1.0319
   26SAPC   C28 3446   1.940   4.155   7.233 -0.2324 -0.3944 -0.4736
   26SAPC   H8R 3447   1.844   4.107   7.214 -0.9730  0.4994  0.8383
   26SAPC   C29 3448   1.970   4.177   7.367  0.5744 -0.1736 -0.2951
   26SAPC   H9R 3449   1.896   4.129   7.433  0.2789 -1.2633 -1.4005
   26SAPC  C210 3450   2.079   4.247   7.446  0.8164  0.3081 -0.2636
   26SAPC  H10R 3451   2.156   4.275   7.370  0.7293 -0.6186 -0.7128
   26SAPC  H10S 3452   2.116   4.171   7.518 -1.7932 -2.6190 -1.7615
   26SAPC  C211 3453   2.032   4.381   7.503 -0.5716  0.1066  0.4144
   26SAPC  H11R 3454   2.000   4.453   7.426 -0.1785  0.0937  0.2329
   26SAPC  C212 3455   2.059   4.416   7.632 -0.1530  0.1252  0.3664
   26SAPC  H12R 3456   2.036   4.518   7.666  0.7657  1.2796 -2.2041
   26SAPC  C213 3457   2.123   4.340   7.743  0.7465  0.2501 -0.9792
   26SAPC  H13R 3458   2.220   4.393   7.759  1.0640 -0.1856 -1.4314
   26SAPC  H13S 3459   2.160   4.242   7.707  0.1977 -0.3213 -0.0195
   26SAPC  C214 3460   2.036   4.329   7.866  0.4651 -0.0692 -0.2366
   26SAPC  H14R 3461   1.950   4.260   7.864 -0.2964  0.8464 -1.9753
   26SAPC  C215 3462   2.034   4.410   7.978 -0.2652 -0.9281 -0.3554
   26SAPC  H15R 3463   1.960   4.395   8.058  0.6793 -0.8205  0.5580
   26SAPC  C216 3464   2.138   4.521   8.001 -0.1076 -0.3228  0.4283
   26SAPC  H16R 3465   2.137   4.600   7.923 -1.0022 -0.6861  0.0664
   26SAPC  H16S 3466   2.236   4.468   8.001  1.0865  1.7230 -1.1967
   26SAPC  C217 3467   2.147   4.594   8.138 -0.3271 -0.8822 -0.0094
   26SAPC  H17R 3468   2.137   4.522   8.222 -1.4710  0.5485  1.1451
   26SAPC  H17S 3469   2.058   4.662   8.139  1.4351  1.5627 -0.4315
   26SAPC  C218 3470   2.272   4.680   8.146  0.5938 -0.2190 -0.0561
   26SAPC  H18R 3471   2.239   4.780   8.111 -3.0895 -0.8556  1.1677
   26SAPC  H18S 3472   2.349   4.635   8.079 -0.8523 -3.2826  0.1635
   26SAPC  C219 3473   2.326   4.692   8.286 -0.5800  0.5032  0.2691
   26SAPC  H19R 3474   2.417   4.754   8.272  0.5327 -1.4511 -1.6094
   26SAPC  H19S 3475   2.361   4.592   8.317  0.0861  0.2600 -1.2053
   26SAPC  C220 3476   2.234   4.762   8.387  0.8114  0.5053 -0.6945
   26SAPC  H20R 3477   2.209   4.866   8.357 -2.6187 -0.3136 -1.0762
   26SAPC  H20S 3478   2.275   4.768   8.490 -1.5472  2.6266  0.2283
   26SAPC  H20T 3479   2.138   4.707   8.399  0.1185  1.8733  0.3792
   26SAPC   C33 3480   2.428   3.707   6.879  0.2404  0.6447  0.2113
   26SAPC   H3X 3481   2.413   3.816   6.862  0.5471  0.5143 -0.9794
   26SAPC   H3Y 3482   2.515   3.675   6.819  0.3787  1.8117 -0.2345
   26SAPC   C34 3483   2.456   3.656   7.022 -0.2743  0.7514  0.0647
   26SAPC   H4X 3484   2.554   3.698   7.055  0.9088 -1.5499 -0.2574
   26SAPC   H4Y 3485   2.474   3.547   7.007  2.1422  1.4733 -3.9498
   26SAPC   C35 3486   2.350   3.691   7.124  0.0818 -0.0497 -0.0341
   26SAPC   H5X 3487   2.398   3.653   7.217  0.5682 -0.3582 -0.4065
   26SAPC   H5Y 3488   2.259   3.629   7.110 -1.1703  1.6736  0.2068
   26SAPC   C36 3489   2.302   3.834   7.132 -0.2113 -0.4042 -0.2378
   26SAPC   H6X 3490   2.226   3.859   7.055 -1.5845  0.6856  1.4057
   26SAPC   H6Y 3491   2.380   3.912   7.120 -0.6961  0.1267  0.0365
   26SAPC   C37 3492   2.240   3.863   7.273  0.2652 -0.3707  0.0251
   26SAPC   H7X 3493   2.191   3.772   7.313  0.4567 -0.1110  0.8689
   26SAPC   H7Y 3494   2.152   3.930   7.266  1.8846  1.6996 -2.7640
   26SAPC   C38 3495   2.344   3.912   7.374 -0.3984  0.3293 -0.1430
   26SAPC   H8X 3496   2.374   4.018   7.359  3.5033 -0.3368  1.6643
   26SAPC   H8Y 3497   2.438   3.854   7.363 -0.5730  0.3226 -1.7977
   26SAPC   C39 3498   2.275   3.908   7.516  0.3136  0.4118 -0.0444
   26SAPC   H9X 3499   2.244   3.803   7.533  0.7473  0.1795 -0.6595
   26SAPC   H9Y 3500   2.186   3.972   7.500 -1.1504 -1.7662 -0.9089
   26SAPC  C310 3501   2.353   3.969   7.629 -0.3441 -0.3409  0.0732
   26SAPC  H10X 3502   2.395   4.072   7.617 -0.1859  0.0222  3.0472
   26SAPC  H10Y 3503   2.442   3.905   7.646  0.0718  0.4429  0.9246
   26SAPC  C311 3504   2.291   3.962   7.767 -0.1619  0.0306 -0.0558
   26SAPC  H11X 3505   2.285   3.856   7.797  0.7654 -0.0497 -0.1211
   26SAPC  H11Y 3506   2.193   4.007   7.741 -0.5809 -0.7553  0.1400
   26SAPC  C312 3507   2.365   4.044   7.874 -0.3690 -0.6890 -0.0372
   26SAPC  H12X 3508   2.369   4.155   7.861 -0.1963 -0.8322 -1.4173
   26SAPC  H12Y 3509   2.460   3.992   7.899 -1.9032 -2.8921  1.5304
   26SAPC  C313 3510   2.296   4.027   8.010  0.0752  0.7075 -0.8982
   26SAPC  H13X 3511   2.270   3.919   8.023  0.5909  0.6198 -0.5729
   26SAPC  H13Y 3512   2.198   4.077   7.995 -1.8387 -2.4676 -0.0712
   26SAPC  C314 3513   2.377   4.065   8.130 -0.0430 -0.3155 -0.7223
   26SAPC  H14X 3514   2.432   4.157   8.101  1.9352 -1.7404 -1.6947
   26SAPC  H14Y 3515   2.452   3.983   8.127 -1.0600 -1.2343 -2.4771
   26SAPC  C315 3516   2.297   4.070   8.267  0.4856  0.2656 -1.3138
   26SAPC  H15X 3517   2.368   4.075   8.353 -0.9657  0.9922 -0.1166
   26SAPC  H15Y 3518   2.232   3.981   8.273 -0.6170  1.0974 -0.3923
   26SAPC  C316 3519   2.206   4.192   8.283  0.0614  0.3649  1.0823
   26SAPC  H16X 3520   2.131   4.185   8.202 -1.5604  1.9621  2.3520
   26SAPC  H16Y 3521   2.269   4.283   8.272  2.8070 -1.3848  1.3001
   26SAPC  C317 3522   2.123   4.187   8.408 -0.0906 -0.3010 -0.1565
   26SAPC  H17X 3523   2.188   4.211   8.495 -0.3501 -5.1706  1.6620
   26SAPC  H17Y 3524   2.105   4.080   8.429 -1.0796 -0.2890 -0.8581
   26SAPC  C318 3525   1.986   4.261   8.404  0.3466  0.9243 -0.1272
   26SAPC  H18X 3526   1.932   4.251   8.307  1.8705 -0.7257 -0.8573
   26SAPC  H18Y 3527   2.000   4.371   8.408 -0.5180  1.1598 -2.3013
   26SAPC  H18Z 3528   1.927   4.225   8.491  1.0159 -1.6107 -0.6470
   27SAPC     N 3529   0.060   3.782   6.391  1.2202 -0.1481 -0.0696
   27SAPC   C12 3530   0.102   3.790   6.544  0.1684 -0.5526  0.4354
   27SAPC  H12A 3531   0.013   3.818   6.598 -0.0822 -1.3408  0.4530
   27SAPC  H12B 3532   0.166   3.877   6.551 -1.7774  0.9372  0.4373
   27SAPC   C13 3533  -0.018   3.906   6.354 -0.2895  0.6452 -0.8662
   27SAPC  H13A 3534  -0.115   3.916   6.400 -0.6970  1.0500 -1.7750
   27SAPC  H13B 3535   0.029   3.998   6.385 -0.3544  0.6085 -0.6623
   27SAPC  H13C 3536  -0.029   3.900   6.246  1.1432 -1.6854 -0.9552
   27SAPC   C14 3537   0.174   3.762   6.301 -0.2934 -0.1755  0.0213
   27SAPC  H14A 3538   0.244   3.843   6.300  0.4421 -0.7924  0.5416
   27SAPC  H14B 3539   0.221   3.672   6.337  1.7389  0.9424  0.3078
   27SAPC  H14C 3540   0.147   3.746   6.197  0.1774  2.4364 -0.5803
   27SAPC   C15 3541  -0.023   3.672   6.374  0.2546  0.2429  0.0565
   27SAPC  H15A 3542  -0.101   3.677   6.447  1.5526 -1.1060  1.6058
   27SAPC  H15B 3543  -0.074   3.660   6.279 -0.1438  0.4464  0.2452
   27SAPC  H15C 3544   0.040   3.587   6.396  2.2151  1.5640 -0.1759
   27SAPC   C11 3545   0.174   3.678   6.615  0.4277  0.4471 -0.6660
   27SAPC  H11A 3546   0.224   3.704   6.711  1.7113 -2.5040 -0.4332
   27SAPC  H11B 3547   0.258   3.639   6.553  0.3071  1.0285 -1.2163
   27SAPC     P 3548   0.129   3.416   6.647 -0.1331 -0.1360 -0.2434
   27SAPC   O13 3549  -0.001   3.345   6.658  0.5277 -0.0682 -0.1024
   27SAPC   O14 3550   0.209   3.392   6.524 -0.0417  0.5884 -0.3675
   27SAPC   O12 3551   0.091   3.570   6.650  0.6486  0.4020  0.3667
   27SAPC   O11 3552   0.213   3.383   6.780 -0.4192 -0.5833  0.0650
   27SAPC    C1 3553   0.160   3.441   6.898  0.4216  0.4356 -0.3345
   27SAPC    HA 3554   0.068   3.501   6.888 -0.7934 -1.3343 -0.1924
   27SAPC    HB 3555   0.121   3.364   6.969 -3.3609  1.1629 -1.4206
   27SAPC    C2 3556   0.269   3.522   6.970  0.0244 -0.0451 -0.8512
   27SAPC    HS 3557   0.299   3.605   6.902  0.7263 -1.9275 -2.9320
   27SAPC   O21 3558   0.379   3.437   7.010 -0.3550 -0.0493 -0.3461
   27SAPC   C21 3559   0.488   3.498   7.063 -0.0527  0.7036  0.3053
   27SAPC   O22 3560   0.498   3.617   7.074  0.0594 -0.6126  0.1141
   27SAPC   C22 3561   0.572   3.390   7.137  0.6196  0.0692  0.7310
   27SAPC   H2R 3562   0.496   3.345   7.205 -1.1722  2.2356  0.2934
   27SAPC   H2S 3563   0.608   3.314   7.065 -0.0689 -2.1505  2.5837
   27SAPC    C3 3564   0.193   3.581   7.096  0.5185 -0.7137  0.2581
   27SAPC    HX 3565   0.262   3.645   7.156 -2.0235  1.8692  0.6239
   27SAPC    HY 3566   0.163   3.499   7.164  2.0521 -0.4828  1.2708
   27SAPC   O31 3567   0.073   3.661   7.049  0.2037 -0.2480 -0.0703
   27SAPC   C31 3568   0.091   3.782   7.006  1.0217 -0.3406 -0.7916
   27SAPC   O32 3569   0.195   3.835   6.994 -0.2512 -0.0264 -0.3533
   27SAPC   C32 3570  -0.052   3.847   6.997 -0.3856  0.2734  0.3465
   27SAPC   H2X 3571  -0.130   3.769   7.010  1.1662 -0.9855  2.9609
   27SAPC   H2Y 3572  -0.056   3.888   6.894  1.4959  1.4816  0.6966
   27SAPC   C23 3573   0.683   3.443   7.223 -0.1289 -0.0915 -0.0092
   27SAPC   H3R 3574   0.722   3.537   7.179 -1.2910 -0.3024 -1.5832
   27SAPC   H3S 3575   0.768   3.372   7.232 -0.1046  0.1108  1.8768
   27SAPC   C24 3576   0.649   3.482   7.368  0.0390 -0.4983  0.3574
   27SAPC   H4R 3577   0.578   3.567   7.365  0.0945 -0.4699 -0.5398
   27SAPC   H4S 3578   0.743   3.522   7.410  0.3643 -1.8141  0.9360
   27SAPC   C25 3579   0.597   3.367   7.449  0.2283  0.3446  0.2416
   27SAPC   H5R 3580   0.659   3.277   7.446 -0.1214 -0.0721  2.9551
   27SAPC   C26 3581   0.475   3.361   7.501  0.5970  0.6966  0.5094
   27SAPC   H6R 3582   0.447   3.279   7.569 -2.7321 -0.1231 -1.6249
   27SAPC   C27 3583   0.381   3.474   7.491  0.0249 -1.1137  0.2319
   27SAPC   H7R 3584   0.367   3.501   7.384 -1.9160 -0.8140  0.5336
   27SAPC   H7S 3585   0.422   3.568   7.536 -1.9728  0.9543 -1.9607
   27SAPC   C28 3586   0.240   3.442   7.550 -1.1189  0.5960 -0.1206
   27SAPC   H8R 3587   0.181   3.371   7.489  2.0055 -0.8816 -1.7010
   27SAPC   C29 3588   0.193   3.492   7.665 -0.6663  0.4927  0.1296
   27SAPC   H9R 3589   0.094   3.459   7.700 -0.8915 -1.7192 -2.3240
   27SAPC  C210 3590   0.261   3.591   7.755 -0.7774  0.1276  0.0033
   27SAPC  H10R 3591   0.230   3.696   7.739  1.4858  0.5473 -2.1664
   27SAPC  H10S 3592   0.371   3.589   7.736 -1.0623 -2.8754 -2.0698
   27SAPC  C211 3593   0.229   3.564   7.901 -0.2477 -0.0382 -0.1564
   27SAPC  H11R 3594   0.123   3.574   7.927  0.3666  1.5439  2.0756
   27SAPC  C212 3595   0.317   3.516   7.992  0.1616  0.0091 -0.1897
   27SAPC  H12R 3596   0.272   3.485   8.087 -2.9982 -1.2243 -1.9349
   27SAPC  C213 3597   0.462   3.473   7.968  0.9516 -0.0278 -0.0577
   27SAPC  H13R 3598   0.527   3.553   8.012  1.5873 -1.8711  2.6338
   27SAPC  H13S 3599   0.495   3.466   7.863  1.2182  0.5606 -0.0220
   27SAPC  C214 3600   0.499   3.340   8.030 -0.5053 -0.3552 -0.3075
   27SAPC  H14R 3601   0.503   3.249   7.968  0.6704 -0.8144  0.4139
   27SAPC  C215 3602   0.531   3.314   8.162 -0.2895  0.4832  0.9522
   27SAPC  H15R 3603   0.544   3.207   8.181  3.3655  0.6319  0.1413
   27SAPC  C216 3604   0.538   3.416   8.271 -0.3690  0.0512 -0.0542
   27SAPC  H16R 3605   0.453   3.414   8.343  0.8788 -1.6830  1.4713
   27SAPC  H16S 3606   0.531   3.516   8.223  2.2479  1.0359  1.3943
   27SAPC  C217 3607   0.672   3.395   8.343 -0.1165 -0.3701  0.5481
   27SAPC  H17R 3608   0.683   3.484   8.408 -1.0150 -0.6522  1.1042
   27SAPC  H17S 3609   0.765   3.415   8.284  0.2278 -0.1042  1.1699
   27SAPC  C218 3610   0.684   3.272   8.432  0.7436  0.9116  0.4600
   27SAPC  H18R 3611   0.679   3.188   8.360  3.0825  2.1152 -1.2450
   27SAPC  H18S 3612   0.603   3.275   8.509 -0.4096  0.1546 -0.6833
   27SAPC  C219 3613   0.825   3.277   8.496 -0.1537  0.1590  0.0919
   27SAPC  H19R 3614   0.828   3.370   8.557 -0.3053  0.1861  0.0575
   27SAPC  H19S 3615   0.904   3.287   8.419  1.2021 -0.8276  1.2896
   27SAPC  C220 3616   0.869   3.152   8.577  0.0178 -0.2237  0.4728
   27SAPC  H20R 3617   0.975   3.149   8.609 -0.4502 -1.3058  2.0745
   27SAPC  H20S 3618   0.855   3.071   8.503 -2.1266  0.0358  0.5066
   27SAPC  H20T 3619   0.813   3.134   8.671  2.8148 -0.2261  2.2351
   27SAPC   C33 3620  -0.078   3.957   7.095 -0.3076  0.4963 -0.8236
   27SAPC   H3X 3621  -0.177   4.006   7.079 -0.8830 -0.4694 -0.3330
   27SAPC   H3Y 3622  -0.004   4.040   7.098  0.3525 -0.0745  2.1942
   27SAPC   C34 3623  -0.078   3.918   7.241 -0.3147 -0.2829 -0.4277
   27SAPC   H4X 3624   0.024   3.889   7.273 -0.3759 -1.3982 -1.2165
   27SAPC   H4Y 3625  -0.137   3.826   7.262  0.7111 -0.8252  0.1422
   27SAPC   C35 3626  -0.131   4.028   7.342  0.4313  0.1771  0.8964
   27SAPC   H5X 3627  -0.238   4.040   7.315  0.3687 -0.8690  0.6495
   27SAPC   H5Y 3628  -0.072   4.119   7.321  2.2920 -1.4335 -1.3890
   27SAPC   C36 3629  -0.112   3.991   7.495  0.2542  0.4377  0.6742
   27SAPC   H6X 3630  -0.167   3.901   7.529  1.9988 -0.8021  0.3880
   27SAPC   H6Y 3631  -0.159   4.069   7.558 -1.2490 -0.1562  0.3224
   27SAPC   C37 3632   0.033   3.970   7.544 -0.6682  0.4667 -1.2213
   27SAPC   H7X 3633   0.084   4.060   7.502 -1.7793  1.0979 -1.2435
   27SAPC   H7Y 3634   0.080   3.873   7.517  0.5110  0.5787  0.3036
   27SAPC   C38 3635   0.062   3.987   7.696  0.9910 -0.1964 -0.4315
   27SAPC   H8X 3636   0.046   4.092   7.727  0.7327 -0.8799  1.9367
   27SAPC   H8Y 3637   0.172   3.979   7.705  0.8163 -1.0295  1.2351
   27SAPC   C39 3638  -0.018   3.900   7.790 -0.2356  0.2300 -0.4034
   27SAPC   H9X 3639  -0.039   3.799   7.749  1.2983 -0.5488  0.6676
   27SAPC   H9Y 3640  -0.122   3.939   7.802 -0.7826 -1.6041  1.2912
   27SAPC  C310 3641   0.046   3.886   7.926 -0.3567 -0.5331 -0.3077
   27SAPC  H10X 3642   0.148   3.847   7.908 -0.3502  0.1558 -1.8590
   27SAPC  H10Y 3643  -0.018   3.820   7.989  1.1951 -1.4019  0.4153
   27SAPC  C311 3644   0.032   4.017   8.008  0.1904  0.5081  0.1794
   27SAPC  H11X 3645  -0.074   4.049   8.018  0.0014 -0.2458  0.7126
   27SAPC  H11Y 3646   0.089   4.093   7.951 -0.2726 -0.4441 -1.6217
   27SAPC  C312 3647   0.099   4.010   8.147  0.2233  0.2412  0.0978
   27SAPC  H12X 3648   0.200   4.055   8.140  0.1607  0.3604 -0.0496
   27SAPC  H12Y 3649   0.104   3.906   8.185  1.2640  0.6292  1.0605
   27SAPC  C313 3650   0.033   4.105   8.253 -0.3309 -0.0750  0.3295
   27SAPC  H13X 3651  -0.077   4.099   8.235  0.0036  0.2585 -2.0716
   27SAPC  H13Y 3652   0.062   4.209   8.230 -1.5016  0.3333  0.6201
   27SAPC  C314 3653   0.065   4.087   8.406 -0.6531 -0.5829 -0.2488
   27SAPC  H14X 3654   0.169   4.047   8.415  0.8593  2.5645 -1.9462
   27SAPC  H14Y 3655  -0.008   4.009   8.435 -0.2736 -0.7292  0.3211
   27SAPC  C315 3656   0.032   4.207   8.495 -0.1270 -0.0914  0.0587
   27SAPC  H15X 3657   0.129   4.261   8.496 -0.5403  0.6632  1.9376
   27SAPC  H15Y 3658   0.008   4.164   8.594  0.3678 -1.1760 -0.2742
   27SAPC  C316 3659  -0.083   4.294   8.452 -0.2066 -0.3095 -0.0382
   27SAPC  H16X 3660  -0.165   4.224   8.429  1.0445 -2.0374  0.5578
   27SAPC  H16Y 3661  -0.052   4.361   8.368 -0.6959  0.3511  0.3036
   27SAPC  C317 3662  -0.100   4.391   8.565  0.1289 -0.5336  1.1109
   27SAPC  H17X 3663  -0.106   4.344   8.665 -2.6663 -1.2425  0.7076
   27SAPC  H17Y 3664  -0.197   4.443   8.547  0.8388  0.4773  0.0624
   27SAPC  C318 3665   0.005   4.503   8.580  0.6137  0.4582  0.3722
   27SAPC  H18X 3666  -0.027   4.585   8.648 -0.6054 -0.5360  1.0325
   27SAPC  H18Y 3667   0.028   4.557   8.485  1.0488  0.2913  0.3824
   27SAPC  H18Z 3668   0.101   4.460   8.615  0.3199  0.3463  1.0573
   28SAPC     N 3669   0.057   0.129   6.133 -0.5062 -0.1936 -0.6602
   28SAPC   C12 3670  -0.051   0.171   6.027 -0.7123 -0.6171 -0.1131
   28SAPC  H12A 3671  -0.097   0.079   5.993  0.9799 -1.4924 -0.1017
   28SAPC  H12B 3672   0.004   0.198   5.939  2.4178 -2.3847  1.1597
   28SAPC   C13 3673   0.137   0.248   6.188 -0.1912 -0.2410  0.0507
   28SAPC  H13A 3674   0.079   0.339   6.188  1.2049  0.6813  0.0169
   28SAPC  H13B 3675   0.180   0.236   6.286 -1.3650  0.6479  0.7061
   28SAPC  H13C 3676   0.221   0.275   6.126  0.2425 -1.4893  0.0645
   28SAPC   C14 3677  -0.011   0.065   6.244 -0.5846 -0.0355  0.3608
   28SAPC  H14A 3678  -0.052  -0.030   6.215  1.0921 -0.6734 -0.0105
   28SAPC  H14B 3679   0.058   0.043   6.325  0.9247 -0.4688 -0.9921
   28SAPC  H14C 3680  -0.096   0.120   6.281 -0.3179 -0.1905  1.2328
   28SAPC   C15 3681   0.150   0.034   6.082 -0.0562 -0.7897  0.3128
   28SAPC  H15A 3682   0.192   0.063   5.987 -3.0157  1.3395 -0.4767
   28SAPC  H15B 3683   0.235   0.033   6.149  0.6533  1.4243 -0.4499
   28SAPC  H15C 3684   0.110  -0.065   6.070  0.9150 -1.1370 -0.2257
   28SAPC   C11 3685  -0.148   0.280   6.074 -0.3620 -0.2059  0.5701
   28SAPC  H11A 3686  -0.218   0.250   6.155  0.8886  0.6299  2.0192
   28SAPC  H11B 3687  -0.218   0.299   5.990  0.6479  0.3574 -0.1676
   28SAPC     P 3688  -0.151   0.513   6.194  0.0704 -0.1639  0.0524
   28SAPC   O13 3689  -0.081   0.639   6.162  0.3677 -0.2902  0.1416
   28SAPC   O14 3690  -0.294   0.515   6.165 -0.1258 -0.3383 -0.0415
   28SAPC   O12 3691  -0.082   0.400   6.101 -0.3271  0.1722 -0.3054
   28SAPC   O11 3692  -0.121   0.461   6.335 -0.0998 -0.0806 -0.1066
   28SAPC    C1 3693  -0.227   0.405   6.409 -0.1449  0.0737 -0.0928
   28SAPC    HA 3694  -0.308   0.481   6.414  1.8976  2.3416  0.6980
   28SAPC    HB 3695  -0.257   0.302   6.380 -0.2548  0.1317 -0.1853
   28SAPC    C2 3696  -0.196   0.379   6.558 -0.6140  0.1826 -0.2851
   28SAPC    HS 3697  -0.284   0.360   6.624  0.5434  1.3419  1.6579
   28SAPC   O21 3698  -0.112   0.474   6.613  0.3363  0.4208 -0.2401
   28SAPC   C21 3699  -0.164   0.596   6.622 -0.7248 -0.8651  0.1366
   28SAPC   O22 3700  -0.282   0.623   6.602 -0.5077 -0.3509  0.7329
   28SAPC   C22 3701  -0.055   0.699   6.659  0.0772 -0.2053 -0.3557
   28SAPC   H2R 3702   0.028   0.646   6.712  0.5219  0.8190 -0.0096
   28SAPC   H2S 3703  -0.012   0.739   6.565 -0.4573  2.7365  0.5622
   28SAPC    C3 3704  -0.109   0.251   6.575 -0.8202  0.2806 -0.0226
   28SAPC    HX 3705  -0.016   0.270   6.516  1.9433  0.7411  4.0616
   28SAPC    HY 3706  -0.163   0.174   6.516 -0.2128  0.2868 -0.6060
   28SAPC   O31 3707  -0.078   0.229   6.710 -0.0791  0.0749 -0.2929
   28SAPC   C31 3708  -0.138   0.123   6.763 -0.3029  0.3498 -0.1654
   28SAPC   O32 3709  -0.209   0.039   6.706  0.5390 -0.0072  0.0653
   28SAPC   C32 3710  -0.096   0.113   6.909 -0.4503 -0.6363 -0.4512
   28SAPC   H2X 3711   0.014   0.105   6.925 -0.6706  0.0314  1.6967
   28SAPC   H2Y 3712  -0.149   0.020   6.937  1.4338 -1.0869  2.0315
   28SAPC   C23 3713  -0.104   0.816   6.758  0.5001 -0.9863 -0.6742
   28SAPC   H3R 3714  -0.203   0.844   6.716  1.4888  0.8800 -1.8683
   28SAPC   H3S 3715  -0.032   0.897   6.734  1.5906 -1.9725 -0.8488
   28SAPC   C24 3716  -0.102   0.781   6.906 -0.3321  0.4496 -0.0852
   28SAPC   H4R 3717  -0.001   0.751   6.942  0.5216  0.1616 -2.4791
   28SAPC   H4S 3718  -0.119   0.870   6.969 -1.1469  0.7832 -0.7622
   28SAPC   C25 3719  -0.191   0.667   6.942 -0.5912  0.6714  0.1918
   28SAPC   H5R 3720  -0.256   0.628   6.862  0.5646  1.0876 -0.9819
   28SAPC   C26 3721  -0.183   0.598   7.063 -0.1806 -0.1725 -0.7144
   28SAPC   H6R 3722  -0.256   0.516   7.067  0.9688 -1.2947 -1.8832
   28SAPC   C27 3723  -0.100   0.621   7.189 -0.6817  0.4253  0.0209
   28SAPC   H7R 3724   0.002   0.659   7.170  1.1299 -2.8692  2.2340
   28SAPC   H7S 3725  -0.107   0.529   7.251 -1.7545 -0.6808 -1.6572
   28SAPC   C28 3726  -0.158   0.728   7.277 -0.0963 -0.0934 -0.4230
   28SAPC   H8R 3727  -0.248   0.777   7.237 -0.1403  0.6324  0.5519
   28SAPC   C29 3728  -0.128   0.761   7.400 -0.1499  0.5971  0.5397
   28SAPC   H9R 3729  -0.191   0.841   7.443 -0.9444  0.3507 -0.1421
   28SAPC  C210 3730  -0.037   0.689   7.496  0.1158  0.2180  1.2452
   28SAPC  H10R 3731   0.041   0.633   7.440 -1.0146  1.0733 -1.2738
   28SAPC  H10S 3732  -0.096   0.629   7.569 -1.4606 -0.1699 -0.3148
   28SAPC  C211 3733   0.023   0.792   7.584 -0.7115  0.0007 -0.0232
   28SAPC  H11R 3734   0.106   0.835   7.527 -1.2568 -0.6350 -1.3398
   28SAPC  C212 3735  -0.004   0.830   7.713 -0.0208 -0.2406  0.1910
   28SAPC  H12R 3736   0.061   0.909   7.752 -1.4453  0.8611  0.4121
   28SAPC  C213 3737  -0.117   0.782   7.801 -0.3484  0.0777 -0.0794
   28SAPC  H13R 3738  -0.174   0.703   7.747 -2.9283  1.3097  0.6557
   28SAPC  H13S 3739  -0.187   0.867   7.812  0.2820  0.4621  1.1269
   28SAPC  C214 3740  -0.057   0.725   7.923 -0.5067  0.0362  0.3068
   28SAPC  H14R 3741   0.026   0.659   7.898 -0.3874  0.5801 -0.7876
   28SAPC  C215 3742  -0.088   0.769   8.047  0.2528 -0.3597  0.0025
   28SAPC  H15R 3743  -0.039   0.717   8.131 -0.5814 -2.2075 -0.6202
   28SAPC  C216 3744  -0.196   0.867   8.085  0.1277  0.7851 -0.1369
   28SAPC  H16R 3745  -0.279   0.806   8.125  0.8744 -0.9286 -1.0828
   28SAPC  H16S 3746  -0.250   0.922   8.005 -1.7721 -0.4253  0.2686
   28SAPC  C217 3747  -0.147   0.974   8.186 -0.6457 -0.1765  0.7237
   28SAPC  H17R 3748  -0.233   1.039   8.210 -0.8360  0.6731 -1.9411
   28SAPC  H17S 3749  -0.077   1.040   8.131 -0.7935  0.9022  1.7947
   28SAPC  C218 3750  -0.079   0.918   8.312 -0.3168 -0.3398 -0.2055
   28SAPC  H18R 3751   0.012   0.862   8.283  1.1113  0.7360  1.9796
   28SAPC  H18S 3752  -0.153   0.845   8.351  1.5929 -2.7568 -0.8213
   28SAPC  C219 3753  -0.043   1.024   8.416  0.4249  0.4122  0.1955
   28SAPC  H19R 3754  -0.142   1.046   8.461  0.6087  3.3444 -0.5690
   28SAPC  H19S 3755  -0.012   1.124   8.377 -0.5011  0.2692 -0.9758
   28SAPC  C220 3756   0.064   0.974   8.514 -0.0580 -0.2949  0.6251
   28SAPC  H20R 3757   0.043   0.869   8.544  1.0560 -0.1175  2.1515
   28SAPC  H20S 3758   0.052   1.034   8.606 -0.4848  0.8849 -0.1840
   28SAPC  H20T 3759   0.171   0.981   8.485  0.2707  0.4868  1.9491
   28SAPC   C33 3760  -0.162   0.215   7.005 -0.2946 -0.9612 -0.8713
   28SAPC   H3X 3761  -0.267   0.209   6.968 -0.2785  0.2243 -1.1515
   28SAPC   H3Y 3762  -0.122   0.318   6.991  0.3776 -0.9801  0.6623
   28SAPC   C34 3763  -0.142   0.181   7.154  0.1660 -0.2766  0.3954
   28SAPC   H4X 3764  -0.042   0.222   7.177  0.3879 -0.3151 -0.4675
   28SAPC   H4Y 3765  -0.138   0.070   7.164  2.6706 -0.2427  0.3803
   28SAPC   C35 3766  -0.230   0.264   7.249  0.1404  0.8022  0.0968
   28SAPC   H5X 3767  -0.329   0.215   7.243  0.5419  0.0449 -0.6367
   28SAPC   H5Y 3768  -0.227   0.372   7.225  1.5196  0.2965 -2.3963
   28SAPC   C36 3769  -0.181   0.249   7.394  0.3560  0.1029 -0.0985
   28SAPC   H6X 3770  -0.087   0.306   7.405  0.1188  0.1162  2.4742
   28SAPC   H6Y 3771  -0.160   0.143   7.417 -0.8649  0.2465  2.0010
   28SAPC   C37 3772  -0.284   0.286   7.501  0.0898  0.1479 -0.5394
   28SAPC   H7X 3773  -0.368   0.214   7.510  0.8441 -0.5750  1.2819
   28SAPC   H7Y 3774  -0.316   0.388   7.471 -0.3582  0.0243 -0.4936
   28SAPC   C38 3775  -0.212   0.296   7.634  0.1158  0.1307  0.1193
   28SAPC   H8X 3776  -0.114   0.349   7.629  0.4606 -0.5194 -0.0469
   28SAPC   H8Y 3777  -0.183   0.191   7.657  0.2084 -0.5989 -2.9825
   28SAPC   C39 3778  -0.298   0.357   7.744 -0.3622 -0.2546 -0.1565
   28SAPC   H9X 3779  -0.397   0.306   7.749 -0.6506  0.4294  3.6184
   28SAPC   H9Y 3780  -0.302   0.465   7.717  0.4184 -0.5455 -1.5806
   28SAPC  C310 3781  -0.233   0.341   7.884  0.1177 -0.0696 -0.1230
   28SAPC  H10X 3782  -0.127   0.372   7.874  0.6920 -1.6327  0.8226
   28SAPC  H10Y 3783  -0.232   0.231   7.899  0.7974 -0.3492 -2.0374
   28SAPC  C311 3784  -0.310   0.419   7.994 -0.0128  0.1398  0.9542
   28SAPC  H11X 3785  -0.413   0.379   8.008 -1.1218  1.9816 -1.2260
   28SAPC  H11Y 3786  -0.321   0.527   7.970  0.2728 -0.0329 -0.0022
   28SAPC  C312 3787  -0.240   0.415   8.127 -0.2995 -0.1607  0.1503
   28SAPC  H12X 3788  -0.144   0.470   8.116  1.0922 -2.6018 -0.7245
   28SAPC  H12Y 3789  -0.222   0.312   8.162 -0.8391  0.6817  3.1460
   28SAPC  C313 3790  -0.322   0.480   8.235 -0.1650 -0.0204 -0.7873
   28SAPC  H13X 3791  -0.398   0.401   8.255 -3.3455  2.4744 -2.2719
   28SAPC  H13Y 3792  -0.385   0.569   8.214 -1.2767 -0.8999 -1.2900
   28SAPC  C314 3793  -0.253   0.487   8.373 -0.6914  0.7143  0.1847
   28SAPC  H14X 3794  -0.182   0.570   8.354 -0.8410  1.6486  3.1846
   28SAPC  H14Y 3795  -0.195   0.398   8.405 -1.1262  0.7237  1.0087
   28SAPC  C315 3796  -0.356   0.532   8.475 -0.5881  0.6346 -0.0591
   28SAPC  H15X 3797  -0.430   0.449   8.480  0.5091 -0.3617  0.1069
   28SAPC  H15Y 3798  -0.400   0.628   8.439  1.4138  1.0576 -1.5772
   28SAPC  C316 3799  -0.298   0.562   8.607 -1.1910 -0.3503 -0.8438
   28SAPC  H16X 3800  -0.288   0.670   8.631  1.6753 -0.4585 -1.2388
   28SAPC  H16Y 3801  -0.194   0.523   8.612 -0.6732  0.8517 -1.7576
   28SAPC  C317 3802  -0.375   0.498   8.714 -0.5513 -0.1656  0.7350
   28SAPC  H17X 3803  -0.317   0.509   8.808  1.9916  2.7888 -1.0101
   28SAPC  H17Y 3804  -0.386   0.388   8.698 -3.4088 -0.4871  3.5710
   28SAPC  C318 3805  -0.513   0.555   8.742 -0.1123 -0.2133  0.4669
   28SAPC  H18X 3806  -0.571   0.487   8.808 -0.1955  0.5250  1.1745
   28SAPC  H18Y 3807  -0.572   0.585   8.652 -0.2233  2.0210  1.2037
   28SAPC  H18Z 3808  -0.499   0.651   8.796 -0.9177  0.2728 -0.1527
   29SAPC     N 3809   1.617   4.291   6.401  0.2902 -0.3707  0.6333
   29SAPC   C12 3810   1.483   4.362   6.409 -0.0267  0.3740 -0.0746
   29SAPC  H12A 3811   1.483   4.452   6.469 -3.3923 -0.5141  1.4679
   29SAPC  H12B 3812   1.417   4.292   6.457  1.3830 -0.1871  1.1556
   29SAPC   C13 3813   1.717   4.384   6.346  0.5356 -0.2287 -0.9138
   29SAPC  H13A 3814   1.718   4.374   6.239 -0.9386  0.2060 -0.9853
   29SAPC  H13B 3815   1.711   4.489   6.370 -0.3898 -0.3558 -0.5303
   29SAPC  H13C 3816   1.817   4.353   6.373 -0.0082  0.7653  2.9511
   29SAPC   C14 3817   1.651   4.258   6.540  0.2549  0.3031  0.3689
   29SAPC  H14A 3818   1.656   4.352   6.594 -1.6031  0.3383  0.5483
   29SAPC  H14B 3819   1.575   4.191   6.578  1.3563 -0.9601  0.4103
   29SAPC  H14C 3820   1.748   4.211   6.547  0.6605  0.8812 -1.1167
   29SAPC   C15 3821   1.610   4.163   6.316  0.3783 -1.0496 -1.1900
   29SAPC  H15A 3822   1.687   4.098   6.355  1.4079  1.3193  1.0535
   29SAPC  H15B 3823   1.521   4.105   6.337 -0.3824  0.6917  0.7573
   29SAPC  H15C 3824   1.628   4.185   6.212 -0.1148  1.0515 -0.8628
   29SAPC   C11 3825   1.425   4.411   6.273 -0.6722  0.5930 -0.2367
   29SAPC  H11A 3826   1.403   4.326   6.206 -0.9684  0.3352  0.1831
   29SAPC  H11B 3827   1.491   4.476   6.212  0.6971 -1.2264 -0.7877
   29SAPC     P 3828   1.274   4.629   6.295 -0.1445 -0.6290 -0.2340
   29SAPC   O13 3829   1.346   4.687   6.181 -0.2702 -0.7628  0.2436
   29SAPC   O14 3830   1.130   4.657   6.307 -0.2491  0.0829  0.2715
   29SAPC   O12 3831   1.305   4.477   6.308  0.3889  0.9525 -0.2708
   29SAPC   O11 3832   1.340   4.688   6.426 -0.2709 -0.3021 -0.4318
   29SAPC    C1 3833   1.290   4.658   6.555 -0.2901  0.0706 -0.0648
   29SAPC    HA 3834   1.208   4.728   6.581  0.2944  0.5381  0.5759
   29SAPC    HB 3835   1.250   4.555   6.564  1.1909 -0.3723  2.7495
   29SAPC    C2 3836   1.399   4.682   6.656  0.6845  0.9443 -0.9353
   29SAPC    HS 3837   1.494   4.630   6.634  1.3480  0.9530  1.5952
   29SAPC   O21 3838   1.352   4.639   6.783 -0.1392 -0.6254 -0.7577
   29SAPC   C21 3839   1.368   4.506   6.806 -0.8103  0.2961 -0.0136
   29SAPC   O22 3840   1.429   4.431   6.727 -0.0349 -0.7109  0.1583
   29SAPC   C22 3841   1.330   4.477   6.955 -0.2425  0.1807 -0.7809
   29SAPC   H2R 3842   1.272   4.568   6.980  0.4801 -0.1356  2.3740
   29SAPC   H2S 3843   1.274   4.381   6.965 -0.8006  0.5772  0.0111
   29SAPC    C3 3844   1.444   4.831   6.660  0.1958 -0.3260 -0.6282
   29SAPC    HX 3845   1.355   4.896   6.644  0.0369 -0.7205 -1.3715
   29SAPC    HY 3846   1.501   4.857   6.568 -1.9786  2.7000 -1.2819
   29SAPC   O31 3847   1.521   4.872   6.775  0.7259 -0.3958 -0.3241
   29SAPC   C31 3848   1.484   4.997   6.826  0.4316 -0.0359 -0.0484
   29SAPC   O32 3849   1.412   5.081   6.770 -0.2675  0.1979 -0.4678
   29SAPC   C32 3850   1.538   5.012   6.960 -0.3136 -0.4412 -0.4420
   29SAPC   H2X 3851   1.648   5.019   6.946 -0.2180 -1.8651 -0.6194
   29SAPC   H2Y 3852   1.535   4.913   7.010 -2.5997  0.2185  0.8554
   29SAPC   C23 3853   1.437   4.482   7.069  0.3426  0.2792 -0.3492
   29SAPC   H3R 3854   1.384   4.484   7.167 -0.4750  0.9006 -0.7954
   29SAPC   H3S 3855   1.483   4.583   7.062  0.9084  0.0542 -0.0311
   29SAPC   C24 3856   1.524   4.352   7.071  0.2267  0.2786 -0.5410
   29SAPC   H4R 3857   1.581   4.356   6.975 -2.5603  2.6824 -2.2572
   29SAPC   H4S 3858   1.455   4.266   7.061  0.0305  0.3126  0.4275
   29SAPC   C25 3859   1.607   4.342   7.193  0.0778 -0.5758 -0.2025
   29SAPC   H5R 3860   1.709   4.384   7.186 -0.1723  0.5815  2.1519
   29SAPC   C26 3861   1.577   4.292   7.313  0.4049 -0.6698 -0.1575
   29SAPC   H6R 3862   1.665   4.292   7.380  0.7835 -0.4990 -0.6569
   29SAPC   C27 3863   1.448   4.228   7.363 -0.6496  0.0725 -1.2176
   29SAPC   H7R 3864   1.396   4.179   7.278 -2.7967  1.3545 -0.7113
   29SAPC   H7S 3865   1.375   4.302   7.402 -0.2108  0.1078 -0.4538
   29SAPC   C28 3866   1.473   4.136   7.480  1.0478  0.0937  0.2118
   29SAPC   H8R 3867   1.489   4.031   7.450 -2.4476 -0.3136 -0.7060
   29SAPC   C29 3868   1.482   4.170   7.610  0.6542  0.3219  0.6239
   29SAPC   H9R 3869   1.467   4.089   7.682 -2.2219  0.5696  0.4058
   29SAPC  C210 3870   1.469   4.309   7.668 -0.5682 -0.3328  0.0082
   29SAPC  H10R 3871   1.397   4.297   7.751  2.0856 -4.7706  2.0515
   29SAPC  H10S 3872   1.410   4.382   7.609 -1.5754 -0.4086  0.9025
   29SAPC  C211 3873   1.600   4.361   7.718 -0.6292 -0.2027 -0.2171
   29SAPC  H11R 3874   1.673   4.398   7.645  4.0467 -1.4128  3.3269
   29SAPC  C212 3875   1.639   4.373   7.844  0.3162  0.6537  0.1400
   29SAPC  H12R 3876   1.733   4.419   7.877  2.7981 -3.2279 -0.8425
   29SAPC  C213 3877   1.559   4.342   7.968 -0.1739  0.3171  0.1279
   29SAPC  H13R 3878   1.615   4.277   8.039  0.7935  0.6029 -0.3402
   29SAPC  H13S 3879   1.472   4.279   7.940  1.2402 -1.6060 -0.1827
   29SAPC  C214 3880   1.516   4.467   8.043 -0.6476  0.1043 -0.1649
   29SAPC  H14R 3881   1.442   4.528   7.990  1.3877  1.3856 -1.6416
   29SAPC  C215 3882   1.558   4.511   8.165 -0.3287  0.3162 -0.3239
   29SAPC  H15R 3883   1.518   4.605   8.205 -2.7187 -1.2170  1.1607
   29SAPC  C216 3884   1.651   4.438   8.255 -0.1061 -0.1348 -0.7411
   29SAPC  H16R 3885   1.752   4.445   8.210  0.9736  1.0351  1.6536
   29SAPC  H16S 3886   1.608   4.338   8.276  0.6724 -0.5511 -1.0856
   29SAPC  C217 3887   1.676   4.512   8.386 -0.0563  0.0252 -0.0361
   29SAPC  H17R 3888   1.741   4.443   8.444  2.2825 -0.1795 -2.6404
   29SAPC  H17S 3889   1.583   4.511   8.445 -0.8734 -0.5621 -1.2856
   29SAPC  C218 3890   1.747   4.646   8.387  0.4797  0.2083  0.5114
   29SAPC  H18R 3891   1.682   4.724   8.342 -0.6099 -2.1566 -2.3885
   29SAPC  H18S 3892   1.845   4.639   8.335  1.0166 -1.0100  1.6231
   29SAPC  C219 3893   1.765   4.704   8.533  0.7628  0.0184  0.3102
   29SAPC  H19R 3894   1.663   4.732   8.567  1.1907 -0.5676  2.2187
   29SAPC  H19S 3895   1.806   4.807   8.536 -1.7729  1.0881  2.0523
   29SAPC  C220 3896   1.833   4.609   8.626 -0.1629 -0.0933  0.4001
   29SAPC  H20R 3897   1.774   4.517   8.644 -1.0894 -0.0454 -1.9500
   29SAPC  H20S 3898   1.887   4.655   8.711  0.6233 -1.1152  0.4724
   29SAPC  H20T 3899   1.921   4.582   8.565  0.2590  1.2768  0.3811
   29SAPC   C33 3900   1.484   5.129   7.053  0.0004  0.1750  0.3908
   29SAPC   H3X 3901   1.376   5.116   7.074  0.3699 -0.6739  1.8572
   29SAPC   H3Y 3902   1.483   5.218   6.987 -0.5648 -0.6257 -0.7164
   29SAPC   C34 3903   1.576   5.156   7.174  0.0710  0.2747  0.3474
   29SAPC   H4X 3904   1.674   5.169   7.124 -0.5651 -1.0326 -1.3303
   29SAPC   H4Y 3905   1.575   5.059   7.230  3.5823 -0.6572 -0.9612
   29SAPC   C35 3906   1.537   5.270   7.264  0.3478 -0.0878  0.1023
   29SAPC   H5X 3907   1.445   5.236   7.317 -1.2151  1.1592 -1.6813
   29SAPC   H5Y 3908   1.515   5.350   7.190 -1.2076 -0.0562  0.5737
   29SAPC   C36 3909   1.645   5.321   7.365 -0.2996  0.3098  0.1956
   29SAPC   H6X 3910   1.740   5.331   7.308  1.4316  1.2624  3.0637
   29SAPC   H6Y 3911   1.662   5.245   7.444 -2.9753 -0.8416 -0.2460
   29SAPC   C37 3912   1.614   5.454   7.435 -0.2131  0.7372  0.2922
   29SAPC   H7X 3913   1.585   5.528   7.358 -1.1294 -0.7752 -0.8587
   29SAPC   H7Y 3914   1.703   5.503   7.481 -1.9452  2.8300  1.5938
   29SAPC   C38 3915   1.500   5.442   7.537 -0.1379  0.1075 -0.2746
   29SAPC   H8X 3916   1.423   5.374   7.493  0.0989  0.2490 -0.9158
   29SAPC   H8Y 3917   1.457   5.544   7.542 -1.5556 -0.1827 -3.7953
   29SAPC   C39 3918   1.555   5.387   7.665 -0.0861  0.1170 -0.3560
   29SAPC   H9X 3919   1.576   5.282   7.634  0.0844 -0.1247  0.5593
   29SAPC   H9Y 3920   1.482   5.389   7.748  1.2323  0.3250  0.8221
   29SAPC  C310 3921   1.690   5.434   7.731  0.2302  0.0306 -0.1445
   29SAPC  H10X 3922   1.680   5.543   7.754  2.5278  0.4992 -1.0745
   29SAPC  H10Y 3923   1.776   5.418   7.662  0.1550  0.7183 -0.4104
   29SAPC  C311 3924   1.728   5.352   7.857 -0.6077  0.5208  1.1099
   29SAPC  H11X 3925   1.835   5.381   7.862 -0.7172  0.9336  1.1239
   29SAPC  H11Y 3926   1.721   5.244   7.832  2.0762 -0.2709  3.2727
   29SAPC  C312 3927   1.633   5.394   7.968  0.2406  0.1255 -0.4513
   29SAPC  H12X 3928   1.525   5.387   7.948 -0.8153 -0.7172  4.1927
   29SAPC  H12Y 3929   1.651   5.501   7.989 -3.0084  0.6674  0.0435
   29SAPC  C313 3930   1.642   5.316   8.098 -0.0618  0.1774 -0.4251
   29SAPC  H13X 3931   1.748   5.319   8.131 -0.0551 -1.5890 -0.1812
   29SAPC  H13Y 3932   1.623   5.208   8.084  0.1397 -0.2393  2.0341
   29SAPC  C314 3933   1.552   5.363   8.210  0.2502  0.4845 -0.0866
   29SAPC  H14X 3934   1.450   5.320   8.196  0.6964 -1.5911  2.2674
   29SAPC  H14Y 3935   1.551   5.473   8.222  2.1057  0.3642  1.7740
   29SAPC  C315 3936   1.596   5.312   8.352  0.4940 -0.4855  0.9101
   29SAPC  H15X 3937   1.547   5.384   8.422 -2.6718  1.7154 -3.1076
   29SAPC  H15Y 3938   1.707   5.319   8.357  0.5571 -1.4806  1.0028
   29SAPC  C316 3939   1.549   5.169   8.374  0.2749  0.3645  0.5800
   29SAPC  H16X 3940   1.591   5.115   8.287  3.4291  2.1779  0.8095
   29SAPC  H16Y 3941   1.438   5.162   8.376  0.2989 -0.1634  2.4848
   29SAPC  C317 3942   1.612   5.108   8.498 -0.1752  0.5624 -0.9107
   29SAPC  H17X 3943   1.608   5.183   8.580 -1.5386  0.6335 -1.0237
   29SAPC  H17Y 3944   1.718   5.079   8.485 -0.1460 -1.2401  2.2647
   29SAPC  C318 3945   1.538   4.977   8.548 -0.3808 -0.3063  0.2202
   29SAPC  H18X 3946   1.595   4.936   8.635 -0.4569  1.8500  1.3345
   29SAPC  H18Y 3947   1.545   4.888   8.482  1.0282  0.3984 -0.6370
   29SAPC  H18Z 3948   1.432   4.993   8.574 -1.0783 -2.4229 -1.0510
   30SAPC     N 3949   2.727   4.525   5.887  0.3346 -0.5663  0.8078
   30SAPC   C12 3950   2.718   4.393   5.968 -0.7033 -0.3226 -0.7471
   30SAPC  H12A 3951   2.816   4.349   5.962  0.4682  1.8131  1.2265
   30SAPC  H12B 3952   2.642   4.332   5.921  0.5459 -1.8490 -0.8214
   30SAPC   C13 3953   2.593   4.588   5.873  0.2376 -0.2426 -0.2557
   30SAPC  H13A 3954   2.529   4.591   5.960  0.6334 -0.2121  0.0354
   30SAPC  H13B 3955   2.607   4.693   5.852  0.7067  0.4307  2.8928
   30SAPC  H13C 3956   2.536   4.538   5.796  1.0447 -0.4605 -0.7212
   30SAPC   C14 3957   2.818   4.618   5.957 -0.2896 -0.0669 -0.8483
   30SAPC  H14A 3958   2.776   4.639   6.054  0.6876 -2.1613  0.0926
   30SAPC  H14B 3959   2.915   4.576   5.979  0.9620  2.6816 -0.7221
   30SAPC  H14C 3960   2.836   4.710   5.903 -1.2281  0.4104 -0.3697
   30SAPC   C15 3961   2.793   4.500   5.758 -0.6965  0.1172 -0.2995
   30SAPC  H15A 3962   2.724   4.471   5.680 -2.5571 -0.5942  1.5364
   30SAPC  H15B 3963   2.831   4.594   5.721 -0.5219 -0.0684 -0.6038
   30SAPC  H15C 3964   2.883   4.440   5.772 -1.3174 -0.8538 -0.3588
   30SAPC   C11 3965   2.660   4.396   6.113 -0.4497 -0.5335  0.6949
   30SAPC  H11A 3966   2.708   4.479   6.170  0.8522 -1.3305  0.7917
   30SAPC  H11B 3967   2.692   4.304   6.166  3.2961  0.4515  0.4337
   30SAPC     P 3968   2.414   4.287   6.097 -0.2738  0.2554 -0.0305
   30SAPC   O13 3969   2.296   4.334   6.026  0.2953 -0.3843 -0.0801
   30SAPC   O14 3970   2.487   4.171   6.048  0.0670  0.6397 -0.0501
   30SAPC   O12 3971   2.519   4.404   6.103  0.0251  0.5595  0.5595
   30SAPC   O11 3972   2.373   4.267   6.254  0.2501  0.2998  0.0415
   30SAPC    C1 3973   2.382   4.368   6.348  0.7403 -0.0830  0.0610
   30SAPC    HA 3974   2.386   4.472   6.310 -0.2175  0.4585  1.3659
   30SAPC    HB 3975   2.288   4.362   6.407  0.0045 -1.5731 -1.2116
   30SAPC    C2 3976   2.513   4.345   6.432  0.3127 -0.5606 -0.3472
   30SAPC    HS 3977   2.603   4.364   6.370  1.6121 -1.3500  1.2374
   30SAPC   O21 3978   2.509   4.215   6.499 -0.5223  0.2483  0.2692
   30SAPC   C21 3979   2.631   4.167   6.531 -0.0988  0.3342  0.4479
   30SAPC   O22 3980   2.734   4.211   6.495 -0.0903 -0.5230  0.2343
   30SAPC   C22 3981   2.597   4.040   6.605  0.1742  0.2674 -0.1547
   30SAPC   H2R 3982   2.502   4.050   6.660  1.9406  1.6160  2.8815
   30SAPC   H2S 3983   2.596   3.957   6.530  0.7786  0.0833  0.0346
   30SAPC    C3 3984   2.517   4.454   6.540 -0.2155  0.0286 -0.2779
   30SAPC    HX 3985   2.443   4.428   6.619 -1.4834 -2.2848 -2.0949
   30SAPC    HY 3986   2.493   4.553   6.495  0.3299  0.0322 -0.5654
   30SAPC   O31 3987   2.648   4.470   6.600 -0.6305  0.0250  0.2482
   30SAPC   C31 3988   2.656   4.558   6.700  0.0696  1.4202  0.3609
   30SAPC   O32 3989   2.567   4.631   6.739  0.2820 -0.1668  0.0803
   30SAPC   C32 3990   2.802   4.547   6.752 -0.2416  0.5124 -0.1552
   30SAPC   H2X 3991   2.862   4.532   6.660  1.2376  2.1105  0.5164
   30SAPC   H2Y 3992   2.812   4.457   6.816  0.1376 -0.3726 -1.4113
   30SAPC   C23 3993   2.711   4.005   6.697 -0.4014  0.4767  0.5068
   30SAPC   H3R 3994   2.809   3.990   6.646 -1.8544 -0.9726 -2.0891
   30SAPC   H3S 3995   2.689   3.897   6.715  1.1053 -0.0962 -0.7562
   30SAPC   C24 3996   2.729   4.079   6.832 -0.2872 -0.4891  0.0754
   30SAPC   H4R 3997   2.752   4.187   6.821 -0.7231 -0.3836  0.1880
   30SAPC   H4S 3998   2.820   4.040   6.882 -0.1153  1.1548  1.1216
   30SAPC   C25 3999   2.596   4.072   6.901 -0.7691 -0.0635 -0.4249
   30SAPC   H5R 4000   2.531   3.987   6.873 -0.2270 -0.7206  0.2520
   30SAPC   C26 4001   2.545   4.158   6.985  0.3489 -1.1561 -0.0939
   30SAPC   H6R 4002   2.442   4.141   7.020  0.2720 -1.2411 -0.3627
   30SAPC   C27 4003   2.613   4.288   7.032  0.3124  0.1373  0.2256
   30SAPC   H7R 4004   2.702   4.307   6.970  0.2344 -2.0705 -0.6507
   30SAPC   H7S 4005   2.663   4.269   7.130 -0.6718 -0.2979  0.6627
   30SAPC   C28 4006   2.528   4.410   7.047 -0.0763 -0.3191 -0.4113
   30SAPC   H8R 4007   2.512   4.468   6.955  1.7920  0.4306 -0.3255
   30SAPC   C29 4008   2.477   4.462   7.164  0.7213 -0.2207 -0.0731
   30SAPC   H9R 4009   2.428   4.560   7.163 -0.9551 -0.9462  2.1165
   30SAPC  C210 4010   2.477   4.395   7.299  0.0928  0.3512  0.0143
   30SAPC  H10R 4011   2.512   4.290   7.291 -0.4568  0.0611  1.1701
   30SAPC  H10S 4012   2.381   4.397   7.356 -0.3773  2.2151 -0.7382
   30SAPC  C211 4013   2.580   4.464   7.384  1.3308 -0.7524 -0.1054
   30SAPC  H11R 4014   2.673   4.486   7.329  1.1332  0.8471  0.1537
   30SAPC  C212 4015   2.572   4.492   7.516 -0.2742 -0.5852 -0.4721
   30SAPC  H12R 4016   2.654   4.552   7.559 -0.7718 -1.0493  1.2245
   30SAPC  C213 4017   2.466   4.464   7.618  0.2736  0.0690  0.2331
   30SAPC  H13R 4018   2.470   4.363   7.665  2.1596 -0.0192 -0.0431
   30SAPC  H13S 4019   2.368   4.461   7.566  0.8778 -3.8235 -1.0162
   30SAPC  C214 4020   2.457   4.566   7.728 -1.0970  0.1019  0.3077
   30SAPC  H14R 4021   2.384   4.647   7.721 -0.9452  0.3068  1.0701
   30SAPC  C215 4022   2.534   4.571   7.847 -0.1549  0.4044  0.4222
   30SAPC  H15R 4023   2.527   4.657   7.916 -2.1582  0.1136  0.6671
   30SAPC  C216 4024   2.635   4.473   7.890 -0.5780 -0.2843  0.4671
   30SAPC  H16R 4025   2.731   4.528   7.903 -0.6094  0.1097 -0.8347
   30SAPC  H16S 4026   2.655   4.395   7.814 -3.0830 -0.1136 -0.4809
   30SAPC  C217 4027   2.611   4.389   8.017 -0.0573  0.2666 -0.2322
   30SAPC  H17R 4028   2.685   4.308   8.030 -2.7853 -2.3862 -0.2182
   30SAPC  H17S 4029   2.512   4.343   8.000 -0.1531  0.7642 -1.1240
   30SAPC  C218 4030   2.601   4.467   8.148 -0.2004  0.5763  0.3990
   30SAPC  H18R 4031   2.567   4.408   8.237 -0.6799  1.0854  0.5615
   30SAPC  H18S 4032   2.524   4.547   8.155 -0.5101  0.1823  2.1134
   30SAPC  C219 4033   2.731   4.538   8.179 -0.2448  0.1907  0.0148
   30SAPC  H19R 4034   2.773   4.575   8.084  2.3396 -1.1141  0.5568
   30SAPC  H19S 4035   2.795   4.455   8.217  0.4423  1.1047  0.9009
   30SAPC  C220 4036   2.720   4.643   8.289 -0.8636  0.1944  0.7209
   30SAPC  H20R 4037   2.656   4.604   8.371  1.1956 -3.0872  0.9559
   30SAPC  H20S 4038   2.673   4.730   8.239 -0.9390 -0.4404 -0.3384
   30SAPC  H20T 4039   2.817   4.666   8.338 -1.5344  3.3151  0.7800
   30SAPC   C33 4040   2.845   4.675   6.822  0.2046  0.4342 -0.9980
   30SAPC   H3X 4041   2.950   4.656   6.853 -0.5458 -1.0463  0.8440
   30SAPC   H3Y 4042   2.788   4.690   6.916  0.6257 -0.6676 -0.5512
   30SAPC   C34 4043   2.841   4.800   6.735  0.3871 -0.2196 -0.2206
   30SAPC   H4X 4044   2.735   4.833   6.731  0.0201 -1.3363 -0.1392
   30SAPC   H4Y 4045   2.876   4.762   6.636 -1.6863 -0.1565 -1.0366
   30SAPC   C35 4046   2.943   4.904   6.794  0.4019  0.7684 -0.4377
   30SAPC   H5X 4047   2.963   4.987   6.722  0.6824 -0.2873 -1.6168
   30SAPC   H5Y 4048   3.038   4.857   6.826 -0.6092  0.2068  1.8903
   30SAPC   C36 4049   2.880   4.966   6.917 -0.4450  0.0141  0.3938
   30SAPC   H6X 4050   2.863   4.885   6.991 -4.8083  1.2146  0.9770
   30SAPC   H6Y 4051   2.785   5.011   6.881 -0.0683 -0.3277 -1.1091
   30SAPC   C37 4052   2.960   5.078   6.978  0.3628  0.2741  0.4163
   30SAPC   H7X 4053   2.957   5.172   6.919 -2.3792  0.4710  0.7507
   30SAPC   H7Y 4054   3.065   5.044   6.991  0.5338  0.6143 -0.0587
   30SAPC   C38 4055   2.896   5.129   7.110  0.1490  0.1368 -0.4341
   30SAPC   H8X 4056   2.905   5.042   7.179  0.5173 -1.1780 -2.0608
   30SAPC   H8Y 4057   2.792   5.161   7.090 -0.3765  0.1923  2.0913
   30SAPC   C39 4058   2.969   5.253   7.162 -0.1001  0.7163 -0.1986
   30SAPC   H9X 4059   2.962   5.335   7.087 -1.4616 -0.7509 -1.7478
   30SAPC   H9Y 4060   3.073   5.228   7.192  0.7766  2.9243 -1.1589
   30SAPC  C310 4061   2.905   5.311   7.290 -0.2125 -0.2956 -0.7383
   30SAPC  H10X 4062   2.795   5.303   7.295 -0.1497 -0.6023  0.6134
   30SAPC  H10Y 4063   2.936   5.415   7.314 -2.3114  0.5275 -1.3507
   30SAPC  C311 4064   2.948   5.223   7.412 -0.3662  0.0924  0.4139
   30SAPC  H11X 4065   3.057   5.206   7.402 -0.1459  1.8382 -0.5227
   30SAPC  H11Y 4066   2.895   5.127   7.396  1.5992 -0.9385 -0.2481
   30SAPC  C312 4067   2.914   5.276   7.552  0.3574  0.5875  0.3652
   30SAPC  H12X 4068   2.807   5.304   7.552  0.8036  3.0227  4.1242
   30SAPC  H12Y 4069   2.971   5.370   7.568 -0.8775  1.2762  0.8407
   30SAPC  C313 4070   2.947   5.184   7.662 -0.0360  0.8682 -0.1368
   30SAPC  H13X 4071   3.057   5.175   7.673 -0.1719 -0.2221  0.5107
   30SAPC  H13Y 4072   2.909   5.081   7.646  0.3150  0.8444 -0.8975
   30SAPC  C314 4073   2.899   5.228   7.807 -0.4760 -0.1634 -0.3708
   30SAPC  H14X 4074   2.915   5.140   7.873  1.0891 -0.3499 -0.9681
   30SAPC  H14Y 4075   2.790   5.253   7.806 -0.2721  0.7618 -1.1378
   30SAPC  C315 4076   2.982   5.334   7.884  0.4323  0.2142 -0.2789
   30SAPC  H15X 4077   2.967   5.438   7.849 -0.4543  0.1888 -0.0152
   30SAPC  H15Y 4078   3.088   5.303   7.890  0.8272  1.7139  1.2957
   30SAPC  C316 4079   2.930   5.335   8.029 -0.1818  0.6145 -0.1520
   30SAPC  H16X 4080   2.964   5.234   8.062 -2.8838 -0.4744 -0.4468
   30SAPC  H16Y 4081   2.819   5.343   8.027 -0.1567  0.8246 -0.8921
   30SAPC  C317 4082   2.981   5.459   8.099  0.5003  0.0512 -0.5063
   30SAPC  H17X 4083   2.955   5.551   8.042 -1.4654 -0.6368 -0.8129
   30SAPC  H17Y 4084   3.092   5.452   8.101  0.8514  3.6357  1.1795
   30SAPC  C318 4085   2.911   5.482   8.235  0.4876 -0.5541 -0.4026
   30SAPC  H18X 4086   2.804   5.510   8.231  0.6010 -0.2120 -1.2209
   30SAPC  H18Y 4087   2.954   5.565   8.294  0.5037  0.4887 -1.8154
   30SAPC  H18Z 4088   2.921   5.381   8.280  2.0524 -1.4461 -2.5678
   31SAPC     N 4089   3.565   5.479   6.291 -0.3726 -0.4140 -0.0880
   31SAPC   C12 4090   3.677   5.580   6.283 -0.1552 -0.0283 -0.1770
   31SAPC  H12A 4091   3.635   5.672   6.321  0.2304  0.0430  0.0892
   31SAPC  H12B 4092   3.707   5.602   6.182  2.2743  2.1047  0.8747
   31SAPC   C13 4093   3.442   5.525   6.216 -0.4900 -0.2014 -0.2862
   31SAPC  H13A 4094   3.365   5.450   6.221 -0.8488  0.1110 -0.9347
   31SAPC  H13B 4095   3.399   5.609   6.268  0.3960  0.1219 -0.0493
   31SAPC  H13C 4096   3.458   5.552   6.113 -0.4535 -0.1720 -0.2729
   31SAPC   C14 4097   3.604   5.352   6.231  0.5374 -0.1436 -0.4889
   31SAPC  H14A 4098   3.695   5.312   6.273 -0.1875  0.8912  2.2863
   31SAPC  H14B 4099   3.526   5.279   6.247  0.5363  0.3639  2.2667
   31SAPC  H14C 4100   3.616   5.354   6.123 -0.8742  2.7250 -0.6822
   31SAPC   C15 4101   3.524   5.451   6.440 -0.3752  0.9323  0.3363
   31SAPC  H15A 4102   3.544   5.533   6.508 -1.6949 -0.3150  2.2964
   31SAPC  H15B 4103   3.422   5.415   6.441 -0.3150  0.6094 -1.5566
   31SAPC  H15C 4104   3.581   5.367   6.475 -1.2871 -0.7014 -1.8770
   31SAPC   C11 4105   3.799   5.532   6.355 -0.7068 -1.5363  0.2887
   31SAPC  H11A 4106   3.776   5.468   6.443  1.6398 -0.1651  2.0383
   31SAPC  H11B 4107   3.844   5.625   6.396  1.2014 -3.0983  1.9479
   31SAPC     P 4108   3.950   5.351   6.255  0.3198  0.4617  0.2548
   31SAPC   O13 4109   3.885   5.263   6.348  0.3803  0.2696 -0.1587
   31SAPC   O14 4110   3.943   5.314   6.111  0.2633 -0.1900 -0.0497
   31SAPC   O12 4111   3.898   5.499   6.267  0.3454 -0.1903  0.3528
   31SAPC   O11 4112   4.100   5.371   6.300  0.1936 -0.3447  0.8788
   31SAPC    C1 4113   4.142   5.464   6.401  0.2167  0.3303 -0.0371
   31SAPC    HA 4114   4.245   5.495   6.372  1.3406 -0.9522  2.2821
   31SAPC    HB 4115   4.079   5.556   6.411  0.7567  0.7075 -0.0510
   31SAPC    C2 4116   4.157   5.391   6.534 -0.4878  0.1453  0.1918
   31SAPC    HS 4117   4.204   5.292   6.516  0.6581  0.1913  2.5982
   31SAPC   O21 4118   4.028   5.391   6.607 -0.4041 -0.5936  0.4316
   31SAPC   C21 4119   4.013   5.282   6.681  0.1688  0.4346 -0.0517
   31SAPC   O22 4120   4.083   5.181   6.678 -0.5606  0.3527  0.1458
   31SAPC   C22 4121   3.895   5.299   6.786  0.0901 -0.4762  0.7716
   31SAPC   H2R 4122   3.923   5.393   6.837 -0.9561  0.3237 -0.0917
   31SAPC   H2S 4123   3.801   5.326   6.734 -1.9142 -1.4538  3.6860
   31SAPC    C3 4124   4.256   5.471   6.618 -0.5714  0.1883  0.2392
   31SAPC    HX 4125   4.230   5.579   6.613  0.8216  0.5557  0.5976
   31SAPC    HY 4126   4.354   5.448   6.571 -1.5830  0.2197 -1.9894
   31SAPC   O31 4127   4.247   5.440   6.760 -0.0060  0.0877  0.4289
   31SAPC   C31 4128   4.359   5.419   6.822  0.5240  0.2449 -0.1228
   31SAPC   O32 4129   4.469   5.419   6.770 -0.0742  0.4578 -0.2645
   31SAPC   C32 4130   4.339   5.404   6.973  0.5194 -0.1500 -0.3991
   31SAPC   H2X 4131   4.285   5.309   6.989 -2.4075  1.3868 -0.5535
   31SAPC   H2Y 4132   4.282   5.493   7.006  1.3107 -0.4714  2.0378
   31SAPC   C23 4133   3.877   5.172   6.869  0.1343  0.2304  0.4605
   31SAPC   H3R 4134   3.869   5.077   6.812  0.9699  0.0544  0.6286
   31SAPC   H3S 4135   3.776   5.187   6.914  1.3515  1.7415  2.8767
   31SAPC   C24 4136   3.979   5.165   6.977  0.2254  0.3830  0.0189
   31SAPC   H4R 4137   4.083   5.172   6.940  0.3699 -1.7837 -0.1012
   31SAPC   H4S 4138   3.992   5.062   7.018 -0.0062 -1.6360 -4.4818
   31SAPC   C25 4139   3.968   5.261   7.092 -0.1190  0.0649  0.1465
   31SAPC   H5R 4140   4.004   5.364   7.078 -0.1661 -0.0264 -0.7043
   31SAPC   C26 4141   3.912   5.229   7.215 -0.5495 -0.0520 -0.0588
   31SAPC   H6R 4142   3.914   5.303   7.296 -0.1994  1.1330 -1.1270
   31SAPC   C27 4143   3.864   5.095   7.265  0.7265  0.4862 -0.3414
   31SAPC   H7R 4144   3.819   5.042   7.179 -1.1843 -0.7996  1.3398
   31SAPC   H7S 4145   3.782   5.120   7.336  0.5485 -0.6726 -0.1272
   31SAPC   C28 4146   3.974   5.014   7.337  0.8633 -0.7471 -0.8621
   31SAPC   H8R 4147   4.068   5.007   7.281  2.8511  2.2931  1.7298
   31SAPC   C29 4148   3.975   4.964   7.463 -0.9101 -0.8001  0.1467
   31SAPC   H9R 4149   4.067   4.915   7.496 -0.7111 -0.0711  0.7115
   31SAPC  C210 4150   3.870   4.971   7.570  0.8256 -0.0844 -0.3550
   31SAPC  H10R 4151   3.830   4.869   7.591 -3.4144  1.7635  1.7737
   31SAPC  H10S 4152   3.782   5.027   7.532  0.4512 -1.5893 -1.8068
   31SAPC  C211 4153   3.909   5.029   7.700  0.0556  0.3916  0.5640
   31SAPC  H11R 4154   3.995   5.099   7.696 -0.6135  1.2078  0.1747
   31SAPC  C212 4155   3.860   5.011   7.822  0.4262  0.5071  0.2787
   31SAPC  H12R 4156   3.912   5.052   7.910  0.9440 -1.0181  0.7204
   31SAPC  C213 4157   3.746   4.917   7.855 -0.6632  0.6265 -0.3738
   31SAPC  H13R 4158   3.676   4.907   7.769  1.3556 -2.9165 -1.8278
   31SAPC  H13S 4159   3.690   4.958   7.942 -0.1440  1.8742 -0.6039
   31SAPC  C214 4160   3.795   4.777   7.873  0.6851 -0.4255  0.0602
   31SAPC  H14R 4161   3.878   4.744   7.811  0.6198  1.7346 -1.2826
   31SAPC  C215 4162   3.743   4.684   7.966  0.0161 -1.6902  0.9619
   31SAPC  H15R 4163   3.788   4.584   7.965 -1.9288 -2.6093 -0.0613
   31SAPC  C216 4164   3.643   4.713   8.075  0.8697  0.0733  0.0850
   31SAPC  H16R 4165   3.577   4.793   8.035 -0.6617 -0.1210  2.0768
   31SAPC  H16S 4166   3.683   4.754   8.170 -1.0753  3.3418 -0.3518
   31SAPC  C217 4167   3.543   4.604   8.097 -0.1441  0.4458 -0.0124
   31SAPC  H17R 4168   3.599   4.508   8.095  0.0872  0.5919 -1.7357
   31SAPC  H17S 4169   3.472   4.601   8.012  0.9437 -1.2648 -0.9091
   31SAPC  C218 4170   3.454   4.617   8.225 -0.4765  0.2455 -0.2689
   31SAPC  H18R 4171   3.397   4.713   8.220  1.9505  1.9353  1.9598
   31SAPC  H18S 4172   3.516   4.629   8.317  0.0572  0.3407 -0.6376
   31SAPC  C219 4173   3.361   4.496   8.243 -0.6603  0.6110  0.3863
   31SAPC  H19R 4174   3.323   4.475   8.141 -0.4534 -0.5985  0.5420
   31SAPC  H19S 4175   3.279   4.522   8.313 -0.4984  2.0914  0.0605
   31SAPC  C220 4176   3.434   4.365   8.291  0.2717 -0.1866 -0.0974
   31SAPC  H20R 4177   3.363   4.279   8.297  0.5330 -0.3911  0.0885
   31SAPC  H20S 4178   3.472   4.383   8.394 -2.0864 -2.4341  1.2893
   31SAPC  H20T 4179   3.506   4.339   8.211  0.0047 -0.5306 -0.2290
   31SAPC   C33 4180   4.480   5.409   7.043  0.0492 -0.1126  0.0720
   31SAPC   H3X 4181   4.538   5.498   7.008 -2.4826  1.5400 -0.1854
   31SAPC   H3Y 4182   4.536   5.322   7.004 -0.5020 -0.6327  0.4227
   31SAPC   C34 4183   4.481   5.406   7.197 -0.5979  0.1981 -0.2583
   31SAPC   H4X 4184   4.426   5.497   7.231  0.8851  0.6709  1.0072
   31SAPC   H4Y 4185   4.577   5.410   7.252 -1.2576  1.7173  0.8533
   31SAPC   C35 4186   4.402   5.285   7.246 -0.3874  0.3904 -0.0144
   31SAPC   H5X 4187   4.452   5.187   7.231  1.6257  1.1304  1.4723
   31SAPC   H5Y 4188   4.309   5.280   7.185  0.0115 -0.8252 -0.5545
   31SAPC   C36 4189   4.378   5.282   7.395 -0.1249 -0.9823 -0.8747
   31SAPC   H6X 4190   4.471   5.310   7.449  0.7002  0.8744 -3.1385
   31SAPC   H6Y 4191   4.350   5.178   7.422  0.8895 -0.7608  1.3143
   31SAPC   C37 4192   4.255   5.359   7.432  0.2277  0.0423 -0.4485
   31SAPC   H7X 4193   4.168   5.330   7.369 -1.5687 -1.7315  2.6161
   31SAPC   H7Y 4194   4.281   5.466   7.424 -0.2101  0.6346  3.8583
   31SAPC   C38 4195   4.203   5.333   7.576 -0.0321  0.6850 -0.3780
   31SAPC   H8X 4196   4.153   5.234   7.578 -2.7293  1.9839  1.4810
   31SAPC   H8Y 4197   4.130   5.414   7.595  1.1517  2.0616 -1.4918
   31SAPC   C39 4198   4.304   5.361   7.685 -0.6066 -0.8502 -0.0790
   31SAPC   H9X 4199   4.341   5.465   7.675  0.4736 -0.6794  3.9240
   31SAPC   H9Y 4200   4.395   5.300   7.663  0.5539 -1.3605  4.8548
   31SAPC  C310 4201   4.250   5.352   7.832  0.7361 -0.0133 -0.2154
   31SAPC  H10X 4202   4.153   5.405   7.842  0.2600 -0.8347 -0.3807
   31SAPC  H10Y 4203   4.322   5.408   7.895  0.1460 -0.9653  1.3575
   31SAPC  C311 4204   4.239   5.209   7.882  0.1128  0.1496  0.5373
   31SAPC  H11X 4205   4.340   5.163   7.890  0.2673  0.5173  0.7299
   31SAPC  H11Y 4206   4.185   5.156   7.801 -1.0405  1.1803  0.6210
   31SAPC  C312 4207   4.186   5.197   8.022 -0.5589 -0.2145  0.7217
   31SAPC  H12X 4208   4.087   5.247   8.029  0.5652  2.0838  0.8013
   31SAPC  H12Y 4209   4.256   5.251   8.089  1.7505 -0.5290 -1.3158
   31SAPC  C313 4210   4.178   5.053   8.079 -0.9886 -0.1537  0.4319
   31SAPC  H13X 4211   4.281   5.012   8.076 -0.6308  0.5486  2.1106
   31SAPC  H13Y 4212   4.122   4.983   8.013 -1.5402 -0.0828  0.8152
   31SAPC  C314 4213   4.116   5.056   8.214 -0.1379 -0.2313  0.6485
   31SAPC  H14X 4214   4.011   5.094   8.206 -0.2531 -0.9191 -2.7769
   31SAPC  H14Y 4215   4.180   5.127   8.271  0.0833 -0.8224  1.1355
   31SAPC  C315 4216   4.100   4.923   8.283 -0.3054  0.3264 -0.1566
   31SAPC  H15X 4217   4.204   4.887   8.298 -1.2578 -1.1574  4.4605
   31SAPC  H15Y 4218   4.036   4.856   8.221 -2.4274  1.7931  0.3284
   31SAPC  C316 4219   4.051   4.932   8.428  0.9493 -0.8918 -0.2936
   31SAPC  H16X 4220   3.940   4.942   8.438  1.0456 -0.2751  0.3116
   31SAPC  H16Y 4221   4.098   5.021   8.475  0.4455 -0.3238 -0.8392
   31SAPC  C317 4222   4.080   4.798   8.502  0.0447 -0.4459  0.5685
   31SAPC  H17X 4223   4.058   4.808   8.611  0.1908  0.1942  0.5420
   31SAPC  H17Y 4224   4.190   4.793   8.482 -0.0292  0.1419 -0.0065
   31SAPC  C318 4225   4.012   4.670   8.445  0.0349 -0.1590  0.0766
   31SAPC  H18X 4226   4.012   4.660   8.334 -0.0966  1.3147 -0.0804
   31SAPC  H18Y 4227   3.910   4.666   8.491  0.5809  1.7847  1.6061
   31SAPC  H18Z 4228   4.067   4.580   8.480  1.9030  1.1594  0.6856
   32SAPC     N 4229   6.334   5.920   6.110 -0.4018 -0.0212  0.1405
   32SAPC   C12 4230   6.359   6.067   6.120 -0.0481 -0.2234  0.1778
   32SAPC  H12A 4231   6.315   6.106   6.029 -1.0440 -1.9021 -0.1122
   32SAPC  H12B 4232   6.466   6.081   6.117 -0.2152  0.9931 -1.2355
   32SAPC   C13 4233   6.183   5.901   6.102 -1.0594 -0.2510 -0.6569
   32SAPC  H13A 4234   6.132   5.923   6.194 -0.3960 -0.6358 -0.1930
   32SAPC  H13B 4235   6.139   5.950   6.016  0.9181  1.5417 -0.7265
   32SAPC  H13C 4236   6.159   5.796   6.104 -2.8696  0.1281  1.6443
   32SAPC   C14 4237   6.391   5.866   5.989 -1.2383 -0.0264 -0.0704
   32SAPC  H14A 4238   6.399   5.759   5.977  0.0245  0.0692 -0.2650
   32SAPC  H14B 4239   6.333   5.899   5.905 -1.4963 -1.3732 -0.4447
   32SAPC  H14C 4240   6.495   5.895   5.981 -1.3983 -0.0224 -3.4271
   32SAPC   C15 4241   6.393   5.849   6.229  0.0374  0.0837 -0.5364
   32SAPC  H15A 4242   6.500   5.858   6.218  0.2997 -1.1846  0.7163
   32SAPC  H15B 4243   6.371   5.887   6.328  2.5355 -1.7376  0.8399
   32SAPC  H15C 4244   6.361   5.746   6.223 -1.8357  0.5234  0.8876
   32SAPC   C11 4245   6.319   6.140   6.257  0.3815 -0.1485  0.6235
   32SAPC  H11A 4246   6.218   6.099   6.279 -0.2672  0.5964 -0.7953
   32SAPC  H11B 4247   6.309   6.247   6.229  0.7778 -0.7054 -1.8889
   32SAPC     P 4248   6.500   6.219   6.427 -0.0657 -0.3367  0.2397
   32SAPC   O13 4249   6.625   6.152   6.473  1.1551  0.0237 -0.1638
   32SAPC   O14 4250   6.520   6.336   6.337 -0.0568 -0.4185 -0.3440
   32SAPC   O12 4251   6.404   6.109   6.366  0.6731  0.2291  0.4253
   32SAPC   O11 4252   6.426   6.274   6.554 -0.4430  0.0418 -0.0581
   32SAPC    C1 4253   6.307   6.208   6.599 -0.2836  0.3479  0.6784
   32SAPC    HA 4254   6.256   6.288   6.657 -0.5911 -0.9615  2.3140
   32SAPC    HB 4255   6.246   6.153   6.524  3.3431 -2.7475 -0.3141
   32SAPC    C2 4256   6.328   6.084   6.692 -0.1080 -0.7003  0.2456
   32SAPC    HS 4257   6.372   5.999   6.636  2.6422  1.0693 -0.4893
   32SAPC   O21 4258   6.205   6.054   6.760  0.1102 -0.1303  0.1271
   32SAPC   C21 4259   6.183   5.926   6.779 -0.5294 -0.0127  0.0537
   32SAPC   O22 4260   6.257   5.831   6.743  0.3924 -0.4045  0.3600
   32SAPC   C22 4261   6.053   5.918   6.850  0.1110 -0.6548 -0.5112
   32SAPC   H2R 4262   5.994   6.011   6.844  1.0524  0.0826  0.9767
   32SAPC   H2S 4263   5.993   5.848   6.788  0.7224 -0.3663 -1.4567
   32SAPC    C3 4264   6.429   6.133   6.798  0.3248 -0.6204  1.3331
   32SAPC    HX 4265   6.394   6.228   6.843 -1.9952 -1.4229  1.3372
   32SAPC    HY 4266   6.522   6.149   6.738 -0.9373 -1.7607 -1.0398
   32SAPC   O31 4267   6.453   6.038   6.896 -0.1232 -0.4004  0.2605
   32SAPC   C31 4268   6.555   5.949   6.872 -0.0568 -0.0314 -0.3038
   32SAPC   O32 4269   6.618   5.943   6.771  0.7262 -0.2839  0.3511
   32SAPC   C32 4270   6.574   5.872   6.995 -0.4547  0.5967 -0.3409
   32SAPC   H2X 4271   6.471   5.840   7.019  0.5684 -2.5851  0.2294
   32SAPC   H2Y 4272   6.599   5.932   7.085  0.5515 -0.2491 -0.0371
   32SAPC   C23 4273   6.069   5.876   6.994  0.4868  0.1078  0.2775
   32SAPC   H3R 4274   6.163   5.821   7.013 -0.2732 -0.3169  3.3557
   32SAPC   H3S 4275   5.987   5.806   7.022  0.4787  0.5406  1.3666
   32SAPC   C24 4276   6.055   5.999   7.088  0.3351 -0.4578  0.2213
   32SAPC   H4R 4277   6.021   5.955   7.184 -0.4697 -1.0709 -0.3272
   32SAPC   H4S 4278   5.964   6.052   7.053 -0.2067 -1.3155  0.2822
   32SAPC   C25 4279   6.185   6.080   7.109 -0.1419  0.0320 -0.1189
   32SAPC   H5R 4280   6.244   6.086   7.016  0.5837 -0.9575  0.2626
   32SAPC   C26 4281   6.219   6.160   7.213 -0.0324  0.1276  0.1879
   32SAPC   H6R 4282   6.321   6.200   7.220 -0.2688  0.8345 -0.2662
   32SAPC   C27 4283   6.128   6.191   7.329 -0.3541  0.4239 -0.2796
   32SAPC   H7R 4284   6.023   6.203   7.294  0.1146  1.1188 -1.5333
   32SAPC   H7S 4285   6.159   6.282   7.384  1.3960 -1.6328  2.3801
   32SAPC   C28 4286   6.121   6.087   7.438 -0.0261  0.1635  0.5459
   32SAPC   H8R 4287   6.220   6.065   7.480  1.9178  0.9951 -3.1559
   32SAPC   C29 4288   6.013   6.029   7.490 -0.3015 -0.3191  0.1209
   32SAPC   H9R 4289   6.036   5.953   7.566  1.1969 -1.1438 -1.0904
   32SAPC  C210 4290   5.869   6.021   7.447 -0.1278  0.1006  0.0492
   32SAPC  H10R 4291   5.838   5.916   7.425  0.6817 -1.1042  3.7719
   32SAPC  H10S 4292   5.853   6.076   7.353  1.8134  1.7030  0.6074
   32SAPC  C211 4293   5.776   6.083   7.551 -0.3528 -0.0240  0.1691
   32SAPC  H11R 4294   5.740   6.181   7.516  0.0948  0.6278  1.4746
   32SAPC  C212 4295   5.742   6.038   7.674  0.4414  0.4013 -0.0508
   32SAPC  H12R 4296   5.669   6.098   7.730 -0.6713 -0.1482 -0.8610
   32SAPC  C213 4297   5.786   5.911   7.739  0.1397  0.3264 -1.1305
   32SAPC  H13R 4298   5.846   5.851   7.668  0.5838 -2.2506  1.2629
   32SAPC  H13S 4299   5.699   5.848   7.767  0.7531  0.1784  0.6044
   32SAPC  C214 4300   5.870   5.944   7.861 -0.0889  0.8093 -0.5801
   32SAPC  H14R 4301   5.977   5.929   7.842 -0.5138 -1.3255 -1.5684
   32SAPC  C215 4302   5.832   6.016   7.973 -1.0482 -0.5235 -0.7490
   32SAPC  H15R 4303   5.901   6.022   8.058 -0.2623 -1.2807 -1.3143
   32SAPC  C216 4304   5.694   6.069   7.997  0.0422  0.1349 -0.0735
   32SAPC  H16R 4305   5.623   6.016   7.931  2.4557 -1.8653 -1.2130
   32SAPC  H16S 4306   5.693   6.177   7.969  0.0143 -0.0803 -0.9386
   32SAPC  C217 4307   5.662   6.053   8.145 -0.1257 -0.3186 -0.3599
   32SAPC  H17R 4308   5.584   6.127   8.172 -1.2605 -1.3425 -0.7588
   32SAPC  H17S 4309   5.753   6.060   8.209 -0.5627 -1.0091  0.3596
   32SAPC  C218 4310   5.594   5.921   8.179 -0.3994  0.0155 -0.0642
   32SAPC  H18R 4311   5.490   5.915   8.142 -0.3260  1.4574 -0.5828
   32SAPC  H18S 4312   5.604   5.902   8.288  3.7442  1.2686 -0.0440
   32SAPC  C219 4313   5.675   5.795   8.133 -0.7103  0.4091 -0.1922
   32SAPC  H19R 4314   5.782   5.808   8.159 -0.9726  0.6855  0.8012
   32SAPC  H19S 4315   5.674   5.786   8.022 -1.3220  0.6826 -0.2175
   32SAPC  C220 4316   5.617   5.667   8.195 -0.0656  0.7063 -0.3456
   32SAPC  H20R 4317   5.643   5.667   8.303 -0.8018  2.9952 -0.1264
   32SAPC  H20S 4318   5.656   5.577   8.143  0.7898  1.7281 -1.5373
   32SAPC  H20T 4319   5.507   5.665   8.204 -0.0442  0.9215 -0.0545
   32SAPC   C33 4320   6.660   5.739   6.993  0.1665 -0.2819  0.5533
   32SAPC   H3X 4321   6.770   5.746   6.982  0.0079  0.2415 -1.0678
   32SAPC   H3Y 4322   6.631   5.693   6.896  0.0889  0.1051  0.3897
   32SAPC   C34 4323   6.621   5.648   7.112 -1.1229  0.0447  0.6968
   32SAPC   H4X 4324   6.694   5.564   7.100 -0.1542  0.9164  0.3444
   32SAPC   H4Y 4325   6.516   5.619   7.094 -0.5432 -0.2280 -3.3408
   32SAPC   C35 4326   6.646   5.716   7.251  0.7647 -0.1604  0.9888
   32SAPC   H5X 4327   6.738   5.776   7.257  1.5255 -1.4706  3.9128
   32SAPC   H5Y 4328   6.659   5.624   7.312  0.8891 -0.6917  0.1762
   32SAPC   C36 4329   6.531   5.796   7.303 -0.1080 -0.1740  0.0932
   32SAPC   H6X 4330   6.448   5.780   7.231  1.4104  1.2898 -2.1169
   32SAPC   H6Y 4331   6.554   5.904   7.292 -1.5337  0.0816 -0.7463
   32SAPC   C37 4332   6.475   5.770   7.444  0.2795  0.5736  0.2708
   32SAPC   H7X 4333   6.449   5.663   7.434 -1.3277  0.9441  0.2891
   32SAPC   H7Y 4334   6.391   5.840   7.467  0.2100  0.0299  1.7497
   32SAPC   C38 4335   6.584   5.789   7.548  0.2552 -0.1840  0.5462
   32SAPC   H8X 4336   6.611   5.897   7.541 -2.7154  0.7316  1.6017
   32SAPC   H8Y 4337   6.674   5.735   7.513 -0.6318 -0.8954 -0.7470
   32SAPC   C39 4338   6.542   5.746   7.683 -0.6421  0.0374 -0.0456
   32SAPC   H9X 4339   6.513   5.639   7.687 -0.7964  0.1084  2.1001
   32SAPC   H9Y 4340   6.444   5.790   7.714 -1.1555 -1.1089  0.0099
   32SAPC  C310 4341   6.639   5.781   7.791  0.3344  0.6097 -1.0222
   32SAPC  H10X 4342   6.660   5.890   7.802 -0.8070  0.8251 -0.8383
   32SAPC  H10Y 4343   6.739   5.735   7.773 -0.6083 -2.6511  1.1184
   32SAPC  C311 4344   6.589   5.737   7.927 -0.1686 -0.5482 -0.2126
   32SAPC  H11X 4345   6.660   5.764   8.008 -0.6154 -0.4573  0.1570
   32SAPC  H11Y 4346   6.580   5.627   7.935 -3.7753 -0.5334 -2.0611
   32SAPC  C312 4347   6.460   5.804   7.976  0.3007 -0.1328 -0.3662
   32SAPC  H12X 4348   6.380   5.794   7.900  1.7028  1.7834 -2.2469
   32SAPC  H12Y 4349   6.493   5.909   7.993  1.1346 -0.3144 -0.7852
   32SAPC  C313 4350   6.412   5.754   8.117 -0.3410 -0.1622 -0.3029
   32SAPC  H13X 4351   6.430   5.645   8.130 -1.7568 -0.2372  1.5634
   32SAPC  H13Y 4352   6.305   5.779   8.134 -0.1283  2.1415 -1.9440
   32SAPC  C314 4353   6.494   5.821   8.233 -0.2121 -0.1126  0.1367
   32SAPC  H14X 4354   6.505   5.931   8.216  0.9526  0.0719  1.8221
   32SAPC  H14Y 4355   6.592   5.769   8.237 -0.7111 -1.1180 -0.3763
   32SAPC  C315 4356   6.435   5.802   8.379  0.5813  0.1818  0.5800
   32SAPC  H15X 4357   6.416   5.693   8.383 -0.2001  0.3475  1.8907
   32SAPC  H15Y 4358   6.341   5.856   8.356  0.4390 -0.4131 -0.2895
   32SAPC  C316 4359   6.496   5.870   8.497 -0.5911  0.3857  0.5579
   32SAPC  H16X 4360   6.518   5.977   8.479 -0.9419 -0.0776 -3.3867
   32SAPC  H16Y 4361   6.598   5.833   8.521 -0.2308  1.6726  1.1126
   32SAPC  C317 4362   6.412   5.847   8.629  0.3772 -0.3877 -0.2147
   32SAPC  H17X 4363   6.479   5.855   8.717 -0.1990  1.0883  0.1112
   32SAPC  H17Y 4364   6.378   5.741   8.618  0.0813 -0.2079 -1.1539
   32SAPC  C318 4365   6.291   5.947   8.649 -0.3198  0.8591  0.5883
   32SAPC  H18X 4366   6.247   5.936   8.750  0.5773  1.7996  1.0937
   32SAPC  H18Y 4367   6.207   5.941   8.576 -1.1929 -0.2068  1.6328
   32SAPC  H18Z 4368   6.331   6.050   8.636 -0.7870  1.0796  0.8715
   33POPC     N 4369   2.818   6.464  10.828 -0.2955 -0.4864  0.2886
   33POPC   C12 4370   2.911   6.451  10.704  0.2016 -0.3720  0.6670
   33POPC  H12A 4371   3.014   6.431  10.726  1.4687  2.4738 -1.9355
   33POPC  H12B 4372   2.913   6.542  10.645 -0.1539 -0.2622  0.8146
   33POPC   C13 4373   2.828   6.338  10.901 -0.1284 -0.3875 -0.1869
   33POPC  H13A 4374   2.931   6.326  10.930  0.0508 -0.1228 -0.7041
   33POPC  H13B 4375   2.763   6.336  10.987 -1.1196 -1.0007 -0.9234
   33POPC  H13C 4376   2.815   6.253  10.835  1.3885  0.2304 -1.3410
   33POPC   C14 4377   2.865   6.579  10.916 -0.0167  0.3528  0.6434
   33POPC  H14A 4378   2.874   6.662  10.848 -0.6462  1.4688  1.8550
   33POPC  H14B 4379   2.784   6.608  10.982 -1.2514 -1.2932 -0.0854
   33POPC  H14C 4380   2.954   6.552  10.970 -0.1480 -0.0647  0.6533
   33POPC   C15 4381   2.674   6.477  10.797  0.2353  0.7840 -0.2404
   33POPC  H15A 4382   2.646   6.580  10.785 -4.2870 -0.2871 -0.5019
   33POPC  H15B 4383   2.616   6.442  10.881 -0.6579  1.7291 -0.4453
   33POPC  H15C 4384   2.640   6.422  10.710  0.0312 -0.4570  0.6081
   33POPC   C11 4385   2.872   6.342  10.596 -0.3006  0.3825  0.3154
   33POPC  H11A 4386   2.911   6.373  10.497 -2.3308  2.9089  0.2033
   33POPC  H11B 4387   2.762   6.349  10.582 -0.3876 -1.0815  0.0347
   33POPC     P 4388   3.015   6.127  10.599 -0.0339 -0.0296 -0.4697
   33POPC   O13 4389   2.999   5.989  10.640 -0.2452 -0.0107 -0.0127
   33POPC   O14 4390   3.132   6.208  10.652  0.1066  0.6115 -0.3162
   33POPC   O12 4391   2.887   6.208  10.626  0.0527  0.2112  0.3592
   33POPC   O11 4392   3.037   6.135  10.442 -0.0838  0.5006  0.0590
   33POPC    C1 4393   2.932   6.094  10.351  0.6121  1.1433 -0.4603
   33POPC    HA 4394   2.837   6.115  10.405  1.6748  0.7373  1.6975
   33POPC    HB 4395   2.950   6.146  10.254  0.4886  2.3355  0.1360
   33POPC    C2 4396   2.944   5.941  10.307  0.1151  0.1833  0.7008
   33POPC    HS 4397   2.949   5.880  10.400 -2.0143 -1.7361 -0.3694
   33POPC   O21 4398   3.061   5.927  10.234 -0.6954  0.3068  0.2485
   33POPC   C21 4399   3.090   5.802  10.205 -0.7302 -0.1448  0.9354
   33POPC   O22 4400   3.023   5.707  10.240 -0.5108  0.1192  0.3071
   33POPC   C22 4401   3.226   5.800  10.119  0.2339 -0.0680  0.2775
   33POPC   H2R 4402   3.276   5.717  10.173 -0.2567  0.4504  1.5796
   33POPC   H2S 4403   3.287   5.890  10.143 -1.0011  1.0159 -0.5046
   33POPC    C3 4404   2.816   5.903  10.229 -0.6797  0.2343 -0.3038
   33POPC    HX 4405   2.727   5.905  10.296 -0.7449 -0.1545 -0.3776
   33POPC    HY 4406   2.816   5.793  10.216 -0.5727  0.2087 -0.0876
   33POPC   O31 4407   2.803   5.961  10.097  0.4580 -0.4423  0.5506
   33POPC   C31 4408   2.681   6.016  10.070 -0.3970 -0.4692 -0.3372
   33POPC   O32 4409   2.584   6.019  10.145  0.2260  0.6126 -0.6886
   33POPC   C32 4410   2.684   6.048   9.924  0.1444 -0.1000  1.0297
   33POPC   H2X 4411   2.609   5.979   9.880 -0.8990  2.0054 -0.6448
   33POPC   H2Y 4412   2.780   6.030   9.872 -0.2999 -0.3392  0.2742
   33POPC   C23 4413   3.197   5.773   9.965  0.2523  0.8800 -0.8405
   33POPC   H3R 4414   3.140   5.678   9.957  2.5446 -0.7663  0.9605
   33POPC   H3S 4415   3.289   5.764   9.903 -0.3011  0.7369 -1.6565
   33POPC   C24 4416   3.115   5.887   9.904  0.9276  1.0195 -0.0541
   33POPC   H4R 4417   3.177   5.979   9.910  1.1717  0.9079 -0.7831
   33POPC   H4S 4418   3.012   5.891   9.945  0.5835 -2.8556 -0.1010
   33POPC   C25 4419   3.076   5.866   9.756  0.3966 -0.8218 -0.8288
   33POPC   H5R 4420   3.034   5.964   9.724  0.9668  0.1645  1.2591
   33POPC   H5S 4421   3.006   5.784   9.727  0.4796 -0.2197 -2.9086
   33POPC   C26 4422   3.202   5.842   9.666  0.2780  0.4944  0.4854
   33POPC   H6R 4423   3.246   5.742   9.688 -2.0019 -0.4474  1.1079
   33POPC   H6S 4424   3.273   5.925   9.684  0.2170  1.3149 -2.6070
   33POPC   C27 4425   3.173   5.838   9.511 -0.4694 -0.7569  1.0676
   33POPC   H7R 4426   3.107   5.925   9.494 -1.5871 -1.7498  0.1718
   33POPC   H7S 4427   3.112   5.750   9.483  1.2940 -2.2305  1.6323
   33POPC   C28 4428   3.297   5.856   9.417 -1.1663  0.3570  0.3837
   33POPC   H8R 4429   3.347   5.759   9.400  0.4873  1.6174 -2.6382
   33POPC   H8S 4430   3.371   5.922   9.467 -0.2564 -0.7515  0.5259
   33POPC   C29 4431   3.246   5.912   9.285 -0.1698 -0.3092  0.5218
   33POPC   H91 4432   3.162   5.983   9.285  1.0042  1.1373  1.4308
   33POPC  C210 4433   3.289   5.866   9.164 -1.1774 -0.2130 -0.5980
   33POPC  H101 4434   3.263   5.925   9.075 -4.7581 -0.0332  0.4344
   33POPC  C211 4435   3.399   5.765   9.144 -0.2118 -0.2309 -0.1051
   33POPC  H11R 4436   3.349   5.670   9.116  2.3995 -0.8797 -3.1910
   33POPC  H11S 4437   3.464   5.745   9.232 -0.1160 -2.3348 -0.6109
   33POPC  C212 4438   3.490   5.806   9.021  0.7471  0.5682 -0.6286
   33POPC  H12R 4439   3.550   5.893   9.057  2.3551 -0.8259  0.2053
   33POPC  H12S 4440   3.436   5.830   8.927  1.1754 -0.2199 -1.0852
   33POPC  C213 4441   3.596   5.692   8.990  0.0523 -0.3569 -0.8574
   33POPC  H13R 4442   3.541   5.602   8.958 -0.1835 -1.0374  1.3127
   33POPC  H13S 4443   3.642   5.665   9.088 -2.3410  0.0763  0.4553
   33POPC  C214 4444   3.705   5.738   8.885  0.1209  0.1561  0.4201
   33POPC  H14R 4445   3.796   5.674   8.890  0.8276  0.9472 -1.4217
   33POPC  H14S 4446   3.749   5.837   8.910 -1.2205  0.0640  3.7896
   33POPC  C215 4447   3.658   5.719   8.739 -0.6869  0.3503  0.2195
   33POPC  H15R 4448   3.601   5.812   8.717  0.7990  1.3992  0.6412
   33POPC  H15S 4449   3.594   5.629   8.726 -0.8466  0.5109 -0.1409
   33POPC  C216 4450   3.774   5.733   8.645 -0.1149 -0.0718  0.2903
   33POPC  H16R 4451   3.829   5.638   8.661  1.2584  0.3621 -1.4659
   33POPC  H16S 4452   3.840   5.820   8.666 -2.6896  2.5543 -1.6696
   33POPC  C217 4453   3.741   5.727   8.495 -0.3415 -0.0673 -0.5434
   33POPC  H17R 4454   3.672   5.641   8.478 -1.6753  0.5958  1.2499
   33POPC  H17S 4455   3.829   5.704   8.432 -1.1264 -3.2493 -0.6870
   33POPC  C218 4456   3.673   5.859   8.438 -0.5833  0.6683  0.4856
   33POPC  H18R 4457   3.598   5.902   8.507 -2.4967 -0.2319 -0.9149
   33POPC  H18S 4458   3.640   5.837   8.334  2.7934 -1.0442 -0.3615
   33POPC  H18T 4459   3.740   5.947   8.429 -1.9553  1.6046 -1.1682
   33POPC   C33 4460   2.640   6.196   9.889 -0.1692  0.3519  0.6836
   33POPC   H3X 4461   2.553   6.232   9.948  0.2100  2.1232  0.2118
   33POPC   H3Y 4462   2.603   6.164   9.789 -0.6308 -1.7210  1.4549
   33POPC   C34 4463   2.755   6.296   9.875 -0.2766 -0.4434 -0.3762
   33POPC   H4X 4464   2.809   6.276   9.780  0.4507 -2.5928  0.4406
   33POPC   H4Y 4465   2.821   6.277   9.962 -0.7413 -1.4876 -0.2399
   33POPC   C35 4466   2.722   6.447   9.853 -0.0642  0.3448  0.1331
   33POPC   H5X 4467   2.750   6.501   9.945  0.6428 -0.3147  0.3203
   33POPC   H5Y 4468   2.611   6.457   9.845 -0.1323 -0.2400  0.2713
   33POPC   C36 4469   2.790   6.527   9.745 -0.8840  0.6698  0.9003
   33POPC   H6X 4470   2.751   6.631   9.742 -0.2769  0.8940 -1.9411
   33POPC   H6Y 4471   2.751   6.487   9.649  0.1769 -0.3875  0.8842
   33POPC   C37 4472   2.949   6.513   9.742  0.5252  0.1352  0.2303
   33POPC   H7X 4473   2.981   6.410   9.716  0.2442 -0.1284  0.8992
   33POPC   H7Y 4474   2.993   6.538   9.841 -1.4500  2.6069  0.5702
   33POPC   C38 4475   3.010   6.617   9.642  0.1740 -0.9650 -0.7359
   33POPC   H8X 4476   3.116   6.639   9.668 -0.5957  0.7377  1.1831
   33POPC   H8Y 4477   2.952   6.710   9.655  0.8907 -0.5886 -0.1591
   33POPC   C39 4478   2.985   6.565   9.500  0.2400 -0.5185 -0.5827
   33POPC   H9X 4479   2.883   6.525   9.483  0.6241 -2.0952  0.5909
   33POPC   H9Y 4480   3.044   6.471   9.493  0.2938 -0.5813  0.5905
   33POPC  C310 4481   3.031   6.656   9.390  0.2541 -0.0351 -0.6745
   33POPC  H10X 4482   3.138   6.673   9.413  0.4749 -1.5686 -0.4376
   33POPC  H10Y 4483   2.976   6.752   9.399 -1.3659 -0.9873  0.0107
   33POPC  C311 4484   3.043   6.584   9.260 -0.1735 -0.0821  1.1747
   33POPC  H11X 4485   3.083   6.482   9.282 -0.7801 -0.8780 -1.1171
   33POPC  H11Y 4486   3.125   6.619   9.194 -0.3711  1.2973  1.6304
   33POPC  C312 4487   2.915   6.569   9.172 -0.1770 -0.2396 -0.7123
   33POPC  H12X 4488   2.866   6.667   9.155 -2.8339 -1.2681  0.4856
   33POPC  H12Y 4489   2.851   6.509   9.241 -1.1259 -0.2777 -1.6134
   33POPC  C313 4490   2.948   6.476   9.047 -0.2941  0.2964  0.7157
   33POPC  H13X 4491   2.990   6.376   9.071 -1.0588 -0.4013 -0.7239
   33POPC  H13Y 4492   3.034   6.526   8.997  0.3958 -0.6946  0.8762
   33POPC  C314 4493   2.845   6.478   8.938 -0.6363 -0.1882  0.3256
   33POPC  H14X 4494   2.808   6.581   8.917 -0.3895 -0.1309  0.1715
   33POPC  H14Y 4495   2.757   6.426   8.980 -2.0686  0.0967 -2.1364
   33POPC  C315 4496   2.891   6.435   8.796  0.0728 -0.9369 -0.6447
   33POPC  H15X 4497   2.921   6.329   8.803  2.4430 -0.2972 -0.1659
   33POPC  H15Y 4498   2.989   6.487   8.784  0.4546 -0.8558  2.1465
   33POPC  C316 4499   2.778   6.459   8.695  0.2067  0.1464 -0.1315
   33POPC  H16X 4500   2.739   6.561   8.674  3.0523  1.3429 -0.0831
   33POPC  H16Y 4501   2.690   6.394   8.713 -1.1485  0.8608 -3.4949
   33POPC  H16Z 4502   2.816   6.456   8.590  0.2006  2.8020 -0.2740
   34POPC     N 4503   4.470   1.720  10.749  0.4612 -0.7496 -0.1804
   34POPC   C12 4504   4.378   1.721  10.638 -0.1507 -0.0581 -0.0605
   34POPC  H12A 4505   4.395   1.643  10.566 -1.7011 -0.1752 -0.3323
   34POPC  H12B 4506   4.396   1.807  10.575  1.2491 -0.4377 -0.2174
   34POPC   C13 4507   4.416   1.796  10.864 -0.3122 -0.3761 -0.1798
   34POPC  H13A 4508   4.328   1.749  10.905  0.1949 -0.6716  0.5997
   34POPC  H13B 4509   4.497   1.811  10.935 -0.5386  0.9566 -0.1671
   34POPC  H13C 4510   4.385   1.895  10.834  2.0258  0.1542 -1.1191
   34POPC   C14 4511   4.498   1.587  10.802  0.4876  0.1790 -0.2472
   34POPC  H14A 4512   4.410   1.535  10.838 -0.3327  1.3875 -0.4619
   34POPC  H14B 4513   4.535   1.520  10.725  0.8559  1.1750 -0.9603
   34POPC  H14C 4514   4.569   1.593  10.883  0.4476 -0.4744 -0.1608
   34POPC   C15 4515   4.601   1.763  10.701 -0.2600  0.4827 -0.2369
   34POPC  H15A 4516   4.626   1.712  10.609  0.6495  2.3814 -1.0813
   34POPC  H15B 4517   4.674   1.743  10.778  1.7957 -2.8778 -2.7671
   34POPC  H15C 4518   4.603   1.869  10.685 -0.1654  0.3916 -0.8576
   34POPC   C11 4519   4.225   1.713  10.656 -0.2857  0.0930  0.1318
   34POPC  H11A 4520   4.176   1.711  10.556 -0.8306  2.0539  0.3272
   34POPC  H11B 4521   4.191   1.805  10.708 -2.0297 -0.6357  0.3373
   34POPC     P 4522   4.122   1.481  10.704  0.5066 -0.0394 -0.6677
   34POPC   O13 4523   3.979   1.505  10.683 -0.5475  0.2974  0.5399
   34POPC   O14 4524   4.155   1.378  10.806  0.1894 -0.7750  0.5286
   34POPC   O12 4525   4.192   1.607  10.751  0.1211  0.0395  0.7802
   34POPC   O11 4526   4.191   1.445  10.568  0.3291  0.2772  0.2206
   34POPC    C1 4527   4.124   1.362  10.472  0.1554  0.0666 -0.2966
   34POPC    HA 4528   4.019   1.392  10.452 -0.3358 -1.0136  0.5935
   34POPC    HB 4529   4.119   1.255  10.502 -2.2278 -0.0601 -0.9538
   34POPC    C2 4530   4.176   1.375  10.325 -0.5350 -0.4583  0.2011
   34POPC    HS 4531   4.283   1.346  10.333 -1.0840 -2.0611  3.6469
   34POPC   O21 4532   4.146   1.506  10.281  0.0978 -0.4464 -0.0904
   34POPC   C21 4533   4.230   1.596  10.314  0.0404 -0.5235  0.3250
   34POPC   O22 4534   4.336   1.578  10.368 -0.0997  0.2712  0.5110
   34POPC   C22 4535   4.180   1.736  10.275 -0.2516  0.3957 -0.3765
   34POPC   H2R 4536   4.257   1.810  10.305  1.3894 -0.2741 -2.6228
   34POPC   H2S 4537   4.090   1.760  10.335 -0.5545  1.0983 -1.1021
   34POPC    C3 4538   4.094   1.265  10.244 -0.0537 -0.4544  0.3010
   34POPC    HX 4539   3.986   1.281  10.261  0.2569 -1.2802  3.8021
   34POPC    HY 4540   4.125   1.165  10.281  3.1434  0.6128  0.8551
   34POPC   O31 4541   4.123   1.268  10.107  1.0151  0.2157  0.7765
   34POPC   C31 4542   4.047   1.350  10.029  0.6426  0.7595 -0.1431
   34POPC   O32 4543   3.976   1.436  10.070  0.2077  0.1528  0.3348
   34POPC   C32 4544   4.084   1.309   9.887 -0.0111  0.1022 -0.6465
   34POPC   H2X 4545   4.055   1.203   9.871  0.0560  0.2499 -1.8005
   34POPC   H2Y 4546   4.194   1.322   9.880  0.3834 -1.1886  2.0261
   34POPC   C23 4547   4.142   1.749  10.121 -1.0397  0.7365  0.0495
   34POPC   H3R 4548   4.043   1.702  10.102 -0.5352 -1.1533  1.8120
   34POPC   H3S 4549   4.216   1.699  10.056 -2.6694 -0.5640 -0.8957
   34POPC   C24 4550   4.134   1.891  10.064  0.4233 -0.4350 -0.1591
   34POPC   H4R 4551   4.231   1.943  10.066  0.4157 -0.3689 -1.1393
   34POPC   H4S 4552   4.071   1.947  10.137  0.4675  2.2084 -2.0120
   34POPC   C25 4553   4.062   1.893   9.929 -0.2073 -0.1636  0.2909
   34POPC   H5R 4554   3.985   1.814   9.944 -1.2839  0.8506  0.3074
   34POPC   H5S 4555   4.130   1.871   9.845 -1.1856 -1.3021 -0.2314
   34POPC   C26 4556   4.011   2.033   9.900  1.0154 -0.9583 -0.5723
   34POPC   H6R 4557   3.986   2.104   9.981 -0.7795  0.7316 -2.4859
   34POPC   H6S 4558   3.910   2.014   9.858  0.3685 -1.1351  0.9907
   34POPC   C27 4559   4.091   2.119   9.796 -1.2604 -1.2638 -0.1339
   34POPC   H7R 4560   4.193   2.135   9.837 -0.5000 -0.2204 -2.2756
   34POPC   H7S 4561   4.045   2.219   9.782 -1.7161 -1.5172 -0.4630
   34POPC   C28 4562   4.100   2.056   9.654 -0.1488 -0.7200 -0.0540
   34POPC   H8R 4563   3.995   2.034   9.625  0.4301 -0.1483 -2.8138
   34POPC   H8S 4564   4.152   1.958   9.662  0.2564 -0.6230 -1.3155
   34POPC   C29 4565   4.175   2.140   9.548  0.1120 -0.3662 -0.1631
   34POPC   H91 4566   4.213   2.240   9.570 -1.5278  0.7467 -2.0280
   34POPC  C210 4567   4.209   2.092   9.429  0.2256  0.2700  0.0880
   34POPC  H101 4568   4.272   2.160   9.370 -1.1301  1.4490 -0.0301
   34POPC  C211 4569   4.161   1.958   9.368 -0.2354  0.1684 -0.2265
   34POPC  H11R 4570   4.056   1.941   9.399 -0.0579 -0.5822 -0.0054
   34POPC  H11S 4571   4.216   1.871   9.412  1.0101  0.6020 -0.8582
   34POPC  C212 4572   4.176   1.950   9.211 -0.4811 -0.2433 -0.2806
   34POPC  H12R 4573   4.281   1.972   9.181  0.4985 -0.8878  2.3836
   34POPC  H12S 4574   4.116   2.032   9.165  0.1270 -0.5929 -1.7660
   34POPC  C213 4575   4.132   1.825   9.152 -0.2224  0.9268  1.0007
   34POPC  H13R 4576   4.031   1.800   9.192 -0.4291 -0.3801 -0.2682
   34POPC  H13S 4577   4.198   1.740   9.179 -0.9242 -0.8160 -2.2385
   34POPC  C214 4578   4.121   1.836   9.002 -0.2444 -0.1480  0.5596
   34POPC  H14R 4579   4.219   1.868   8.961  0.1282 -0.3405  1.2824
   34POPC  H14S 4580   4.048   1.918   8.985  1.1347  0.4377 -3.5348
   34POPC  C215 4581   4.067   1.713   8.925 -0.0288 -0.1983  0.0729
   34POPC  H15R 4582   3.986   1.661   8.981  0.0926 -0.8914 -0.3812
   34POPC  H15S 4583   4.161   1.655   8.918  1.2419  1.7194  0.2775
   34POPC  C216 4584   4.011   1.743   8.786  0.3026  0.1535 -0.2433
   34POPC  H16R 4585   4.092   1.798   8.732 -0.6929  1.8732 -0.0679
   34POPC  H16S 4586   3.930   1.819   8.790  2.2344  2.3014  0.6039
   34POPC  C217 4587   3.973   1.612   8.717 -0.0544 -0.1533 -0.9828
   34POPC  H17R 4588   3.880   1.570   8.760  0.1479 -0.2729 -0.6627
   34POPC  H17S 4589   4.059   1.543   8.722 -0.0656 -0.2404 -1.8022
   34POPC  C218 4590   3.949   1.634   8.566 -0.1551 -0.3824  0.1310
   34POPC  H18R 4591   3.854   1.686   8.543 -0.9582 -1.0758  1.6853
   34POPC  H18S 4592   3.942   1.534   8.517 -0.0815  0.3238 -1.3520
   34POPC  H18T 4593   4.038   1.681   8.519 -1.2620  2.4078  0.6168
   34POPC   C33 4594   4.024   1.399   9.773 -0.6086 -0.0489 -0.2664
   34POPC   H3X 4595   3.916   1.388   9.797 -0.1314 -1.1751  1.5820
   34POPC   H3Y 4596   4.033   1.338   9.680  0.4750  0.6122 -0.6093
   34POPC   C34 4597   4.068   1.542   9.756  0.4511  0.6566 -0.5794
   34POPC   H4X 4598   4.142   1.538   9.673  1.1061  1.3027 -0.0469
   34POPC   H4Y 4599   4.117   1.587   9.845  0.4679 -0.6135  0.0661
   34POPC   C35 4600   3.963   1.639   9.699  0.0172 -0.1939 -0.2410
   34POPC   H5X 4601   4.023   1.716   9.646  1.0342 -0.2220  0.8228
   34POPC   H5Y 4602   3.900   1.682   9.780  0.9846  1.6760 -0.4246
   34POPC   C36 4603   3.874   1.590   9.586  0.1992  0.8468  0.4695
   34POPC   H6X 4604   3.809   1.677   9.564 -2.1656 -0.9629 -0.1080
   34POPC   H6Y 4605   3.822   1.496   9.616  0.2025  0.9122  0.6838
   34POPC   C37 4606   3.938   1.543   9.452  0.2972 -0.4375 -0.9082
   34POPC   H7X 4607   3.998   1.452   9.474 -0.7649 -0.7573  0.9190
   34POPC   H7Y 4608   4.006   1.627   9.424  2.2646 -0.6353  2.5774
   34POPC   C38 4609   3.840   1.501   9.343 -0.3325 -0.6313 -0.1167
   34POPC   H8X 4610   3.888   1.464   9.251 -0.5020  3.7645 -2.2235
   34POPC   H8Y 4611   3.786   1.596   9.324  0.5439  0.7413  3.3731
   34POPC   C39 4612   3.737   1.400   9.384 -0.4583  0.0378  0.2344
   34POPC   H9X 4613   3.678   1.437   9.471 -0.4163  3.2081 -0.9722
   34POPC   H9Y 4614   3.785   1.312   9.432  0.3096  0.0308 -0.5313
   34POPC  C310 4615   3.656   1.354   9.254  0.1392 -0.1203  0.4822
   34POPC  H10X 4616   3.574   1.286   9.285 -0.6715 -0.6435 -2.5454
   34POPC  H10Y 4617   3.728   1.306   9.185  1.6994  2.0880  0.4599
   34POPC  C311 4618   3.601   1.475   9.177 -0.2632 -0.0650  0.2751
   34POPC  H11X 4619   3.678   1.539   9.129 -0.2345 -0.9457 -0.8977
   34POPC  H11Y 4620   3.544   1.538   9.248 -0.8224 -0.6724  0.3778
   34POPC  C312 4621   3.514   1.433   9.058  0.1627 -0.0565 -0.5415
   34POPC  H12X 4622   3.506   1.324   9.039 -1.0137  0.1664 -1.3907
   34POPC  H12Y 4623   3.570   1.464   8.967  1.3865  2.7165  1.0470
   34POPC  C313 4624   3.371   1.496   9.062 -0.2078 -0.8962 -0.2589
   34POPC  H13X 4625   3.388   1.604   9.041 -0.6547 -1.2166 -2.6371
   34POPC  H13Y 4626   3.322   1.490   9.161 -0.0818  2.9529  0.2008
   34POPC  C314 4627   3.281   1.443   8.954  0.0464  0.4890 -0.6981
   34POPC  H14X 4628   3.246   1.344   8.989 -0.6318  1.4263  1.4787
   34POPC  H14Y 4629   3.341   1.419   8.864  1.1484 -0.1751  0.1877
   34POPC  C315 4630   3.155   1.526   8.922  0.1541 -0.5990 -0.0402
   34POPC  H15X 4631   3.109   1.493   8.827  0.3244 -1.8260  0.2752
   34POPC  H15Y 4632   3.175   1.635   8.911 -1.6876 -0.1810  0.4454
   34POPC  C316 4633   3.052   1.508   9.039 -0.7624  0.1635  0.1564
   34POPC  H16X 4634   3.025   1.402   9.058  2.0401 -0.3000  2.1687
   34POPC  H16Y 4635   2.963   1.572   9.024  2.1171  3.8851 -3.3343
   34POPC  H16Z 4636   3.098   1.544   9.134  0.9172  0.6577 -0.7939
   35POPC     N 4637   1.588   6.169  11.269  0.4483 -0.0689 -0.1507
   35POPC   C12 4638   1.504   6.097  11.161 -0.1762 -0.0090 -0.2222
   35POPC  H12A 4639   1.464   6.166  11.090 -0.1352  0.2782  0.0320
   35POPC  H12B 4640   1.410   6.067  11.204 -0.5386 -0.5080 -1.3342
   35POPC   C13 4641   1.521   6.298  11.310  0.2372 -0.1870  0.3036
   35POPC  H13A 4642   1.433   6.287  11.372  1.4643  0.1013  2.1703
   35POPC  H13B 4643   1.576   6.358  11.380  1.1455 -1.7962  1.0041
   35POPC  H13C 4644   1.504   6.359  11.222  3.6130  0.3445 -0.1198
   35POPC   C14 4645   1.620   6.077  11.389  0.8042 -0.5523  0.2120
   35POPC  H14A 4646   1.647   5.981  11.348 -3.3063 -2.3728  1.2232
   35POPC  H14B 4647   1.681   6.127  11.463  0.2728 -0.1808  0.4039
   35POPC  H14C 4648   1.527   6.046  11.434  0.3638  0.5936  0.1213
   35POPC   C15 4649   1.718   6.208  11.212 -0.2260  0.1635 -0.0463
   35POPC  H15A 4650   1.754   6.137  11.139  0.2742 -0.5529  0.8782
   35POPC  H15B 4651   1.787   6.232  11.291  0.9904  1.5275 -1.4642
   35POPC  H15C 4652   1.694   6.301  11.163 -1.2200  0.8428  1.6485
   35POPC   C11 4653   1.582   5.979  11.095  0.4776  0.1471  0.5628
   35POPC  H11A 4654   1.672   6.016  11.042  0.3414  0.3345  0.4586
   35POPC  H11B 4655   1.517   5.942  11.014 -0.9001 -0.0806  1.7231
   35POPC     P 4656   1.515   5.750  11.202 -0.2520  0.1624  0.0505
   35POPC   O13 4657   1.384   5.795  11.254 -0.0069 -0.7260  0.4177
   35POPC   O14 4658   1.583   5.637  11.270 -0.4499 -0.0477  0.1438
   35POPC   O12 4659   1.613   5.877  11.182  0.5877  0.2376 -0.0826
   35POPC   O11 4660   1.490   5.703  11.053  0.0351  0.4721 -0.0511
   35POPC    C1 4661   1.610   5.661  10.981  0.8582 -0.6247 -0.6709
   35POPC    HA 4662   1.676   5.593  11.038 -0.5194 -0.8934  0.6642
   35POPC    HB 4663   1.669   5.751  10.954 -2.6494  1.3991 -2.3767
   35POPC    C2 4664   1.582   5.559  10.868  0.0101  0.0825  0.9217
   35POPC    HS 4665   1.669   5.542  10.802 -0.6249 -0.9526  0.3188
   35POPC   O21 4666   1.469   5.614  10.794  0.5696  0.1276 -0.2330
   35POPC   C21 4667   1.495   5.674  10.680 -0.3946 -0.2760  0.9701
   35POPC   O22 4668   1.607   5.677  10.632 -0.0372 -0.5801  0.0663
   35POPC   C22 4669   1.367   5.722  10.607 -0.4586  0.3526 -0.2583
   35POPC   H2R 4670   1.401   5.781  10.519  0.7633  0.8366  0.5081
   35POPC   H2S 4671   1.320   5.779  10.690 -0.4845 -0.9407  0.6337
   35POPC    C3 4672   1.540   5.416  10.910  0.0689  0.3434 -0.3156
   35POPC    HX 4673   1.442   5.427  10.961  0.5928 -0.5090  0.9287
   35POPC    HY 4674   1.616   5.373  10.979  0.8776  1.7725 -0.2887
   35POPC   O31 4675   1.506   5.332  10.801  0.4676 -0.2522  0.2780
   35POPC   C31 4676   1.598   5.289  10.717  0.0093  0.2711  0.7364
   35POPC   O32 4677   1.714   5.307  10.720  0.2371 -0.6038  0.0449
   35POPC   C32 4678   1.525   5.207  10.608  0.3894  0.1834 -0.7449
   35POPC   H2X 4679   1.433   5.263  10.583 -0.8921 -0.0914  2.7417
   35POPC   H2Y 4680   1.500   5.111  10.660 -3.4309  1.8433  0.9036
   35POPC   C23 4681   1.288   5.599  10.540 -0.1297  0.2867  0.4169
   35POPC   H3R 4682   1.194   5.640  10.498  1.4748  1.4684 -2.3097
   35POPC   H3S 4683   1.257   5.531  10.622 -1.4435  0.1328 -0.1788
   35POPC   C24 4684   1.366   5.530  10.427  0.7532  0.5825  0.1683
   35POPC   H4R 4685   1.310   5.437  10.403  1.9596  0.2098 -1.2930
   35POPC   H4S 4686   1.472   5.508  10.449  0.7946  1.6245  1.1261
   35POPC   C25 4687   1.371   5.618  10.300  0.0685  0.3788 -0.2730
   35POPC   H5R 4688   1.383   5.726  10.321 -0.2311  0.4771 -0.6161
   35POPC   H5S 4689   1.269   5.600  10.261  0.4013  0.4466 -1.1947
   35POPC   C26 4690   1.473   5.579  10.196  0.1554 -0.0432 -0.1288
   35POPC   H6R 4691   1.458   5.471  10.175 -3.9121 -0.0394  1.9269
   35POPC   H6S 4692   1.579   5.604  10.219  1.3510 -3.6654 -1.0077
   35POPC   C27 4693   1.446   5.655  10.064 -0.0346  0.3335 -0.1535
   35POPC   H7R 4694   1.428   5.763  10.083  0.9906  0.1934  1.9699
   35POPC   H7S 4695   1.351   5.611  10.028  0.6866 -2.8594  1.5414
   35POPC   C28 4696   1.560   5.641   9.957 -0.3889  0.0251  0.8251
   35POPC   H8R 4697   1.638   5.713   9.989  0.4047  0.1899 -1.3867
   35POPC   H8S 4698   1.519   5.691   9.867  1.2857 -2.2880 -1.3707
   35POPC   C29 4699   1.591   5.497   9.932  0.2712  0.2386  0.1090
   35POPC   H91 4700   1.652   5.450  10.011  2.5896 -0.8990 -2.2288
   35POPC  C210 4701   1.565   5.422   9.823  0.0151  0.3043  0.0211
   35POPC  H101 4702   1.598   5.317   9.825  0.9000  0.5839  0.8521
   35POPC  C211 4703   1.502   5.471   9.696  0.4688  0.0314 -0.1844
   35POPC  H11R 4704   1.540   5.574   9.677 -0.6935  0.9234  1.9817
   35POPC  H11S 4705   1.393   5.477   9.714  0.6550  2.9800  0.5103
   35POPC  C212 4706   1.532   5.364   9.588  0.6153 -0.0507  0.8729
   35POPC  H12R 4707   1.490   5.270   9.630 -1.8683 -0.8251 -2.8302
   35POPC  H12S 4708   1.641   5.359   9.568  0.4868  1.9281 -0.6195
   35POPC  C213 4709   1.460   5.387   9.449 -0.9471  0.3452  0.1256
   35POPC  H13R 4710   1.495   5.489   9.423  0.4989 -0.1934 -0.0965
   35POPC  H13S 4711   1.350   5.384   9.468 -1.0523 -3.3663 -0.2761
   35POPC  C214 4712   1.496   5.285   9.339 -0.0871 -0.1995  0.0800
   35POPC  H14R 4713   1.468   5.190   9.390  1.9591  0.0432  1.7934
   35POPC  H14S 4714   1.604   5.287   9.314 -0.0625  0.7799  0.2328
   35POPC  C215 4715   1.419   5.321   9.213 -0.4404  0.3003 -0.0221
   35POPC  H15R 4716   1.446   5.424   9.181  0.6980  0.1995  0.5638
   35POPC  H15S 4717   1.312   5.329   9.243 -0.0085  0.7412  1.4477
   35POPC  C216 4718   1.455   5.232   9.098  0.8740  0.3345 -0.8722
   35POPC  H16R 4719   1.423   5.134   9.139 -1.5578  2.0024  1.5668
   35POPC  H16S 4720   1.565   5.233   9.083  0.9046 -1.4310 -0.9599
   35POPC  C217 4721   1.384   5.271   8.973  0.4960 -0.0918  0.5966
   35POPC  H17R 4722   1.427   5.370   8.946 -1.1717  0.2666 -0.9643
   35POPC  H17S 4723   1.274   5.265   8.988  0.3668 -0.1883 -0.3193
   35POPC  C218 4724   1.416   5.170   8.859  0.5936 -1.1075 -0.4123
   35POPC  H18R 4725   1.367   5.197   8.762  1.0273 -0.8821 -0.5701
   35POPC  H18S 4726   1.380   5.073   8.899  1.1493 -0.2524  2.3945
   35POPC  H18T 4727   1.526   5.158   8.859  0.6826 -0.9852  2.5079
   35POPC   C33 4728   1.617   5.194  10.484  0.6038  0.4908  0.2233
   35POPC   H3X 4729   1.702   5.124  10.496  1.6136  1.6871  0.1686
   35POPC   H3Y 4730   1.663   5.291  10.457  2.0862 -0.5980 -1.3629
   35POPC   C34 4731   1.538   5.141  10.369 -0.3397 -0.5318  0.4019
   35POPC   H4X 4732   1.451   5.210  10.358  0.3692  0.1934 -0.8534
   35POPC   H4Y 4733   1.493   5.043  10.396 -1.0189 -0.0435  1.0860
   35POPC   C35 4734   1.631   5.158  10.247  0.2672  0.9268 -0.9205
   35POPC   H5X 4735   1.705   5.076  10.259  1.7137  2.3715  0.8201
   35POPC   H5Y 4736   1.678   5.259  10.252  0.5176  0.7979 -0.6627
   35POPC   C36 4737   1.554   5.143  10.114  0.8004 -0.2327  0.1042
   35POPC   H6X 4738   1.505   5.238  10.085 -2.9772 -1.5480  1.6096
   35POPC   H6Y 4739   1.463   5.081  10.129  0.7867 -0.2027  0.1420
   35POPC   C37 4740   1.634   5.085  10.000 -0.0654 -0.2087 -0.2104
   35POPC   H7X 4741   1.685   4.991  10.032  0.3498  0.2261  0.4248
   35POPC   H7Y 4742   1.714   5.154   9.967 -0.1347 -0.8873 -1.9348
   35POPC   C38 4743   1.563   5.032   9.874  0.7023  0.0453 -0.1248
   35POPC   H8X 4744   1.484   5.107   9.851  2.0886  2.1242  1.5545
   35POPC   H8Y 4745   1.524   4.932   9.902 -0.7250  1.4231  3.3775
   35POPC   C39 4746   1.652   5.012   9.751  0.7043  0.6339  0.0835
   35POPC   H9X 4747   1.726   4.934   9.778 -1.0754 -0.6928  1.3646
   35POPC   H9Y 4748   1.704   5.108   9.731  1.1438 -0.0395 -2.3721
   35POPC  C310 4749   1.578   4.958   9.628  0.3284 -0.4847  0.4194
   35POPC  H10X 4750   1.496   5.028   9.602  1.6545  0.8732 -0.2622
   35POPC  H10Y 4751   1.538   4.858   9.656  3.4216 -1.7115  0.8877
   35POPC  C311 4752   1.667   4.922   9.498 -0.6352 -0.2934 -0.7255
   35POPC  H11X 4753   1.731   4.834   9.523  0.4316  1.0502  1.6097
   35POPC  H11Y 4754   1.727   5.014   9.485 -0.9290 -0.0282 -0.2190
   35POPC  C312 4755   1.582   4.912   9.380 -0.1711 -0.6041  0.2496
   35POPC  H12X 4756   1.523   5.006   9.372 -0.9295 -1.0570  0.4883
   35POPC  H12Y 4757   1.501   4.837   9.386 -2.4558  1.6811 -0.2691
   35POPC  C313 4758   1.663   4.882   9.244 -0.2949  0.2294 -0.1487
   35POPC  H13X 4759   1.739   4.801   9.253 -0.6365 -0.4032 -2.3484
   35POPC  H13Y 4760   1.728   4.967   9.216 -1.8642  1.6939  0.4880
   35POPC  C314 4761   1.573   4.850   9.123  0.8933 -0.4048 -0.1562
   35POPC  H14X 4762   1.484   4.915   9.114  1.3523  0.1078 -1.0462
   35POPC  H14Y 4763   1.534   4.746   9.128 -1.5418  0.3641 -1.5317
   35POPC  C315 4764   1.629   4.874   8.983 -0.0552  0.6713 -0.2166
   35POPC  H15X 4765   1.665   4.979   8.984 -0.0536  0.6969 -1.5865
   35POPC  H15Y 4766   1.546   4.861   8.910 -2.1565  1.8144  1.8116
   35POPC  C316 4767   1.751   4.796   8.939  0.3574  0.0452  0.3339
   35POPC  H16X 4768   1.725   4.689   8.926 -0.0843  0.1240  0.5673
   35POPC  H16Y 4769   1.838   4.790   9.007  1.0176 -0.8873 -0.5581
   35POPC  H16Z 4770   1.796   4.821   8.840 -0.5315  0.1654 -0.0499
   36POPC     N 4771   0.235   3.009  10.974 -0.3584  0.5745 -0.5291
   36POPC   C12 4772   0.171   3.110  10.883  0.2794 -0.0130 -0.4553
   36POPC  H12A 4773   0.122   3.185  10.944  0.3583  0.0864 -0.5140
   36POPC  H12B 4774   0.091   3.068  10.824  0.1002  0.6610 -0.6999
   36POPC   C13 4775   0.354   3.073  11.047  0.4657 -0.1698  0.8429
   36POPC  H13A 4776   0.420   3.126  10.979  0.5460 -0.3479  0.7804
   36POPC  H13B 4777   0.327   3.151  11.115 -1.2482  1.4885 -1.5787
   36POPC  H13C 4778   0.398   2.997  11.110  0.0780  0.0297  1.3568
   36POPC   C14 4779   0.128   2.976  11.075  0.1328  0.4454 -0.0326
   36POPC  H14A 4780   0.080   3.058  11.126 -1.7713 -0.6487  0.0493
   36POPC  H14B 4781   0.047   2.923  11.026  0.2497 -0.6727  0.9297
   36POPC  H14C 4782   0.161   2.907  11.152 -0.0822  1.2990  0.8397
   36POPC   C15 4783   0.272   2.883  10.904  0.1813  0.2315  0.1896
   36POPC  H15A 4784   0.286   2.797  10.967 -0.4041 -0.6620 -0.8653
   36POPC  H15B 4785   0.374   2.904  10.874  0.5151  1.8798  2.2891
   36POPC  H15C 4786   0.208   2.859  10.820 -0.2947  0.4117  0.4981
   36POPC   C11 4787   0.252   3.192  10.787 -0.5676  0.2847 -0.0256
   36POPC  H11A 4788   0.200   3.230  10.697 -0.6785  0.9448  0.3090
   36POPC  H11B 4789   0.333   3.130  10.742  0.4889 -0.0236  2.1575
   36POPC     P 4790   0.221   3.432  10.867 -0.0138 -0.1413  0.0938
   36POPC   O13 4791   0.297   3.523  10.951  0.6827 -0.0351  0.5688
   36POPC   O14 4792   0.087   3.389  10.907  0.0507 -0.1304 -0.0825
   36POPC   O12 4793   0.310   3.301  10.852 -0.4369  0.1714  0.2719
   36POPC   O11 4794   0.213   3.486  10.717  0.4260 -0.3117 -0.2024
   36POPC    C1 4795   0.339   3.508  10.647 -0.0178  0.2503 -0.3948
   36POPC    HA 4796   0.399   3.414  10.645  0.1924  0.3388  0.8865
   36POPC    HB 4797   0.405   3.582  10.698  0.6545  0.0268 -0.9169
   36POPC    C2 4798   0.311   3.554  10.508 -0.1110  0.1973  0.1856
   36POPC    HS 4799   0.408   3.547  10.455 -0.5905  2.0922 -1.0360
   36POPC   O21 4800   0.258   3.693  10.500  0.1493  0.1445  0.4250
   36POPC   C21 4801   0.351   3.789  10.526 -0.9843  0.4845  0.3112
   36POPC   O22 4802   0.470   3.756  10.537 -0.0028  0.4164  0.1924
   36POPC   C22 4803   0.288   3.922  10.544  0.2339  0.3610  0.2462
   36POPC   H2R 4804   0.285   3.957  10.649  2.8473  1.0588  0.1683
   36POPC   H2S 4805   0.180   3.909  10.524 -0.2823 -0.6120  3.1935
   36POPC    C3 4806   0.201   3.459  10.441  0.6195 -0.1416  0.1789
   36POPC    HX 4807   0.103   3.507  10.461  0.2052 -0.4370 -1.0237
   36POPC    HY 4808   0.185   3.362  10.492 -0.3148  0.4844  1.1289
   36POPC   O31 4809   0.234   3.451  10.301  0.2511 -0.0860  0.0350
   36POPC   C31 4810   0.291   3.339  10.267 -0.2858  0.3840 -0.1544
   36POPC   O32 4811   0.344   3.257  10.344  0.8464 -0.2055  0.3653
   36POPC   C32 4812   0.274   3.305  10.117 -0.4473 -0.8595  0.2750
   36POPC   H2X 4813   0.280   3.406  10.070  0.5840  0.0476  2.2071
   36POPC   H2Y 4814   0.184   3.249  10.085 -0.6249 -0.8000  0.6687
   36POPC   C23 4815   0.364   4.026  10.459  0.0124 -0.0584 -0.1749
   36POPC   H3R 4816   0.468   4.028  10.500  0.2559 -1.3714 -0.6723
   36POPC   H3S 4817   0.313   4.124  10.471 -1.5207 -0.9624  0.9857
   36POPC   C24 4818   0.355   3.994  10.308 -0.5533 -0.0245  0.9474
   36POPC   H4R 4819   0.252   3.964  10.279 -0.3838  0.5045 -0.2639
   36POPC   H4S 4820   0.423   3.912  10.273 -3.3140 -2.3584  0.6703
   36POPC   C25 4821   0.395   4.118  10.223 -0.2640  0.3215 -0.7713
   36POPC   H5R 4822   0.499   4.141  10.253 -0.9395  0.4161  1.6739
   36POPC   H5S 4823   0.322   4.193  10.261  0.9593  1.4655 -0.6099
   36POPC   C26 4824   0.383   4.091  10.070 -0.1494  0.3476  0.0648
   36POPC   H6R 4825   0.281   4.050  10.058 -0.8706  1.5839  1.6417
   36POPC   H6S 4826   0.457   4.008  10.062  0.6167  1.1978 -3.1600
   36POPC   C27 4827   0.435   4.209   9.991 -1.0429  0.2430 -1.0572
   36POPC   H7R 4828   0.537   4.237  10.025 -0.7444 -0.6395 -1.1943
   36POPC   H7S 4829   0.371   4.296  10.016  0.2100  1.0623 -0.6041
   36POPC   C28 4830   0.429   4.188   9.840 -0.2552 -0.0191 -1.5053
   36POPC   H8R 4831   0.515   4.117   9.828  0.2444  0.4184 -0.5910
   36POPC   H8S 4832   0.463   4.281   9.790 -1.4524  1.6902  0.6951
   36POPC   C29 4833   0.311   4.125   9.775  0.0819  0.4234  0.2454
   36POPC   H91 4834   0.217   4.136   9.832  0.1523 -0.2047  0.4948
   36POPC  C210 4835   0.313   4.082   9.646 -0.3629 -1.0629  0.2677
   36POPC  H101 4836   0.222   4.026   9.620 -2.6072  2.3654  0.1523
   36POPC  C211 4837   0.429   4.098   9.549 -0.2967 -0.0365  0.3550
   36POPC  H11R 4838   0.418   4.015   9.476 -1.7098 -0.0848  0.5987
   36POPC  H11S 4839   0.526   4.082   9.599  0.7866  2.4511 -0.7896
   36POPC  C212 4840   0.428   4.232   9.482  0.0277 -0.2301  0.1973
   36POPC  H12R 4841   0.442   4.308   9.562 -2.6718  0.4105  0.1587
   36POPC  H12S 4842   0.326   4.254   9.442 -0.6478 -3.3818 -0.0716
   36POPC  C213 4843   0.534   4.256   9.371 -0.1560  0.1192  0.5211
   36POPC  H13R 4844   0.502   4.342   9.308  2.6474 -0.7731 -2.4139
   36POPC  H13S 4845   0.545   4.169   9.303  0.4477  0.4378  0.2069
   36POPC  C214 4846   0.675   4.286   9.417  0.2841  0.1434  0.2425
   36POPC  H14R 4847   0.721   4.189   9.446  0.0241  0.5737  2.2946
   36POPC  H14S 4848   0.678   4.341   9.514  0.3770  0.0867  0.2719
   36POPC  C215 4849   0.760   4.354   9.307  0.4191  1.0561 -0.2727
   36POPC  H15R 4850   0.860   4.380   9.347 -0.1955  2.4007  0.4476
   36POPC  H15S 4851   0.708   4.447   9.276 -1.1680  0.4521  0.4834
   36POPC  C216 4852   0.772   4.273   9.182 -0.0736  0.6685 -0.5055
   36POPC  H16R 4853   0.688   4.285   9.110  0.4505 -2.4822 -1.8226
   36POPC  H16S 4854   0.773   4.166   9.212 -0.4304  0.4456 -1.2463
   36POPC  C217 4855   0.902   4.311   9.114  0.1760 -0.1090 -0.3046
   36POPC  H17R 4856   0.941   4.402   9.165 -1.4539 -0.0125  0.8642
   36POPC  H17S 4857   0.893   4.338   9.007  0.7396 -0.1204 -0.3548
   36POPC  C218 4858   1.011   4.199   9.102 -0.0975 -0.0917 -0.0816
   36POPC  H18R 4859   1.006   4.117   9.176  4.0365 -1.8814 -1.4639
   36POPC  H18S 4860   1.107   4.253   9.121 -1.1256  1.5160  0.7605
   36POPC  H18T 4861   1.009   4.155   9.000 -1.3428 -1.3291  0.4471
   36POPC   C33 4862   0.397   3.231  10.064  0.1087 -0.0014  0.5074
   36POPC   H3X 4863   0.405   3.137  10.123  2.4154 -0.8623 -1.0182
   36POPC   H3Y 4864   0.488   3.291  10.087  0.4192 -0.8599  1.6086
   36POPC   C34 4865   0.371   3.185   9.920 -0.0458 -0.1783  0.4938
   36POPC   H4X 4866   0.279   3.123   9.918 -0.9790  1.1062  1.4734
   36POPC   H4Y 4867   0.460   3.138   9.874 -0.1587  0.3570 -0.2967
   36POPC   C35 4868   0.332   3.306   9.826  0.2364 -0.2440 -0.2247
   36POPC   H5X 4869   0.411   3.384   9.834  0.3923 -0.3804 -0.4120
   36POPC   H5Y 4870   0.237   3.351   9.860  1.4048  1.4637  0.9671
   36POPC   C36 4871   0.332   3.256   9.681  0.1022  0.6228 -0.2456
   36POPC   H6X 4872   0.251   3.180   9.679  0.2690  0.3305  1.9019
   36POPC   H6Y 4873   0.425   3.198   9.668 -0.3923 -0.4087  0.7082
   36POPC   C37 4874   0.333   3.360   9.567  0.0996 -0.1621 -0.2375
   36POPC   H7X 4875   0.390   3.447   9.606 -0.0198 -0.5082  0.7321
   36POPC   H7Y 4876   0.229   3.387   9.541  0.7197  1.9427 -0.7591
   36POPC   C38 4877   0.374   3.301   9.434 -0.0278 -0.8581  0.7355
   36POPC   H8X 4878   0.305   3.221   9.402 -2.0186  0.5101  1.3701
   36POPC   H8Y 4879   0.476   3.258   9.439 -0.0700 -1.2114 -0.8659
   36POPC   C39 4880   0.360   3.415   9.328 -0.1024  0.2000  0.5984
   36POPC   H9X 4881   0.460   3.406   9.281 -0.4819  2.2442 -0.7260
   36POPC   H9Y 4882   0.354   3.520   9.363 -2.2789  0.9634 -1.7414
   36POPC  C310 4883   0.236   3.403   9.234 -0.9701  0.3551  0.1527
   36POPC  H10X 4884   0.155   3.429   9.306 -0.6200  0.7673  0.4067
   36POPC  H10Y 4885   0.216   3.300   9.196 -0.3464  0.8296 -1.5616
   36POPC  C311 4886   0.240   3.500   9.118 -0.6376  0.7448 -0.1671
   36POPC  H11X 4887   0.327   3.473   9.055 -0.0070  0.1340  0.9326
   36POPC  H11Y 4888   0.260   3.606   9.146  1.1591 -0.1681  2.4109
   36POPC  C312 4889   0.116   3.490   9.029 -0.0189 -0.7677 -0.1640
   36POPC  H12X 4890   0.021   3.520   9.079 -0.3843 -0.7940 -0.8315
   36POPC  H12Y 4891   0.110   3.384   8.997  0.9799 -0.5037 -1.2932
   36POPC  C313 4892   0.149   3.561   8.894 -0.2629 -0.1922  0.0635
   36POPC  H13X 4893   0.214   3.490   8.839  1.3973 -0.7336  2.5461
   36POPC  H13Y 4894   0.209   3.652   8.915 -0.8088 -0.0343  0.9978
   36POPC  C314 4895   0.013   3.602   8.821 -0.3592  0.0563 -0.9190
   36POPC  H14X 4896  -0.042   3.674   8.885 -0.6223  0.2182 -1.3224
   36POPC  H14Y 4897  -0.044   3.507   8.811  0.7656 -0.6882 -0.5145
   36POPC  C315 4898   0.045   3.680   8.689  0.2778 -0.5364 -0.0933
   36POPC  H15X 4899  -0.047   3.714   8.638  2.0322  2.9493 -1.2882
   36POPC  H15Y 4900   0.086   3.613   8.611  0.2711  1.4767 -1.9315
   36POPC  C316 4901   0.143   3.801   8.700 -0.2426 -1.0694  0.6934
   36POPC  H16X 4902   0.118   3.885   8.632  1.5607  0.3438  1.6986
   36POPC  H16Y 4903   0.251   3.783   8.684 -0.2325 -0.6762  0.3041
   36POPC  H16Z 4904   0.138   3.855   8.797 -0.1525  1.6445 -0.7276
   37POPC     N 4905   1.753   0.213   6.267 -0.2899  0.3224  0.7350
   37POPC   C12 4906   1.708   0.213   6.411  0.7567 -0.1199  0.4604
   37POPC  H12A 4907   1.600   0.221   6.405  0.6775  0.3994  2.0628
   37POPC  H12B 4908   1.746   0.307   6.449  2.5233  0.7685 -3.0646
   37POPC   C13 4909   1.684   0.337   6.211 -0.2767  0.3076 -0.8796
   37POPC  H13A 4910   1.678   0.351   6.104 -0.5959 -1.2013 -1.0741
   37POPC  H13B 4911   1.586   0.352   6.253  0.1971 -0.6230  0.6392
   37POPC  H13C 4912   1.744   0.422   6.241  0.9038 -1.0195  0.7097
   37POPC   C14 4913   1.901   0.234   6.259  1.1499 -0.3251 -0.4494
   37POPC  H14A 4914   1.956   0.159   6.315  1.8710  0.4358 -0.1232
   37POPC  H14B 4915   1.940   0.241   6.159 -1.0187 -1.3784 -1.4297
   37POPC  H14C 4916   1.916   0.324   6.317 -2.0394  0.0370 -0.0319
   37POPC   C15 4917   1.713   0.086   6.195  0.5477 -0.0452 -0.1068
   37POPC  H15A 4918   1.730   0.089   6.088 -0.3457 -1.6497 -0.3256
   37POPC  H15B 4919   1.608   0.067   6.214  0.3845  0.4877 -0.4419
   37POPC  H15C 4920   1.770   0.000   6.226 -1.2404 -0.8003  1.2639
   37POPC   C11 4921   1.752   0.091   6.491  0.4007 -0.0033  0.0007
   37POPC  H11A 4922   1.708  -0.002   6.449 -1.1547 -0.2700  2.0194
   37POPC  H11B 4923   1.692   0.086   6.585 -0.9384 -0.5491 -0.8596
   37POPC     P 4924   1.950   0.120   6.658 -0.1739  0.1349  0.4886
   37POPC   O13 4925   1.853   0.208   6.724 -0.0597 -0.1242  0.3850
   37POPC   O14 4926   2.093   0.164   6.651 -0.3041 -0.1952  0.1647
   37POPC   O12 4927   1.892   0.082   6.514 -0.0317  0.3451 -0.2687
   37POPC   O11 4928   1.944  -0.021   6.728  0.5243  0.1516 -0.4590
   37POPC    C1 4929   1.831  -0.098   6.760  0.2335 -0.7911 -0.8190
   37POPC    HA 4930   1.864  -0.202   6.783 -2.0701 -1.7764 -1.6914
   37POPC    HB 4931   1.768  -0.105   6.669 -0.1993 -2.1345 -0.4541
   37POPC    C2 4932   1.763  -0.046   6.890 -0.1600  0.6798 -0.1387
   37POPC    HS 4933   1.707   0.045   6.861  1.6291  0.8579 -3.5695
   37POPC   O21 4934   1.864  -0.033   6.998  0.3160 -0.1803 -0.1264
   37POPC   C21 4935   1.841   0.087   7.061 -0.2463  1.2392 -0.6574
   37POPC   O22 4936   1.741   0.157   7.053  0.6196 -0.1706  0.3607
   37POPC   C22 4937   1.973   0.123   7.143 -0.7020  0.2752 -0.1244
   37POPC   H2R 4938   1.959   0.218   7.199 -0.9124 -0.8878  1.8608
   37POPC   H2S 4939   2.060   0.123   7.074 -0.8420  0.9965 -0.3177
   37POPC    C3 4940   1.656  -0.153   6.928 -0.1287  0.1553  0.0075
   37POPC    HX 4941   1.716  -0.245   6.948 -0.5354  0.2034  1.5905
   37POPC    HY 4942   1.599  -0.169   6.834  1.0866 -0.3699 -0.6618
   37POPC   O31 4943   1.586  -0.122   7.050 -0.7159 -0.2004  0.0379
   37POPC   C31 4944   1.489  -0.024   7.036  0.4975 -0.0638  0.0325
   37POPC   O32 4945   1.450   0.023   6.928  0.2518  0.3571  0.4177
   37POPC   C32 4946   1.431   0.009   7.172 -0.1384  0.4671  0.1483
   37POPC   H2X 4947   1.491  -0.021   7.261 -1.6713 -2.7266  0.2557
   37POPC   H2Y 4948   1.343  -0.057   7.184  0.4512 -0.7311 -1.7729
   37POPC   C23 4949   2.006   0.023   7.262  0.1328 -0.4722  0.1234
   37POPC   H3R 4950   2.106   0.057   7.296 -1.1929  2.6049  1.3069
   37POPC   H3S 4951   2.025  -0.081   7.228  0.4784 -0.1711 -0.6239
   37POPC   C24 4952   1.902   0.025   7.373  0.4889  0.5124 -0.6809
   37POPC   H4R 4953   1.803   0.009   7.324  0.7663 -2.1325 -0.5177
   37POPC   H4S 4954   1.917   0.114   7.437  0.4957  0.2371 -0.2924
   37POPC   C25 4955   1.928  -0.097   7.456  0.3329  0.4549  0.3468
   37POPC   H5R 4956   2.036  -0.106   7.479  0.6714  0.1473 -1.2714
   37POPC   H5S 4957   1.891  -0.189   7.404  0.6626 -0.4096  1.5786
   37POPC   C26 4958   1.859  -0.098   7.593 -0.1695  0.0031 -0.3922
   37POPC   H6R 4959   1.888  -0.001   7.638  0.1023  1.0850 -2.7756
   37POPC   H6S 4960   1.902  -0.182   7.652 -1.4684 -1.0630 -0.9216
   37POPC   C27 4961   1.706  -0.107   7.578  0.1985  0.0400 -0.0682
   37POPC   H7R 4962   1.682  -0.193   7.512 -1.3429  1.7757 -1.8897
   37POPC   H7S 4963   1.667  -0.016   7.527  0.0178  1.3362  2.2022
   37POPC   C28 4964   1.637  -0.128   7.708  0.2844  0.1348  0.5568
   37POPC   H8R 4965   1.677  -0.226   7.743 -1.4594 -1.6268 -2.0160
   37POPC   H8S 4966   1.532  -0.153   7.681  0.4551  0.0269 -0.0098
   37POPC   C29 4967   1.668  -0.020   7.809 -0.6110  0.2440 -0.0143
   37POPC   H91 4968   1.742   0.057   7.781 -1.0373  0.7526  0.2186
   37POPC  C210 4969   1.625  -0.015   7.939  0.3369 -0.4532 -0.6552
   37POPC  H101 4970   1.666   0.059   8.010 -0.5917 -0.5819  0.0312
   37POPC  C211 4971   1.538  -0.120   8.011  0.1504  0.2809 -0.2297
   37POPC  H11R 4972   1.533  -0.222   7.966  1.8101  1.0418 -2.3199
   37POPC  H11S 4973   1.434  -0.082   8.005 -0.2006 -0.6929 -0.5304
   37POPC  C212 4974   1.582  -0.136   8.156  0.0489 -0.1186  0.2804
   37POPC  H12R 4975   1.687  -0.173   8.154 -0.1582 -0.7208  0.4006
   37POPC  H12S 4976   1.527  -0.227   8.188  0.0578  0.0891  0.8984
   37POPC  C213 4977   1.549  -0.022   8.255  0.4525 -0.5855 -0.1653
   37POPC  H13R 4978   1.440  -0.008   8.245  0.5167 -0.1058 -0.2560
   37POPC  H13S 4979   1.598   0.072   8.219  0.9786 -0.1026  1.7006
   37POPC  C214 4980   1.600  -0.052   8.400 -0.2223  0.6346  0.9760
   37POPC  H14R 4981   1.711  -0.065   8.401 -0.1146  1.2175 -0.5782
   37POPC  H14S 4982   1.540  -0.133   8.445 -3.2921  1.7843 -0.7528
   37POPC  C215 4983   1.567   0.060   8.499  0.2172  0.4393  0.3700
   37POPC  H15R 4984   1.469   0.107   8.477 -0.3891  0.0603  2.1272
   37POPC  H15S 4985   1.650   0.133   8.493  1.2131 -0.6635  0.3111
   37POPC  C216 4986   1.547   0.009   8.644 -0.6510 -0.9087  0.0582
   37POPC  H16R 4987   1.642  -0.040   8.676  0.4351  0.9821 -0.1359
   37POPC  H16S 4988   1.474  -0.074   8.633  1.9508 -3.1156 -1.8943
   37POPC  C217 4989   1.508   0.120   8.742 -0.3634  0.4710  0.6640
   37POPC  H17R 4990   1.590   0.195   8.740 -0.4565  0.5719  0.5695
   37POPC  H17S 4991   1.514   0.078   8.845  1.9016 -0.4261  0.2227
   37POPC  C218 4992   1.364   0.164   8.737  0.8467  0.7712  0.2472
   37POPC  H18R 4993   1.298   0.074   8.736  1.6303  0.1802 -0.4697
   37POPC  H18S 4994   1.348   0.234   8.653 -1.6115  0.1364  0.1233
   37POPC  H18T 4995   1.325   0.226   8.820 -3.4908  0.1654 -1.1085
   37POPC   C33 4996   1.373   0.154   7.168  0.2409  0.0815 -0.6135
   37POPC   H3X 4997   1.301   0.168   7.084 -0.5049 -0.8780 -0.1616
   37POPC   H3Y 4998   1.459   0.222   7.154  1.3431 -1.5223 -1.9765
   37POPC   C34 4999   1.294   0.190   7.295  0.1628  0.7620  0.6517
   37POPC   H4X 5000   1.200   0.130   7.292  1.0255 -0.7550  1.9102
   37POPC   H4Y 5001   1.264   0.296   7.296 -2.7529  0.0547 -1.0344
   37POPC   C35 5002   1.366   0.154   7.429  0.5380 -0.0968  0.0475
   37POPC   H5X 5003   1.470   0.192   7.428  0.3936  0.3700  1.1734
   37POPC   H5Y 5004   1.364   0.044   7.445  0.2518 -0.4805 -2.2467
   37POPC   C36 5005   1.291   0.225   7.542  0.0268 -0.2795  0.3579
   37POPC   H6X 5006   1.193   0.174   7.553  0.4903 -0.6616  3.5442
   37POPC   H6Y 5007   1.271   0.334   7.530 -0.6028  0.0046  3.2547
   37POPC   C37 5008   1.363   0.210   7.672 -0.6386  0.3967  0.5370
   37POPC   H7X 5009   1.454   0.274   7.664  0.1373 -0.6925  0.4228
   37POPC   H7Y 5010   1.410   0.109   7.679 -3.2617 -0.8786  0.7376
   37POPC   C38 5011   1.286   0.259   7.789 -0.5325  0.2561  0.3074
   37POPC   H8X 5012   1.188   0.206   7.794 -0.0703 -0.5704  0.9029
   37POPC   H8Y 5013   1.267   0.368   7.784  0.8959  0.5282  0.5134
   37POPC   C39 5014   1.364   0.242   7.928  0.5233 -0.3453  0.6798
   37POPC   H9X 5015   1.473   0.255   7.914  0.0903  2.8122 -0.6643
   37POPC   H9Y 5016   1.363   0.133   7.949 -0.8903 -0.6066 -0.5434
   37POPC  C310 5017   1.297   0.334   8.032  0.0902  0.5464 -0.7689
   37POPC  H10X 5018   1.192   0.297   8.034 -0.1095  1.1194  0.9133
   37POPC  H10Y 5019   1.291   0.442   8.007  1.6607  0.5053 -1.4410
   37POPC  C311 5020   1.351   0.324   8.170 -0.7896 -0.4427 -0.2751
   37POPC  H11X 5021   1.400   0.228   8.196  3.1571  0.8094 -2.2090
   37POPC  H11Y 5022   1.279   0.356   8.248  0.1234  2.5130 -0.5018
   37POPC  C312 5023   1.460   0.434   8.183  0.1225  0.0036 -0.8378
   37POPC  H12X 5024   1.421   0.536   8.162  1.1514  0.3059 -1.3735
   37POPC  H12Y 5025   1.537   0.423   8.103  1.5768 -0.2474  0.5361
   37POPC  C313 5026   1.545   0.430   8.315  0.6412 -0.0295 -0.7779
   37POPC  H13X 5027   1.637   0.491   8.305  0.9758 -0.7173 -2.0686
   37POPC  H13Y 5028   1.565   0.323   8.337  0.7423  0.3138  0.9488
   37POPC  C314 5029   1.474   0.478   8.448  0.3424  0.6579  0.2089
   37POPC  H14X 5030   1.551   0.494   8.527  1.7695  1.0741 -1.2246
   37POPC  H14Y 5031   1.395   0.410   8.487 -0.4509  0.5849 -1.4702
   37POPC  C315 5032   1.416   0.614   8.430  0.0583 -0.1484  0.0459
   37POPC  H15X 5033   1.331   0.609   8.359  0.2572 -2.5069 -0.1088
   37POPC  H15Y 5034   1.492   0.689   8.398  0.9405 -0.9862  0.1566
   37POPC  C316 5035   1.360   0.657   8.567  0.3649 -0.6436  0.0943
   37POPC  H16X 5036   1.447   0.697   8.624 -0.6991  1.4063  0.3501
   37POPC  H16Y 5037   1.319   0.571   8.625 -0.6196 -0.1503  0.1571
   37POPC  H16Z 5038   1.282   0.736   8.569 -0.6133 -1.5685 -0.7189
   38POPC     N 5039   1.344   3.570   6.286 -0.1082  0.4222  0.5728
   38POPC   C12 5040   1.305   3.424   6.261  0.6260  0.1643 -0.2494
   38POPC  H12A 5041   1.395   3.376   6.296  0.5417  1.3812  1.7640
   38POPC  H12B 5042   1.303   3.409   6.154 -0.1982  0.8638 -0.3432
   38POPC   C13 5043   1.385   3.582   6.430  0.4235 -0.4304  0.4882
   38POPC  H13A 5044   1.477   3.530   6.454  0.1798 -1.6564 -1.1299
   38POPC  H13B 5045   1.394   3.687   6.452 -0.8162 -0.3074  0.4498
   38POPC  H13C 5046   1.302   3.536   6.482 -0.8304  0.9735 -0.2186
   38POPC   C14 5047   1.464   3.599   6.200  0.3892  0.1179 -0.0549
   38POPC  H14A 5048   1.503   3.693   6.238  0.8616  0.3459 -1.0887
   38POPC  H14B 5049   1.546   3.533   6.223  1.0266  1.0240  0.3614
   38POPC  H14C 5050   1.440   3.605   6.095  0.2701  3.0662  0.0504
   38POPC   C15 5051   1.228   3.663   6.247 -0.6336  0.0753  0.4065
   38POPC  H15A 5052   1.257   3.767   6.254  0.2878 -0.1690  0.3797
   38POPC  H15B 5053   1.134   3.647   6.297 -0.7924 -0.5088 -0.0794
   38POPC  H15C 5054   1.196   3.645   6.146  0.5203  0.7495 -0.1071
   38POPC   C11 5055   1.174   3.368   6.318 -0.1751 -0.0571 -0.1014
   38POPC  H11A 5056   1.168   3.258   6.303  3.3019 -0.4200  0.3562
   38POPC  H11B 5057   1.091   3.416   6.261 -0.1833 -0.7337 -0.6729
   38POPC     P 5058   1.046   3.346   6.549 -0.1399 -0.1296 -0.1736
   38POPC   O13 5059   1.098   3.212   6.592 -0.6766 -0.1243  0.0041
   38POPC   O14 5060   0.912   3.343   6.486  0.3202  0.3164  0.1804
   38POPC   O12 5061   1.162   3.401   6.455 -0.3012  0.8287 -0.5390
   38POPC   O11 5062   1.046   3.457   6.662  0.8330 -0.0759  0.1557
   38POPC    C1 5063   1.156   3.527   6.716  0.6135  0.1970 -0.1660
   38POPC    HA 5064   1.110   3.605   6.781 -1.6791  0.0886 -1.5511
   38POPC    HB 5065   1.221   3.579   6.643  0.1860 -0.3010 -0.9084
   38POPC    C2 5066   1.235   3.432   6.805 -0.1749 -0.4479  0.0867
   38POPC    HS 5067   1.263   3.344   6.744  0.9266  0.6418 -1.0518
   38POPC   O21 5068   1.152   3.407   6.918 -0.1408  0.3492  0.3972
   38POPC   C21 5069   1.139   3.286   6.960  0.2538  0.4966 -0.3873
   38POPC   O22 5070   1.211   3.189   6.929  0.1215 -0.2377 -0.3588
   38POPC   C22 5071   1.028   3.284   7.064  0.4953  0.8112  0.7183
   38POPC   H2R 5072   0.928   3.280   7.016  1.3804  1.6279 -1.3192
   38POPC   H2S 5073   1.028   3.379   7.121 -1.5046  0.8460  0.7098
   38POPC    C3 5074   1.367   3.503   6.852 -0.0290  0.7292 -0.6766
   38POPC    HX 5075   1.341   3.605   6.888  1.7741  0.8255  0.4950
   38POPC    HY 5076   1.431   3.527   6.764 -1.4417  0.1754 -1.8939
   38POPC   O31 5077   1.447   3.429   6.951  0.3970  0.1691 -0.1768
   38POPC   C31 5078   1.536   3.335   6.896 -0.0768 -0.5592 -0.3096
   38POPC   O32 5079   1.553   3.326   6.777  0.7202  0.0393  0.1853
   38POPC   C32 5080   1.573   3.241   7.004  0.3381  0.1869  0.2631
   38POPC   H2X 5081   1.603   3.146   6.956  0.9282 -0.0712  1.1127
   38POPC   H2Y 5082   1.484   3.214   7.065  1.7787  0.3603  2.5759
   38POPC   C23 5083   1.038   3.170   7.168 -0.8226  0.7693 -0.0958
   38POPC   H3R 5084   1.088   3.086   7.115 -1.5388 -0.9037  1.7817
   38POPC   H3S 5085   0.938   3.135   7.199  0.0187 -1.5751  0.2121
   38POPC   C24 5086   1.114   3.206   7.299  0.6550  0.7702  0.5241
   38POPC   H4R 5087   1.222   3.225   7.280  0.4489  1.0118 -0.4711
   38POPC   H4S 5088   1.111   3.111   7.356 -0.0814  0.6564  0.2973
   38POPC   C25 5089   1.048   3.313   7.381 -0.4372  0.2200  0.3066
   38POPC   H5R 5090   0.937   3.306   7.378 -0.4787  0.4348 -3.5517
   38POPC   H5S 5091   1.087   3.403   7.329  0.3036 -1.3116 -1.9825
   38POPC   C26 5092   1.100   3.301   7.524 -0.7239 -0.3794 -0.5086
   38POPC   H6R 5093   1.196   3.356   7.523 -0.1348 -1.3048 -3.5316
   38POPC   H6S 5094   1.114   3.201   7.571 -1.3299  0.0786  0.6827
   38POPC   C27 5095   1.007   3.372   7.621  0.3311 -0.3774  0.5879
   38POPC   H7R 5096   0.972   3.458   7.561  0.1437 -0.6761  0.2638
   38POPC   H7S 5097   1.078   3.418   7.694  0.3493  0.6770 -0.0786
   38POPC   C28 5098   0.905   3.292   7.696  0.1454  0.2016  0.3270
   38POPC   H8R 5099   0.952   3.203   7.743  0.4931  0.5479  0.6415
   38POPC   H8S 5100   0.843   3.256   7.611  0.0529 -1.1800  0.9423
   38POPC   C29 5101   0.813   3.368   7.784  0.1436  0.0754  0.0434
   38POPC   H91 5102   0.728   3.401   7.723 -0.2289  0.7437  0.9136
   38POPC  C210 5103   0.837   3.416   7.907 -1.3117 -0.6503 -0.2683
   38POPC  H101 5104   0.754   3.453   7.969 -1.1658  1.8357 -1.4196
   38POPC  C211 5105   0.967   3.381   7.976 -0.5499  0.6044  0.0050
   38POPC  H11R 5106   1.011   3.465   8.034 -1.0958  0.3952  0.7410
   38POPC  H11S 5107   1.051   3.363   7.906  0.5683  1.1853  1.1448
   38POPC  C212 5108   0.950   3.251   8.056  0.6739  0.6217 -0.3105
   38POPC  H12R 5109   0.901   3.170   7.999 -1.9659  0.7301  1.5975
   38POPC  H12S 5110   0.868   3.260   8.131 -1.6146 -2.7522 -2.1682
   38POPC  C213 5111   1.081   3.201   8.119 -0.9361  0.1790 -0.0018
   38POPC  H13R 5112   1.117   3.290   8.175 -2.1731  0.4094  0.4691
   38POPC  H13S 5113   1.160   3.176   8.046  1.2664 -0.5120  2.4709
   38POPC  C214 5114   1.060   3.079   8.212 -0.0699 -0.0693 -0.2900
   38POPC  H14R 5115   1.038   2.985   8.156 -0.9354  0.1990 -0.4133
   38POPC  H14S 5116   0.973   3.111   8.273 -0.0927  0.6887 -0.7071
   38POPC  C215 5117   1.196   3.056   8.278  0.1051 -0.0216 -0.0901
   38POPC  H15R 5118   1.216   3.144   8.343 -1.8809  0.5187 -0.1478
   38POPC  H15S 5119   1.272   3.057   8.197 -0.2286 -1.5947 -0.4525
   38POPC  C216 5120   1.193   2.926   8.363 -0.1213  0.1544 -0.2562
   38POPC  H16R 5121   1.189   2.836   8.298 -0.1228  0.8205 -1.2078
   38POPC  H16S 5122   1.112   2.923   8.438 -2.9284 -0.5528 -3.0994
   38POPC  C217 5123   1.334   2.894   8.427  0.7818  0.4751  0.1818
   38POPC  H17R 5124   1.361   2.983   8.486  0.6536  1.5902 -1.3762
   38POPC  H17S 5125   1.406   2.890   8.342  1.2540  2.3058  0.4587
   38POPC  C218 5126   1.341   2.760   8.501 -0.7303 -0.3056  0.1419
   38POPC  H18R 5127   1.281   2.768   8.595  0.0790  0.8628  0.5915
   38POPC  H18S 5128   1.446   2.739   8.532 -1.2452  0.2859  2.4694
   38POPC  H18T 5129   1.300   2.673   8.446  0.8550 -0.0841 -1.4733
   38POPC   C33 5130   1.694   3.291   7.088  0.3992  0.8105  0.2078
   38POPC   H3X 5131   1.669   3.393   7.122 -1.4066  0.3335  0.4041
   38POPC   H3Y 5132   1.793   3.287   7.037  0.3756 -0.9795  0.2221
   38POPC   C34 5133   1.706   3.199   7.217 -0.0949  0.0821 -0.1988
   38POPC   H4X 5134   1.791   3.246   7.271 -0.1701 -2.2067  2.1698
   38POPC   H4Y 5135   1.746   3.099   7.187  1.0547 -0.7950  3.6714
   38POPC   C35 5136   1.586   3.201   7.313  0.4200 -0.5168 -0.1447
   38POPC   H5X 5137   1.499   3.149   7.267 -1.4534  1.6729  0.7302
   38POPC   H5Y 5138   1.552   3.305   7.335  0.0181 -0.4659 -0.9541
   38POPC   C36 5139   1.620   3.138   7.450 -0.0345 -0.5299  0.1473
   38POPC   H6X 5140   1.714   3.190   7.482 -1.7380  1.6506  2.0082
   38POPC   H6Y 5141   1.642   3.030   7.437  2.6876 -0.1106  0.4651
   38POPC   C37 5142   1.521   3.169   7.550 -0.2257  0.4166  0.8547
   38POPC   H7X 5143   1.441   3.092   7.555 -0.7075  0.9564  1.8525
   38POPC   H7Y 5144   1.466   3.261   7.522 -0.1933  0.0433 -0.4735
   38POPC   C38 5145   1.583   3.172   7.691  0.2820  0.6608  0.4563
   38POPC   H8X 5146   1.669   3.242   7.697  0.5730  0.2117  1.7822
   38POPC   H8Y 5147   1.618   3.069   7.715 -0.9548 -0.2250 -1.2614
   38POPC   C39 5148   1.479   3.218   7.794  0.0836  0.2601  0.2765
   38POPC   H9X 5149   1.450   3.128   7.852  0.6000  1.0174  1.7793
   38POPC   H9Y 5150   1.390   3.264   7.746  0.0820 -0.5904 -0.5707
   38POPC  C310 5151   1.544   3.312   7.888 -0.4777  0.0564  0.6473
   38POPC  H10X 5152   1.565   3.404   7.830  0.1758  0.0533  0.8669
   38POPC  H10Y 5153   1.641   3.274   7.926 -0.2069 -0.2122 -0.2923
   38POPC  C311 5154   1.468   3.318   8.020  0.2569 -0.2204 -0.0803
   38POPC  H11X 5155   1.447   3.219   8.065  1.7353 -0.5720 -0.1176
   38POPC  H11Y 5156   1.368   3.361   7.997 -0.7759 -1.6473  1.6050
   38POPC  C312 5157   1.531   3.416   8.121  0.0502 -0.4826 -0.2583
   38POPC  H12X 5158   1.551   3.517   8.080  0.9735  0.0869  1.4848
   38POPC  H12Y 5159   1.629   3.369   8.148  2.1466  1.7725 -3.3302
   38POPC  C313 5160   1.440   3.424   8.251 -0.6094 -0.5509 -0.6164
   38POPC  H13X 5161   1.337   3.412   8.211 -1.4071 -0.2831  1.2347
   38POPC  H13Y 5162   1.452   3.523   8.299  2.4361 -0.9773 -0.3116
   38POPC  C314 5163   1.464   3.313   8.351 -0.4604 -0.4741 -0.3938
   38POPC  H14X 5164   1.480   3.218   8.295  2.1040  0.3651 -1.2450
   38POPC  H14Y 5165   1.379   3.312   8.423  0.3996  1.1280  0.6997
   38POPC  C315 5166   1.584   3.324   8.451 -1.4519 -0.1576  0.4548
   38POPC  H15X 5167   1.554   3.404   8.523 -2.3748 -1.2519  1.3336
   38POPC  H15Y 5168   1.677   3.367   8.409 -1.4089 -0.6361  0.0675
   38POPC  C316 5169   1.596   3.195   8.540  0.3915  0.2469  0.6832
   38POPC  H16X 5170   1.673   3.208   8.619  1.1000  0.9981 -0.1087
   38POPC  H16Y 5171   1.620   3.113   8.469 -0.3367 -2.5058  3.3793
   38POPC  H16Z 5172   1.494   3.167   8.575  0.6670 -1.9931 -0.1184
   39POPC     N 5173   0.287   6.555   5.788  1.1757  0.8099  0.3437
   39POPC   C12 5174   0.383   6.558   5.898  0.2304 -0.3932  0.0608
   39POPC  H12A 5175   0.424   6.657   5.914 -0.9804  0.2409 -0.5714
   39POPC  H12B 5176   0.472   6.507   5.867  0.1997 -0.9221  0.8231
   39POPC   C13 5177   0.169   6.643   5.814  0.4318 -0.1277 -0.3946
   39POPC  H13A 5178   0.100   6.645   5.731  0.4944  0.1429 -0.4432
   39POPC  H13B 5179   0.121   6.615   5.906  3.3791  0.0051  1.3033
   39POPC  H13C 5180   0.207   6.739   5.847 -1.0459  0.3867 -0.1483
   39POPC   C14 5181   0.361   6.612   5.664 -0.0846  0.7704  0.8047
   39POPC  H14A 5182   0.294   6.611   5.579  1.3941  2.5856 -0.4745
   39POPC  H14B 5183   0.387   6.716   5.671  2.2953  0.2482  0.4939
   39POPC  H14C 5184   0.455   6.567   5.635 -0.6583  0.1474 -0.1585
   39POPC   C15 5185   0.236   6.419   5.756  0.3928 -0.4140  0.4008
   39POPC  H15A 5186   0.316   6.353   5.728  0.4757 -0.5785  1.0054
   39POPC  H15B 5187   0.171   6.434   5.671  0.7352  0.3651  0.2665
   39POPC  H15C 5188   0.186   6.370   5.839 -0.0596 -0.2334  0.2435
   39POPC   C11 5189   0.333   6.482   6.028 -0.5541 -0.5950 -0.0215
   39POPC  H11A 5190   0.415   6.500   6.101  0.5534 -1.2949 -1.0486
   39POPC  H11B 5191   0.315   6.374   6.012 -0.6332 -0.4827 -0.7161
   39POPC     P 5192   0.092   6.496   6.148 -0.2199 -0.1310 -0.0658
   39POPC   O13 5193   0.087   6.349   6.164 -0.1654 -0.9290 -0.3083
   39POPC   O14 5194  -0.023   6.555   6.081 -0.4139 -0.5836 -0.3362
   39POPC   O12 5195   0.219   6.545   6.071 -0.5778 -0.2978 -0.6221
   39POPC   O11 5196   0.112   6.569   6.293 -0.2050  0.0736  0.2916
   39POPC    C1 5197   0.234   6.571   6.372 -0.3405 -0.4514 -1.0108
   39POPC    HA 5198   0.237   6.654   6.446 -1.8124  0.2882 -1.7474
   39POPC    HB 5199   0.325   6.589   6.310 -0.9237  1.8997 -1.2941
   39POPC    C2 5200   0.265   6.443   6.458 -0.3319  0.1676 -0.6328
   39POPC    HS 5201   0.281   6.367   6.378  3.4106  0.7461 -0.6108
   39POPC   O21 5202   0.151   6.419   6.545 -0.0309 -0.3473  0.0416
   39POPC   C21 5203   0.139   6.292   6.579 -0.0306  0.3736 -0.3991
   39POPC   O22 5204   0.210   6.205   6.542 -0.1269 -0.8158 -0.5697
   39POPC   C22 5205   0.019   6.281   6.676 -0.5609 -0.8011  0.7829
   39POPC   H2R 5206  -0.018   6.178   6.660  2.7903 -2.2240  1.2299
   39POPC   H2S 5207  -0.043   6.363   6.635  2.5495  1.9112  1.0404
   39POPC    C3 5208   0.400   6.439   6.541  0.1785 -0.1592  0.0137
   39POPC    HX 5209   0.481   6.439   6.465  0.1929 -0.4312  0.0279
   39POPC    HY 5210   0.413   6.349   6.604 -0.9251 -0.2414  0.1311
   39POPC   O31 5211   0.414   6.567   6.616 -0.1793  0.3147 -0.7118
   39POPC   C31 5212   0.383   6.569   6.749 -0.4789  0.5635  0.2760
   39POPC   O32 5213   0.344   6.474   6.814  0.4921 -0.0176  0.0505
   39POPC   C32 5214   0.416   6.710   6.810  0.6477 -0.0620  0.7216
   39POPC   H2X 5215   0.512   6.702   6.866  1.3495  0.3590 -0.3854
   39POPC   H2Y 5216   0.427   6.772   6.718 -0.4638  1.9483  1.8780
   39POPC   C23 5217   0.043   6.308   6.821 -0.1791 -0.4401 -0.8190
   39POPC   H3R 5218   0.126   6.380   6.833 -0.2105 -0.6748  1.1005
   39POPC   H3S 5219   0.071   6.211   6.867 -1.5059 -0.4130  0.1391
   39POPC   C24 5220  -0.076   6.362   6.885  0.3992 -0.1374 -0.4483
   39POPC   H4R 5221  -0.159   6.290   6.901  0.5725 -0.1395  0.5345
   39POPC   H4S 5222  -0.117   6.438   6.816  0.2132 -0.3139 -0.5322
   39POPC   C25 5223  -0.050   6.425   7.030  0.5620 -0.5494 -0.1008
   39POPC   H5R 5224  -0.132   6.499   7.041  0.2886 -1.0422  1.3232
   39POPC   H5S 5225   0.050   6.471   7.014 -0.3624  0.9799 -1.8768
   39POPC   C26 5226  -0.050   6.324   7.145 -0.9635  0.2947  0.5058
   39POPC   H6R 5227  -0.002   6.377   7.230 -1.4317  0.4621  0.6688
   39POPC   H6S 5228   0.004   6.232   7.111  0.3993  1.2720 -0.0488
   39POPC   C27 5229  -0.186   6.279   7.191 -0.0700  0.2374  0.3463
   39POPC   H7R 5230  -0.247   6.234   7.110  2.3836  1.9317 -2.6948
   39POPC   H7S 5231  -0.239   6.372   7.220 -0.6974 -0.3280  1.0425
   39POPC   C28 5232  -0.188   6.160   7.289  0.4242 -0.3080 -0.1765
   39POPC   H8R 5233  -0.138   6.067   7.255 -0.3623 -1.8160  2.4584
   39POPC   H8S 5234  -0.296   6.136   7.298  0.0349  0.8365 -1.4343
   39POPC   C29 5235  -0.130   6.213   7.420  0.2794  0.2405  0.5216
   39POPC   H91 5236  -0.025   6.240   7.406  0.3712 -1.4338 -3.0528
   39POPC  C210 5237  -0.185   6.237   7.537 -0.4811 -0.5576 -0.1573
   39POPC  H101 5238  -0.115   6.276   7.613 -0.4554 -0.7791 -0.0634
   39POPC  C211 5239  -0.327   6.208   7.574  0.1828 -0.3475 -0.0347
   39POPC  H11R 5240  -0.358   6.110   7.532 -0.6038  0.6871 -1.9726
   39POPC  H11S 5241  -0.391   6.275   7.514 -0.7941 -2.2815 -1.2717
   39POPC  C212 5242  -0.337   6.224   7.726 -0.1082  0.6206  0.4693
   39POPC  H12R 5243  -0.314   6.330   7.752  1.8157  0.6813 -1.2020
   39POPC  H12S 5244  -0.280   6.147   7.782  0.9616  2.6953  2.4156
   39POPC  C213 5245  -0.482   6.200   7.766  0.2837 -0.4260 -0.3093
   39POPC  H13R 5246  -0.507   6.093   7.746 -0.6615 -0.6344  1.7713
   39POPC  H13S 5247  -0.555   6.261   7.708 -1.0785 -1.2179  0.5291
   39POPC  C214 5248  -0.505   6.221   7.910 -0.1191  0.0956 -0.6115
   39POPC  H14R 5249  -0.524   6.327   7.939  1.0224 -0.0457  0.7693
   39POPC  H14S 5250  -0.416   6.192   7.970  0.3130  2.8085  0.2077
   39POPC  C215 5251  -0.637   6.158   7.970  0.7403  0.1857 -0.2544
   39POPC  H15R 5252  -0.625   6.048   7.960 -0.9807  0.0554 -1.2701
   39POPC  H15S 5253  -0.724   6.192   7.910  0.0582  0.3846  0.8394
   39POPC  C216 5254  -0.670   6.192   8.121  0.7987  1.0626 -0.6052
   39POPC  H16R 5255  -0.761   6.140   8.157 -0.4184  2.2894 -1.7965
   39POPC  H16S 5256  -0.685   6.302   8.129  0.4158  0.9901 -0.3179
   39POPC  C217 5257  -0.561   6.149   8.215 -0.5511 -0.2287 -0.3928
   39POPC  H17R 5258  -0.467   6.207   8.203  0.9724 -2.0518  1.9201
   39POPC  H17S 5259  -0.528   6.044   8.202 -1.9639 -0.6706 -0.6151
   39POPC  C218 5260  -0.583   6.173   8.367 -0.4929 -0.4951  0.0813
   39POPC  H18R 5261  -0.490   6.137   8.416 -0.8039 -3.0608 -1.0538
   39POPC  H18S 5262  -0.662   6.109   8.412 -2.4344  3.0778  2.2780
   39POPC  H18T 5263  -0.585   6.277   8.407  0.5295 -0.0927 -0.8734
   39POPC   C33 5264   0.293   6.764   6.891 -0.2636 -0.1160 -0.3315
   39POPC   H3X 5265   0.199   6.736   6.840 -0.3063 -0.7447  0.0809
   39POPC   H3Y 5266   0.317   6.872   6.893  2.5767 -0.6766  0.5456
   39POPC   C34 5267   0.302   6.715   7.044  0.8730  0.0560  0.4315
   39POPC   H4X 5268   0.391   6.759   7.093 -0.0172  2.2105  0.2012
   39POPC   H4Y 5269   0.310   6.604   7.035 -3.7577 -0.6563  2.2873
   39POPC   C35 5270   0.183   6.749   7.136  0.1654  0.5927 -0.6054
   39POPC   H5X 5271   0.090   6.700   7.100 -0.3049  0.8037  0.2775
   39POPC   H5Y 5272   0.160   6.857   7.148 -1.2956  0.1307  1.1555
   39POPC   C36 5273   0.224   6.697   7.284  1.0071  0.2750 -0.2624
   39POPC   H6X 5274   0.299   6.768   7.325 -0.1537  0.7861  1.0896
   39POPC   H6Y 5275   0.269   6.597   7.268 -2.2854 -1.5400  0.7985
   39POPC   C37 5276   0.098   6.674   7.366 -0.1763 -0.3606  0.6427
   39POPC   H7X 5277   0.031   6.607   7.309  2.8014 -2.1022 -1.0652
   39POPC   H7Y 5278   0.056   6.776   7.377  0.2702 -0.2277  1.1540
   39POPC   C38 5279   0.144   6.627   7.502 -0.4959  0.4406  0.0270
   39POPC   H8X 5280   0.230   6.689   7.535 -0.7290  0.3308  0.8500
   39POPC   H8Y 5281   0.180   6.522   7.502 -0.1649  0.5301  1.8413
   39POPC   C39 5282   0.026   6.651   7.591  0.0110  0.0333  0.3675
   39POPC   H9X 5283  -0.053   6.587   7.547  0.5793 -0.5477  0.1714
   39POPC   H9Y 5284  -0.001   6.757   7.611 -1.0224 -0.1823  0.1515
   39POPC  C310 5285   0.038   6.574   7.730 -0.8978  0.2304  0.7072
   39POPC  H10X 5286   0.117   6.636   7.777 -0.4135  0.4037 -0.3090
   39POPC  H10Y 5287   0.060   6.467   7.709  1.3709  1.1975 -2.6042
   39POPC  C311 5288  -0.089   6.593   7.808 -0.2730 -0.9884  0.1638
   39POPC  H11X 5289  -0.165   6.538   7.749  0.6282  1.5753 -3.8446
   39POPC  H11Y 5290  -0.103   6.704   7.805  0.5583 -0.8791 -0.1810
   39POPC  C312 5291  -0.080   6.566   7.961 -0.2403  0.0133 -0.7999
   39POPC  H12X 5292  -0.164   6.611   8.019 -0.5314 -2.9569  1.3297
   39POPC  H12Y 5293   0.019   6.604   7.993  0.2430 -2.6272  1.1296
   39POPC  C313 5294  -0.067   6.410   7.979 -0.0357  0.3749  0.3372
   39POPC  H13X 5295   0.036   6.376   7.954  1.0411  3.6605 -0.0745
   39POPC  H13Y 5296  -0.133   6.357   7.907  0.2282  0.4315  0.0527
   39POPC  C314 5297  -0.091   6.350   8.121 -0.0368  0.1479  0.3562
   39POPC  H14X 5298  -0.197   6.347   8.152 -0.6935 -0.6165 -1.8027
   39POPC  H14Y 5299  -0.037   6.424   8.184 -1.0711  2.1931 -1.0559
   39POPC  C315 5300  -0.038   6.197   8.131 -0.5272  0.0354 -0.9213
   39POPC  H15X 5301  -0.013   6.190   8.239  1.2110  0.2836 -1.2850
   39POPC  H15Y 5302   0.060   6.201   8.079 -0.4086  1.6231 -0.6311
   39POPC  C316 5303  -0.141   6.096   8.080  0.0255  0.2641 -0.3432
   39POPC  H16X 5304  -0.152   6.091   7.970 -1.2724  0.3576 -0.2341
   39POPC  H16Y 5305  -0.236   6.136   8.122  0.0774  1.1974 -1.0730
   39POPC  H16Z 5306  -0.118   5.999   8.128  1.4802  1.2320  1.0420
   40POPC     N 5307   4.020   4.878   6.243 -0.8785  0.2532  0.4624
   40POPC   C12 5308   3.928   4.955   6.331  0.0111 -0.2874  0.2943
   40POPC  H12A 5309   3.828   4.959   6.291  0.0964 -0.7799  0.0218
   40POPC  H12B 5310   3.962   5.057   6.343  0.1609 -0.2995 -0.0154
   40POPC   C13 5311   4.002   4.736   6.251 -0.5217  0.8165  0.1093
   40POPC  H13A 5312   3.915   4.698   6.199  0.1620 -0.9816  0.2072
   40POPC  H13B 5313   4.090   4.693   6.206  0.8732  2.7357  0.8518
   40POPC  H13C 5314   3.995   4.692   6.349  0.6186 -2.0342 -0.9860
   40POPC   C14 5315   3.990   4.923   6.100 -0.0524  0.7258 -0.7900
   40POPC  H14A 5316   3.889   4.906   6.066 -1.4535  3.6011  1.4048
   40POPC  H14B 5317   4.009   5.028   6.085  1.2744  0.4091 -1.4072
   40POPC  H14C 5318   4.053   4.868   6.032  1.3537 -0.1047  1.0972
   40POPC   C15 5319   4.159   4.916   6.278 -0.1590 -0.0094  0.2919
   40POPC  H15A 5320   4.172   5.023   6.288  0.0861  0.3695 -2.9133
   40POPC  H15B 5321   4.226   4.890   6.197 -1.3860  1.4328 -1.2785
   40POPC  H15C 5322   4.204   4.871   6.365  2.7437 -1.3932 -1.7294
   40POPC   C11 5323   3.912   4.906   6.477  0.2168  0.0894 -0.7264
   40POPC  H11A 5324   3.874   4.995   6.531  0.5707  0.7682 -1.5806
   40POPC  H11B 5325   4.013   4.874   6.509 -0.3714 -1.2826 -0.1379
   40POPC     P 5326   3.663   4.821   6.483  0.1457 -0.1744  0.7278
   40POPC   O13 5327   3.614   4.717   6.398 -0.5576  0.3341  0.4830
   40POPC   O14 5328   3.641   4.961   6.440  0.0621  0.6356  0.0230
   40POPC   O12 5329   3.821   4.798   6.489  0.4668 -0.0694 -0.1592
   40POPC   O11 5330   3.589   4.814   6.624 -0.3346 -0.1766  0.0200
   40POPC    C1 5331   3.666   4.835   6.747 -0.2329 -0.2785 -0.6403
   40POPC    HA 5332   3.595   4.872   6.823  2.9712 -0.2210  2.5643
   40POPC    HB 5333   3.741   4.915   6.736  0.2713 -0.3421  1.9167
   40POPC    C2 5334   3.738   4.709   6.792  0.2464 -0.5191 -0.2876
   40POPC    HS 5335   3.801   4.670   6.710  0.8355  0.2832 -0.2255
   40POPC   O21 5336   3.640   4.609   6.831  0.0644  0.1161 -0.6450
   40POPC   C21 5337   3.684   4.483   6.819 -0.1042  0.2485 -0.9210
   40POPC   O22 5338   3.797   4.456   6.789 -0.5126 -0.2907  0.1427
   40POPC   C22 5339   3.583   4.385   6.869 -0.7616  0.1994  0.5061
   40POPC   H2R 5340   3.537   4.346   6.775 -1.4822  0.8081  0.6028
   40POPC   H2S 5341   3.505   4.436   6.929  0.7520  2.1671  0.8829
   40POPC    C3 5342   3.831   4.745   6.918  0.8127 -0.7797  0.6754
   40POPC    HX 5343   3.902   4.822   6.880 -0.3303  1.0121  1.9685
   40POPC    HY 5344   3.885   4.653   6.948 -1.6039 -1.9560  1.7176
   40POPC   O31 5345   3.751   4.800   7.024  0.0393  0.3971 -0.0723
   40POPC   C31 5346   3.752   4.725   7.137  0.5486  0.2005 -0.1853
   40POPC   O32 5347   3.828   4.631   7.162  0.2253  0.0126  0.0693
   40POPC   C32 5348   3.644   4.782   7.228  0.4969 -0.2803  0.6108
   40POPC   H2X 5349   3.554   4.811   7.170  0.8301  0.2953  0.3666
   40POPC   H2Y 5350   3.670   4.883   7.269  1.0403 -0.8271  1.6565
   40POPC   C23 5351   3.654   4.272   6.952 -0.1641  0.4709 -0.1626
   40POPC   H3R 5352   3.738   4.226   6.895  0.3850  0.1743  0.8603
   40POPC   H3S 5353   3.581   4.191   6.975  1.6448 -1.3106 -0.3926
   40POPC   C24 5354   3.713   4.319   7.084 -0.3712 -0.0851 -0.3082
   40POPC   H4R 5355   3.784   4.398   7.052  0.7355 -1.9100 -2.6281
   40POPC   H4S 5356   3.770   4.237   7.133 -0.9541 -1.3666 -1.7208
   40POPC   C25 5357   3.608   4.386   7.179  0.1117  0.9066  0.6574
   40POPC   H5R 5358   3.570   4.474   7.122  1.3037  0.8641 -0.2482
   40POPC   H5S 5359   3.654   4.418   7.275  1.1399 -0.7187  0.7427
   40POPC   C26 5360   3.485   4.295   7.202 -0.7788 -0.0300 -0.8569
   40POPC   H6R 5361   3.530   4.194   7.203 -3.6718 -1.4487  1.0734
   40POPC   H6S 5362   3.423   4.284   7.110 -1.0740 -0.9192 -0.5659
   40POPC   C27 5363   3.402   4.314   7.331 -0.0936  0.1892 -0.4045
   40POPC   H7R 5364   3.345   4.409   7.326  1.5693  1.2179 -0.6111
   40POPC   H7S 5365   3.467   4.325   7.421 -1.7429 -1.4845  1.0789
   40POPC   C28 5366   3.308   4.193   7.360 -0.2037 -0.1666  0.0993
   40POPC   H8R 5367   3.216   4.185   7.298 -0.3240 -3.2030  0.5003
   40POPC   H8S 5368   3.257   4.222   7.455 -0.4903  0.5294 -0.2594
   40POPC   C29 5369   3.358   4.054   7.377  0.7295 -0.1859 -0.0297
   40POPC   H91 5370   3.449   4.026   7.321  0.2223 -0.2733 -0.8132
   40POPC  C210 5371   3.307   3.956   7.460 -0.6402  0.1594 -0.2924
   40POPC  H101 5372   3.361   3.860   7.460  0.4434  0.7100 -2.3350
   40POPC  C211 5373   3.188   3.948   7.549  0.2855 -0.0268 -0.4690
   40POPC  H11R 5374   3.133   3.854   7.528 -2.2417  1.4218 -0.7312
   40POPC  H11S 5375   3.115   4.030   7.533  1.1643  0.6516 -1.0169
   40POPC  C212 5376   3.217   3.955   7.700 -0.6250 -0.0479  0.1355
   40POPC  H12R 5377   3.133   3.997   7.759 -2.1918 -1.0354 -1.3363
   40POPC  H12S 5378   3.295   4.030   7.727 -1.6799  1.1985 -0.1484
   40POPC  C213 5379   3.275   3.826   7.755 -0.9194  0.2788 -0.1383
   40POPC  H13R 5380   3.368   3.811   7.697  1.4209  3.3336  2.4672
   40POPC  H13S 5381   3.209   3.737   7.742  0.1550 -0.5445 -0.0379
   40POPC  C214 5382   3.315   3.837   7.905 -1.0130  0.5953  0.3379
   40POPC  H14R 5383   3.387   3.919   7.928  0.5330 -0.2936 -1.0616
   40POPC  H14S 5384   3.374   3.745   7.925 -0.7186  0.9131  0.9525
   40POPC  C215 5385   3.185   3.842   8.003 -0.3869 -0.2889  0.9889
   40POPC  H15R 5386   3.111   3.769   7.963  0.2543 -0.5669  0.2705
   40POPC  H15S 5387   3.137   3.940   7.985 -1.8587 -1.0286  0.7415
   40POPC  C216 5388   3.224   3.816   8.146 -0.7270 -0.2957 -0.6174
   40POPC  H16R 5389   3.218   3.706   8.163  0.6074 -0.8461 -3.1526
   40POPC  H16S 5390   3.143   3.866   8.203  0.4741  2.0319 -0.8267
   40POPC  C217 5391   3.362   3.861   8.189 -0.6842 -0.3655  0.3655
   40POPC  H17R 5392   3.381   3.966   8.157 -1.2967 -0.6044 -0.8234
   40POPC  H17S 5393   3.448   3.800   8.153  0.3856  0.7833  0.9004
   40POPC  C218 5394   3.370   3.864   8.341  0.3797 -0.0398 -0.6071
   40POPC  H18R 5395   3.279   3.894   8.396 -0.1859 -4.7096  1.5534
   40POPC  H18S 5396   3.455   3.919   8.386  1.1458 -1.8434  0.2832
   40POPC  H18T 5397   3.391   3.760   8.375 -5.2859 -0.5695  2.4739
   40POPC   C33 5398   3.621   4.704   7.362  0.2517 -0.2051  0.4211
   40POPC   H3X 5399   3.716   4.689   7.418  0.4760 -1.6514 -0.3024
   40POPC   H3Y 5400   3.566   4.608   7.346 -1.3365  0.2530  2.6393
   40POPC   C34 5401   3.533   4.782   7.463  0.2004 -0.6874  0.5614
   40POPC   H4X 5402   3.435   4.811   7.418  0.0201 -0.5640  1.0211
   40POPC   H4Y 5403   3.590   4.867   7.505  2.2055 -1.0148 -1.3124
   40POPC   C35 5404   3.503   4.694   7.576 -0.5777  0.6793 -1.0036
   40POPC   H5X 5405   3.506   4.753   7.670  1.5719 -0.5008 -0.2703
   40POPC   H5Y 5406   3.590   4.626   7.585  0.1619  1.4381 -2.1358
   40POPC   C36 5407   3.360   4.626   7.571  0.4946 -0.0051 -0.0510
   40POPC   H6X 5408   3.364   4.564   7.479  0.0391 -0.4710  0.2379
   40POPC   H6Y 5409   3.290   4.712   7.570  1.8086  1.1077  0.6911
   40POPC   C37 5410   3.343   4.558   7.706 -0.0807  1.2842 -0.4038
   40POPC   H7X 5411   3.363   4.633   7.786  2.3877  2.2252 -1.7986
   40POPC   H7Y 5412   3.427   4.485   7.705 -0.1503  1.2042 -1.9758
   40POPC   C38 5413   3.210   4.487   7.724 -0.3896  0.2108 -0.7380
   40POPC   H8X 5414   3.213   4.414   7.640  1.1162  1.3724 -1.7593
   40POPC   H8Y 5415   3.122   4.548   7.694 -0.5270  0.1045 -0.5570
   40POPC   C39 5416   3.188   4.419   7.860 -0.3723  0.0023  0.5219
   40POPC   H9X 5417   3.188   4.489   7.947  1.8025  0.8223 -0.0828
   40POPC   H9Y 5418   3.263   4.340   7.880 -1.4705 -0.6418  2.2932
   40POPC  C310 5419   3.055   4.345   7.855 -0.6940 -0.9114  0.1442
   40POPC  H10X 5420   3.051   4.280   7.765 -0.9416 -0.2017 -0.3667
   40POPC  H10Y 5421   2.968   4.415   7.854  0.5174  0.6477 -0.6323
   40POPC  C311 5422   3.019   4.261   7.974 -0.4113 -0.1748 -0.1132
   40POPC  H11X 5423   3.085   4.172   7.964  1.3276  1.1551 -1.1368
   40POPC  H11Y 5424   2.918   4.219   7.962 -0.2431 -0.7163  0.3213
   40POPC  C312 5425   3.035   4.325   8.113  0.0340  0.4002  0.6040
   40POPC  H12X 5426   2.972   4.416   8.117 -0.0612  0.3626 -0.0018
   40POPC  H12Y 5427   3.138   4.364   8.121 -0.5876  2.0932  0.6764
   40POPC  C313 5428   3.006   4.213   8.212  0.5185  0.9330 -0.3275
   40POPC  H13X 5429   3.087   4.139   8.193  0.8573  1.7112 -2.1679
   40POPC  H13Y 5430   2.907   4.166   8.193  0.2804  1.9440 -1.6947
   40POPC  C314 5431   3.006   4.268   8.361  0.3137 -0.3028  0.4455
   40POPC  H14X 5432   2.916   4.330   8.379  0.3375  0.7662 -2.5263
   40POPC  H14Y 5433   3.101   4.326   8.355  1.3768 -2.0987 -2.2366
   40POPC  C315 5434   3.023   4.167   8.479  0.4591  0.3245  0.3461
   40POPC  H15X 5435   3.015   4.225   8.574  0.3721 -1.9920  1.8415
   40POPC  H15Y 5436   3.123   4.121   8.476  0.1614 -0.2771 -2.2113
   40POPC  C316 5437   2.913   4.054   8.469 -0.2412 -0.0494  0.8378
   40POPC  H16X 5438   2.814   4.103   8.459 -0.4880 -0.7109 -0.0351
   40POPC  H16Y 5439   2.915   3.991   8.560 -0.6423  1.3718  1.8795
   40POPC  H16Z 5440   2.934   3.989   8.382 -1.6072  1.4054 -0.6376
   41CHL1    C3 5441   4.585   0.393  10.118  0.2157  0.3858  0.0175
   41CHL1    H3 5442   4.484   0.351  10.099  1.0241 -1.2561 -0.8786
   41CHL1    O3 5443   4.607   0.404  10.256  0.1975  0.1074 -0.0744
   41CHL1   H3' 5444   4.523   0.415  10.300  0.0098  0.0333 -0.4123
   41CHL1    C4 5445   4.697   0.313  10.050  0.0809 -0.7228 -0.2262
   41CHL1   H4A 5446   4.792   0.365  10.074 -0.6660  0.0120  1.2377
   41CHL1   H4B 5447   4.721   0.211  10.088  3.5174 -0.1416 -0.4825
   41CHL1    C5 5448   4.674   0.308   9.899  0.2909 -0.1817  0.0230
   41CHL1    C6 5449   4.660   0.190   9.833 -0.1736  0.0194 -0.0187
   41CHL1    H6 5450   4.656   0.099   9.894  2.5485 -0.9063 -1.1143
   41CHL1    C7 5451   4.636   0.193   9.686  0.8859  0.4468 -0.4957
   41CHL1   H7A 5452   4.690   0.104   9.646  3.8104  0.8920  2.0654
   41CHL1   H7B 5453   4.529   0.170   9.666  0.3976  0.5100  1.7042
   41CHL1    C8 5454   4.668   0.321   9.604  0.2114 -0.1425 -0.7174
   41CHL1    H8 5455   4.777   0.320   9.581  0.0690  1.1253 -1.5305
   41CHL1   C14 5456   4.602   0.323   9.468 -0.2235 -0.1654  0.1010
   41CHL1   H14 5457   4.492   0.327   9.482 -0.4262 -0.8396 -1.1256
   41CHL1   C15 5458   4.631   0.204   9.375 -0.4602 -0.2294  0.6363
   41CHL1  H15A 5459   4.739   0.185   9.358 -0.7402  0.9879 -3.9447
   41CHL1  H15B 5460   4.579   0.109   9.400  2.4213 -2.3882 -0.9339
   41CHL1   C16 5461   4.571   0.248   9.239  0.5111  0.2080  0.1357
   41CHL1  H16A 5462   4.634   0.216   9.154  2.0104  1.3380  0.7852
   41CHL1  H16B 5463   4.470   0.202   9.227  0.9017 -0.6646  0.1460
   41CHL1   C17 5464   4.552   0.406   9.241  0.0625  0.7627 -0.0317
   41CHL1   H17 5465   4.443   0.422   9.259 -0.3352  0.1757 -1.7388
   41CHL1   C13 5466   4.629   0.447   9.375 -0.2612  0.7810  0.5268
   41CHL1   C18 5467   4.779   0.458   9.337  0.1459 -0.7420  0.4291
   41CHL1  H18A 5468   4.816   0.376   9.271  0.2993 -0.6201  0.3608
   41CHL1  H18B 5469   4.783   0.546   9.269 -0.6868  0.4661  1.8884
   41CHL1  H18C 5470   4.842   0.468   9.428 -0.8210  1.4768  0.9275
   41CHL1   C12 5471   4.588   0.567   9.449  0.3575 -0.3803  0.3394
   41CHL1  H12A 5472   4.625   0.659   9.398  2.6205 -2.1261 -1.3792
   41CHL1  H12B 5473   4.477   0.577   9.451  0.5410  2.0881  0.6342
   41CHL1   C11 5474   4.633   0.578   9.594 -0.6945 -0.3389 -0.0338
   41CHL1  H11A 5475   4.739   0.610   9.598 -0.5107 -0.9265 -0.1681
   41CHL1  H11B 5476   4.583   0.664   9.645  1.1384  1.5503 -1.2755
   41CHL1    C9 5477   4.618   0.441   9.679 -0.0273  0.1105 -0.0716
   41CHL1    H9 5478   4.509   0.431   9.696 -0.2124  0.5833 -0.8839
   41CHL1   C10 5479   4.657   0.444   9.832 -0.0252  0.1859  0.1768
   41CHL1   C19 5480   4.795   0.516   9.831  0.4975  0.4079 -1.2187
   41CHL1  H19A 5481   4.793   0.621   9.796 -1.1152  1.7105  2.2892
   41CHL1  H19B 5482   4.840   0.522   9.933 -1.0868  0.6614 -0.5065
   41CHL1  H19C 5483   4.862   0.462   9.761  0.5901  0.8334 -1.4594
   41CHL1    C1 5484   4.559   0.538   9.906  0.2477  0.1702  0.1402
   41CHL1   H1A 5485   4.561   0.638   9.858  0.8957 -1.0904 -2.6419
   41CHL1   H1B 5486   4.459   0.490   9.892  1.1714 -2.4233  1.7381
   41CHL1    C2 5487   4.586   0.534  10.060 -0.4561  0.3643  0.3448
   41CHL1   H2A 5488   4.508   0.600  10.103  0.7710  0.8642  1.8958
   41CHL1   H2B 5489   4.681   0.589  10.077  0.2373 -1.0713  1.3949
   41CHL1   C20 5490   4.594   0.470   9.102 -0.1626 -0.2335 -0.0141
   41CHL1   H20 5491   4.704   0.457   9.098  0.0135  0.6914  1.1151
   41CHL1   C21 5492   4.578   0.626   9.103  0.1521 -0.2158  0.7721
   41CHL1  H21A 5493   4.607   0.668   9.202  0.7604  0.1560  0.4362
   41CHL1  H21B 5494   4.468   0.641   9.094  0.0967 -1.3282 -0.7199
   41CHL1  H21C 5495   4.631   0.671   9.017 -1.2776  2.1585  1.0470
   41CHL1   C22 5496   4.527   0.414   8.978 -0.4070  0.1791  0.5336
   41CHL1  H22A 5497   4.558   0.473   8.889 -0.0455  0.7869  1.0614
   41CHL1  H22B 5498   4.556   0.309   8.956 -1.7657 -0.3030  0.9404
   41CHL1   C23 5499   4.374   0.411   8.988  0.5234 -0.0789  0.4287
   41CHL1  H23A 5500   4.335   0.350   9.072 -0.2214 -0.2653 -0.0324
   41CHL1  H23B 5501   4.336   0.514   9.006  1.4486  0.0298  1.8595
   41CHL1   C24 5502   4.299   0.347   8.871  0.0622  0.0069 -0.6971
   41CHL1  H24A 5503   4.354   0.253   8.852  0.0472 -0.0801 -0.3149
   41CHL1  H24B 5504   4.193   0.330   8.901 -0.0720  3.2944  1.1382
   41CHL1   C25 5505   4.305   0.425   8.737  0.0437  0.4190 -0.1544
   41CHL1   H25 5506   4.405   0.403   8.696 -0.3092 -1.8721  0.0971
   41CHL1   C26 5507   4.219   0.365   8.635  0.8347 -0.0575 -0.1905
   41CHL1  H26A 5508   4.247   0.392   8.530  1.3724  0.5786  0.1085
   41CHL1  H26B 5509   4.219   0.254   8.640  0.9009 -0.0604 -0.2495
   41CHL1  H26C 5510   4.117   0.407   8.647  1.2363  0.7749  0.4420
   41CHL1   C27 5511   4.267   0.572   8.754 -0.1507 -1.0917 -0.4350
   41CHL1  H27A 5512   4.346   0.630   8.806 -0.6656  0.6674 -1.5052
   41CHL1  H27B 5513   4.245   0.627   8.660  1.2313  2.5138  1.1499
   41CHL1  H27C 5514   4.177   0.586   8.816  0.2715  3.1548 -0.4586
   42CHL1    C3 5515   3.612   0.311   9.749  0.4434 -0.0570  0.0568
   42CHL1    H3 5516   3.507   0.301   9.783  0.4163  1.2690  0.4012
   42CHL1    O3 5517   3.686   0.337   9.867 -0.6234 -0.2255 -0.2351
   42CHL1   H3' 5518   3.670   0.430   9.888 -0.0797 -0.2816  0.4715
   42CHL1    C4 5519   3.661   0.170   9.699  0.1204  0.1352  0.0862
   42CHL1   H4A 5520   3.771   0.172   9.689  0.3284 -1.1985  1.6961
   42CHL1   H4B 5521   3.640   0.095   9.778  2.3845  1.2543  1.8640
   42CHL1    C5 5522   3.593   0.128   9.560  0.1265 -0.4450 -0.2277
   42CHL1    C6 5523   3.544   0.007   9.544  0.5258  0.4269 -0.5808
   42CHL1    H6 5524   3.550  -0.069   9.623  2.4763  0.8404 -0.2668
   42CHL1    C7 5525   3.482  -0.039   9.421  0.3530 -0.4574  0.8855
   42CHL1   H7A 5526   3.516  -0.144   9.409  1.9733 -0.0650  1.7531
   42CHL1   H7B 5527   3.371  -0.043   9.424  0.3311 -1.4577 -0.3251
   42CHL1    C8 5528   3.526   0.048   9.293  0.1543  0.3412 -0.0273
   42CHL1    H8 5529   3.631   0.016   9.274 -0.3139 -1.2515 -0.1207
   42CHL1   C14 5530   3.439   0.021   9.172 -0.0841 -0.1776 -0.0961
   42CHL1   H14 5531   3.332   0.050   9.184  0.5411  1.6844  1.4120
   42CHL1   C15 5532   3.422  -0.131   9.123 -0.3999 -0.1355 -0.5924
   42CHL1  H15A 5533   3.522  -0.174   9.146 -1.0314 -0.9976  0.6661
   42CHL1  H15B 5534   3.351  -0.186   9.188  0.3383  2.1870  2.3705
   42CHL1   C16 5535   3.385  -0.125   8.981  0.0305  0.0883 -0.0550
   42CHL1  H16A 5536   3.457  -0.181   8.917 -0.3854 -0.3070 -0.1826
   42CHL1  H16B 5537   3.279  -0.154   8.964  0.2905 -0.5343 -0.6879
   42CHL1   C17 5538   3.397   0.023   8.940 -0.5324  0.3834  0.5236
   42CHL1   H17 5539   3.297   0.070   8.951  0.7545  2.8275  3.2994
   42CHL1   C13 5540   3.482   0.102   9.048 -0.6521  0.5246  0.1401
   42CHL1   C18 5541   3.627   0.088   9.015 -0.6196 -0.1961  0.2129
   42CHL1  H18A 5542   3.695   0.099   9.103 -0.8937 -3.0207  0.8533
   42CHL1  H18B 5543   3.655  -0.014   8.982  0.7728  0.6603 -1.4575
   42CHL1  H18C 5544   3.668   0.143   8.928  1.7990  0.3601  1.5797
   42CHL1   C12 5545   3.442   0.248   9.079 -0.2415  0.1569  0.5585
   42CHL1  H12A 5546   3.471   0.306   8.989  0.7528 -0.7105  0.3018
   42CHL1  H12B 5547   3.334   0.258   9.105  0.2381  2.3417  1.9270
   42CHL1   C11 5548   3.515   0.299   9.206 -0.6496  0.4663  0.6940
   42CHL1  H11A 5549   3.621   0.312   9.175 -1.2603  0.4005 -1.6265
   42CHL1  H11B 5550   3.460   0.390   9.236 -1.1409  0.1921  0.6312
   42CHL1    C9 5551   3.507   0.198   9.328  0.1300  0.5484  0.1990
   42CHL1    H9 5552   3.401   0.212   9.358  0.2140  0.6217  0.4684
   42CHL1   C10 5553   3.586   0.243   9.455 -0.8489  0.5253 -0.3889
   42CHL1   C19 5554   3.742   0.263   9.415 -0.2151 -0.1122 -0.5497
   42CHL1  H19A 5555   3.741   0.366   9.372 -0.8580  1.2670  2.5071
   42CHL1  H19B 5556   3.808   0.270   9.504  1.4946  1.0984 -1.8433
   42CHL1  H19C 5557   3.771   0.187   9.340  0.2042 -0.0949 -0.4053
   42CHL1    C1 5558   3.534   0.379   9.518 -0.1737  0.3145 -0.6674
   42CHL1   H1A 5559   3.540   0.450   9.433  1.1468 -1.9352 -2.5729
   42CHL1   H1B 5560   3.428   0.361   9.547 -0.3051 -0.2928 -1.4662
   42CHL1    C2 5561   3.613   0.421   9.648 -0.1504  0.2448 -0.8527
   42CHL1   H2A 5562   3.562   0.512   9.685  0.4831  0.9328 -1.6396
   42CHL1   H2B 5563   3.715   0.444   9.608  0.2938 -0.7232 -0.3269
   42CHL1   C20 5564   3.440   0.038   8.793  0.0204  0.3928 -0.0557
   42CHL1   H20 5565   3.541  -0.006   8.783 -0.0062  0.1875  0.5616
   42CHL1   C21 5566   3.448   0.183   8.753 -0.0680 -0.1212  0.2420
   42CHL1  H21A 5567   3.358   0.247   8.766  0.4850  1.2361 -1.8939
   42CHL1  H21B 5568   3.455   0.181   8.642 -0.2938  0.0672  0.2240
   42CHL1  H21C 5569   3.524   0.250   8.800 -0.7343  1.7231 -1.1413
   42CHL1   C22 5570   3.347  -0.034   8.691  0.2569 -0.2628  0.5945
   42CHL1  H22A 5571   3.311  -0.129   8.736 -2.8068 -0.3031 -1.6003
   42CHL1  H22B 5572   3.263   0.036   8.672  0.5400  0.2742  1.2709
   42CHL1   C23 5573   3.408  -0.083   8.561 -0.3652  0.4811  0.7389
   42CHL1  H23A 5574   3.440  -0.006   8.487 -0.6852 -1.2484 -1.2646
   42CHL1  H23B 5575   3.501  -0.132   8.597 -1.9000 -2.6846  0.6746
   42CHL1   C24 5576   3.311  -0.176   8.485  0.4686  0.1510 -0.3851
   42CHL1  H24A 5577   3.304  -0.275   8.535 -1.7811  0.0149 -0.8580
   42CHL1  H24B 5578   3.209  -0.132   8.472  0.0040 -1.2044 -1.5093
   42CHL1   C25 5579   3.353  -0.210   8.343  0.2022 -0.1649  0.9625
   42CHL1   H25 5580   3.271  -0.273   8.304  1.0249 -0.9022  0.3716
   42CHL1   C26 5581   3.372  -0.088   8.246 -0.0709  0.9344 -0.3862
   42CHL1  H26A 5582   3.458  -0.029   8.284  1.5508 -2.2608  1.3205
   42CHL1  H26B 5583   3.397  -0.124   8.144  0.4213  0.7384 -0.1978
   42CHL1  H26C 5584   3.277  -0.034   8.227 -0.8033 -0.1317  0.1452
   42CHL1   C27 5585   3.488  -0.285   8.347  0.0376  0.5534 -0.0041
   42CHL1  H27A 5586   3.561  -0.202   8.343 -1.2265  1.6842 -0.2363
   42CHL1  H27B 5587   3.503  -0.347   8.438  0.9028  1.0445  0.2015
   42CHL1  H27C 5588   3.501  -0.346   8.255 -2.1142 -1.9239  1.1993
   43CHL1    C3 5589   5.543   1.057  10.036  0.7948  0.3619 -0.7816
   43CHL1    H3 5590   5.613   0.976  10.005 -0.9687 -1.3220 -0.5899
   43CHL1    O3 5591   5.537   1.068  10.176  0.4111 -0.0259 -0.5482
   43CHL1   H3' 5592   5.483   1.146  10.189  2.1600  1.1031  0.3712
   43CHL1    C4 5593   5.583   1.191   9.975  0.1094 -0.3717  0.5796
   43CHL1   H4A 5594   5.507   1.269   9.997  0.5775  0.2899 -0.0928
   43CHL1   H4B 5595   5.681   1.219  10.019  0.2343 -2.0276  1.4645
   43CHL1    C5 5596   5.580   1.200   9.823  0.1559  0.2997 -0.8493
   43CHL1    C6 5597   5.691   1.232   9.763  0.5156 -0.1797  0.0189
   43CHL1    H6 5598   5.776   1.262   9.825  1.3864 -0.5724 -0.9524
   43CHL1    C7 5599   5.710   1.234   9.609  0.6898  0.0209 -0.0196
   43CHL1   H7A 5600   5.757   1.331   9.580 -0.6790  0.4230 -1.0017
   43CHL1   H7B 5601   5.771   1.145   9.579  0.8890  0.4834 -1.0420
   43CHL1    C8 5602   5.573   1.223   9.544 -0.0124 -0.4152 -0.4357
   43CHL1    H8 5603   5.528   1.323   9.565  1.1648  0.3140 -1.2767
   43CHL1   C14 5604   5.596   1.184   9.399 -0.1088 -0.2168 -0.0897
   43CHL1   H14 5605   5.630   1.079   9.399 -3.6198 -1.4602 -0.5613
   43CHL1   C15 5606   5.703   1.259   9.323 -0.4618 -0.0901  0.0369
   43CHL1  H15A 5607   5.680   1.365   9.345 -0.5196 -0.1159  0.1034
   43CHL1  H15B 5608   5.807   1.235   9.353 -0.6049 -0.1773  0.4799
   43CHL1   C16 5609   5.670   1.225   9.179 -1.0129  0.4608  0.1766
   43CHL1  H16A 5610   5.665   1.325   9.130 -1.4140  0.0993 -0.5322
   43CHL1  H16B 5611   5.745   1.155   9.136 -0.6954  1.2550 -0.5970
   43CHL1   C17 5612   5.535   1.150   9.171 -0.1219  0.1986 -0.4406
   43CHL1   H17 5613   5.560   1.042   9.175 -0.0098  0.2458  2.6901
   43CHL1   C13 5614   5.474   1.172   9.309  0.1366  0.1138 -0.1835
   43CHL1   C18 5615   5.399   1.309   9.289  0.5900  0.1456 -0.0393
   43CHL1  H18A 5616   5.451   1.390   9.233  1.6808  0.3438  1.2291
   43CHL1  H18B 5617   5.306   1.280   9.235  1.6354 -2.7994 -0.4157
   43CHL1  H18C 5618   5.375   1.356   9.387 -0.8300  0.4218 -0.4870
   43CHL1   C12 5619   5.386   1.065   9.371  0.5562 -0.3320 -0.1335
   43CHL1  H12A 5620   5.283   1.058   9.329 -0.6097  1.7079  2.1565
   43CHL1  H12B 5621   5.438   0.966   9.369 -0.9038 -1.1724  1.2782
   43CHL1   C11 5622   5.352   1.092   9.521  0.4012  0.0735  0.5562
   43CHL1  H11A 5623   5.299   1.190   9.515  1.0351  0.3567 -1.4611
   43CHL1  H11B 5624   5.287   1.010   9.559 -3.2604  1.7334 -1.5131
   43CHL1    C9 5625   5.483   1.113   9.603  0.2399  0.6167  0.0668
   43CHL1    H9 5626   5.547   1.023   9.603 -1.2824 -0.5000 -0.2125
   43CHL1   C10 5627   5.454   1.144   9.757 -0.8714  0.1931  0.1474
   43CHL1   C19 5628   5.333   1.243   9.765  0.1662  0.5066 -0.6213
   43CHL1  H19A 5629   5.357   1.340   9.717  1.2285  0.3441 -0.4509
   43CHL1  H19B 5630   5.241   1.209   9.714 -0.4692  2.5667 -0.9344
   43CHL1  H19C 5631   5.297   1.256   9.870  0.4344 -2.4798 -0.0817
   43CHL1    C1 5632   5.417   1.016   9.824 -0.1847  0.6832  0.4623
   43CHL1   H1A 5633   5.320   0.974   9.790  1.9105 -3.0898 -1.6016
   43CHL1   H1B 5634   5.496   0.943   9.795 -1.4170  0.4277 -2.6231
   43CHL1    C2 5635   5.405   1.014   9.981 -0.7679  0.3159  0.1310
   43CHL1   H2A 5636   5.389   0.909  10.014  0.0060 -0.4438 -1.7601
   43CHL1   H2B 5637   5.330   1.083  10.024  0.7573  2.3282 -0.3251
   43CHL1   C20 5638   5.455   1.171   9.044 -0.4093  0.7239  0.4353
   43CHL1   H20 5639   5.402   1.269   9.044  0.7757  1.4426 -2.2144
   43CHL1   C21 5640   5.349   1.060   9.034 -0.5274 -0.6352 -1.1323
   43CHL1  H21A 5641   5.399   0.961   9.043 -1.0892 -0.8612 -0.3083
   43CHL1  H21B 5642   5.293   1.070   8.938 -0.6629 -2.2097 -1.2507
   43CHL1  H21C 5643   5.277   1.075   9.117  0.7734 -0.6974  0.0311
   43CHL1   C22 5644   5.543   1.183   8.920  0.1829 -0.6686  0.8389
   43CHL1  H22A 5645   5.617   1.257   8.958  1.5501 -1.2951 -0.4850
   43CHL1  H22B 5646   5.603   1.092   8.901  1.2511 -0.0202  1.0189
   43CHL1   C23 5647   5.487   1.243   8.792 -0.0251  0.1222  0.3542
   43CHL1  H23A 5648   5.419   1.169   8.745  0.6017 -1.9793  2.5808
   43CHL1  H23B 5649   5.437   1.341   8.799  0.1653  0.3024 -0.5561
   43CHL1   C24 5650   5.603   1.263   8.690  0.2424 -0.4919  0.2467
   43CHL1  H24A 5651   5.652   1.362   8.685  1.2088 -1.0014 -3.0151
   43CHL1  H24B 5652   5.694   1.200   8.699  0.9846  0.2833 -1.4156
   43CHL1   C25 5653   5.571   1.234   8.544  0.3482 -0.5762  0.0106
   43CHL1   H25 5654   5.525   1.134   8.525 -1.1284  0.1036 -0.1217
   43CHL1   C26 5655   5.476   1.343   8.485  0.5564 -0.4920  0.7761
   43CHL1  H26A 5656   5.448   1.323   8.379  0.0770 -0.4128  0.8837
   43CHL1  H26B 5657   5.389   1.347   8.555 -1.8355 -2.3164 -1.8736
   43CHL1  H26C 5658   5.528   1.441   8.488  1.2451 -0.8663  1.7877
   43CHL1   C27 5659   5.699   1.245   8.458 -0.8322  0.2777  0.0078
   43CHL1  H27A 5660   5.772   1.169   8.492 -0.0803  1.1282  0.3534
   43CHL1  H27B 5661   5.680   1.232   8.349  4.4509 -0.8704 -1.0277
   43CHL1  H27C 5662   5.739   1.348   8.475 -2.1343  1.0714 -1.4254
   44CHL1    C3 5663   4.928   0.817  10.127 -0.2642 -0.0687  0.1927
   44CHL1    H3 5664   4.882   0.719  10.104  1.3077 -0.3102 -2.2950
   44CHL1    O3 5665   4.976   0.817  10.257  0.1595 -0.2725  0.4490
   44CHL1   H3' 5666   5.053   0.874  10.248  0.4613 -0.3263  2.3208
   44CHL1    C4 5667   5.042   0.835  10.024 -0.4191  0.2582  0.0678
   44CHL1   H4A 5668   5.099   0.927  10.046 -3.3142  2.2532 -0.2455
   44CHL1   H4B 5669   5.099   0.740  10.037 -0.7587 -0.0519 -0.6417
   44CHL1    C5 5670   5.003   0.848   9.884  0.1244 -0.4212  0.0583
   44CHL1    C6 5671   5.044   0.768   9.784 -0.1127 -0.4425  0.5324
   44CHL1    H6 5672   5.110   0.682   9.801 -0.2799 -0.5374  0.7042
   44CHL1    C7 5673   5.012   0.789   9.637 -0.5444  0.4954 -0.1455
   44CHL1   H7A 5674   5.108   0.794   9.582 -0.1188 -2.3623  0.1609
   44CHL1   H7B 5675   4.966   0.697   9.596  1.7578 -2.2327  2.8444
   44CHL1    C8 5676   4.948   0.924   9.608  0.6020 -0.6385 -0.4948
   44CHL1    H8 5677   5.033   0.995   9.615  1.5569 -1.8852  1.8711
   44CHL1   C14 5678   4.893   0.923   9.458 -0.5063 -0.1647  0.3895
   44CHL1   H14 5679   4.807   0.852   9.461  0.4677 -1.5481 -1.8463
   44CHL1   C15 5680   4.982   0.870   9.345  0.3472  0.2057  0.2331
   44CHL1  H15A 5681   5.088   0.894   9.368  1.3817 -2.7823 -0.9548
   44CHL1  H15B 5682   4.981   0.763   9.314  2.8185  0.7621 -2.1524
   44CHL1   C16 5683   4.923   0.940   9.216  0.4948  0.6080 -0.5120
   44CHL1  H16A 5684   5.001   1.001   9.167 -0.8279  1.6260 -1.4208
   44CHL1  H16B 5685   4.886   0.866   9.142 -1.1474 -1.1399  1.8940
   44CHL1   C17 5686   4.806   1.034   9.270 -0.2475  0.1317 -0.0508
   44CHL1   H17 5687   4.713   0.973   9.274 -0.1494 -0.3270 -2.9526
   44CHL1   C13 5688   4.837   1.055   9.424  0.1453 -0.8537  0.2779
   44CHL1   C18 5689   4.938   1.171   9.429  0.3847 -0.5395 -0.1587
   44CHL1  H18A 5690   5.023   1.151   9.360  0.1404 -0.0190 -0.6236
   44CHL1  H18B 5691   4.883   1.265   9.408  0.8317  0.0844  1.3286
   44CHL1  H18C 5692   4.981   1.185   9.530 -1.6911 -1.2154  0.8771
   44CHL1   C12 5693   4.715   1.082   9.516 -0.5323 -0.1002 -0.0745
   44CHL1  H12A 5694   4.652   1.168   9.487 -1.9610 -0.2098  2.3904
   44CHL1  H12B 5695   4.650   0.992   9.504 -0.2849 -0.2548 -0.2647
   44CHL1   C11 5696   4.751   1.093   9.669 -0.1771 -0.1244 -0.4128
   44CHL1  H11A 5697   4.811   1.182   9.698 -0.9910 -0.0446  1.1298
   44CHL1  H11B 5698   4.659   1.087   9.730  1.7415  3.4021  3.3785
   44CHL1    C9 5699   4.841   0.962   9.715  0.5500 -0.9529 -0.5829
   44CHL1    H9 5700   4.762   0.884   9.705 -2.8174  1.8057  2.0640
   44CHL1   C10 5701   4.895   0.958   9.864 -0.6052  0.3428 -0.2065
   44CHL1   C19 5702   4.957   1.102   9.885  0.5498  0.0586 -0.0716
   44CHL1  H19A 5703   5.014   1.111   9.980 -0.0962 -0.0328  0.3300
   44CHL1  H19B 5704   5.023   1.141   9.804 -0.4475  1.0451 -0.4302
   44CHL1  H19C 5705   4.872   1.173   9.892  0.9282  0.8275 -2.3761
   44CHL1    C1 5706   4.783   0.936   9.963  0.1669  0.4209 -0.3076
   44CHL1   H1A 5707   4.701   1.009   9.952 -1.7431 -1.2657  1.7589
   44CHL1   H1B 5708   4.733   0.840   9.940  3.0333 -1.1389 -0.4924
   44CHL1    C2 5709   4.824   0.931  10.108 -0.7315 -0.2974  0.4291
   44CHL1   H2A 5710   4.738   0.907  10.174 -1.7279 -1.4767 -1.2079
   44CHL1   H2B 5711   4.865   1.025  10.150 -1.6663 -0.7925  2.6256
   44CHL1   C20 5712   4.791   1.157   9.176 -0.2089  1.1483 -0.6747
   44CHL1   H20 5713   4.873   1.232   9.180  2.7167 -1.8399 -0.0872
   44CHL1   C21 5714   4.660   1.229   9.223  0.3817  0.4714 -0.4645
   44CHL1  H21A 5715   4.584   1.150   9.244  0.0094  0.5741 -1.3947
   44CHL1  H21B 5716   4.623   1.294   9.141 -1.4266 -1.2925 -1.1482
   44CHL1  H21C 5717   4.681   1.290   9.313  0.7906  0.5171 -0.5868
   44CHL1   C22 5718   4.785   1.117   9.024 -0.1525  0.2358  0.2661
   44CHL1  H22A 5719   4.771   1.204   8.955 -1.6704  0.0824  0.3438
   44CHL1  H22B 5720   4.886   1.082   8.995  0.2274  1.7196 -0.3388
   44CHL1   C23 5721   4.686   1.001   8.983 -0.9529 -0.5063 -1.0782
   44CHL1  H23A 5722   4.721   0.905   9.027  0.1252  0.2714 -0.1675
   44CHL1  H23B 5723   4.589   1.019   9.035 -1.1520 -1.0631 -1.2479
   44CHL1   C24 5724   4.680   0.984   8.831  0.1125  0.0888  0.2891
   44CHL1  H24A 5725   4.663   1.089   8.800 -2.4641 -0.4957 -0.4922
   44CHL1  H24B 5726   4.770   0.928   8.796 -0.4250 -0.5674 -0.0588
   44CHL1   C25 5727   4.555   0.901   8.795 -0.3731 -0.8362  0.4114
   44CHL1   H25 5728   4.561   0.808   8.856 -0.5179 -1.9458 -1.1893
   44CHL1   C26 5729   4.428   0.973   8.821  0.6321 -0.1904 -0.1383
   44CHL1  H26A 5730   4.336   0.927   8.779  2.5887 -1.3758 -3.5582
   44CHL1  H26B 5731   4.415   1.006   8.926  1.0195  1.9100 -0.6932
   44CHL1  H26C 5732   4.426   1.069   8.765 -0.6880  0.5432  1.1035
   44CHL1   C27 5733   4.564   0.842   8.653  0.4713  0.3859 -0.4925
   44CHL1  H27A 5734   4.662   0.794   8.632  0.4582  0.1799 -0.0839
   44CHL1  H27B 5735   4.485   0.764   8.651  0.0547  0.8061 -0.7405
   44CHL1  H27C 5736   4.541   0.925   8.582 -0.5608  0.4815 -0.0665
   45CHL1    C3 5737   1.901   0.750  10.035 -0.5543  0.1278  0.2672
   45CHL1    H3 5738   1.912   0.647  10.075  1.7566 -0.0829 -0.7904
   45CHL1    O3 5739   1.888   0.835  10.139  0.4217  0.2581 -0.8711
   45CHL1   H3' 5740   1.851   0.920  10.116 -0.9077 -0.3879 -1.2141
   45CHL1    C4 5741   2.023   0.777   9.957 -0.4440  0.4018 -0.0377
   45CHL1   H4A 5742   2.002   0.874   9.907 -0.0029  0.4782 -0.0820
   45CHL1   H4B 5743   2.115   0.784  10.020  0.1383 -1.8007 -0.5365
   45CHL1    C5 5744   2.047   0.683   9.845  0.2274  0.0632 -0.3785
   45CHL1    C6 5745   2.151   0.609   9.814  0.7510  0.2502 -0.7107
   45CHL1    H6 5746   2.238   0.614   9.880  0.6311  0.4648 -0.5681
   45CHL1    C7 5747   2.173   0.530   9.687 -0.0477 -0.0765  0.3409
   45CHL1   H7A 5748   2.270   0.559   9.641 -0.8124  0.6551 -0.8580
   45CHL1   H7B 5749   2.182   0.421   9.708 -2.8153 -0.3432  0.5782
   45CHL1    C8 5750   2.056   0.537   9.589  0.1679 -0.6302  1.1129
   45CHL1    H8 5751   2.044   0.434   9.550 -0.1338  0.0354 -0.6594
   45CHL1   C14 5752   2.091   0.624   9.466 -1.4506  0.4838 -0.1191
   45CHL1   H14 5753   2.129   0.722   9.502  1.6053 -1.4849  2.5810
   45CHL1   C15 5754   2.207   0.554   9.385 -0.2105 -0.0880  0.1931
   45CHL1  H15A 5755   2.262   0.632   9.330 -0.6837  0.0021 -0.1636
   45CHL1  H15B 5756   2.274   0.495   9.451 -1.5412 -1.4534  0.3832
   45CHL1   C16 5757   2.144   0.464   9.282  0.2528 -0.8210  0.1516
   45CHL1  H16A 5758   2.196   0.479   9.185  2.0802  0.5862  1.3067
   45CHL1  H16B 5759   2.155   0.359   9.318  0.8619 -0.3664  1.3291
   45CHL1   C17 5760   1.989   0.499   9.277 -0.5266 -0.0067  0.2194
   45CHL1   H17 5761   1.937   0.437   9.352  2.1061  0.0211  2.2252
   45CHL1   C13 5762   1.981   0.631   9.358 -0.4652 -0.8370 -0.3010
   45CHL1   C18 5763   2.009   0.747   9.265 -0.6213  0.5738 -0.5564
   45CHL1  H18A 5764   1.927   0.765   9.192 -2.0701 -1.3913  0.4646
   45CHL1  H18B 5765   2.012   0.842   9.321 -1.4113  0.5334 -0.4229
   45CHL1  H18C 5766   2.104   0.730   9.210 -0.7869  0.2112 -0.7383
   45CHL1   C12 5767   1.839   0.655   9.416 -0.3309 -0.7996 -0.0060
   45CHL1  H12A 5768   1.844   0.762   9.447 -1.5390 -0.9228  0.6677
   45CHL1  H12B 5769   1.758   0.641   9.342 -0.2450 -1.0302 -0.0585
   45CHL1   C11 5770   1.805   0.569   9.547 -0.8326 -0.0220 -0.0425
   45CHL1  H11A 5771   1.715   0.619   9.589 -1.3463  0.0227 -1.1838
   45CHL1  H11B 5772   1.780   0.462   9.536 -1.3573  0.0434  0.4628
   45CHL1    C9 5773   1.920   0.570   9.653 -0.7344  0.2479  0.3112
   45CHL1    H9 5774   1.896   0.476   9.707  0.6378 -1.7416 -2.3176
   45CHL1   C10 5775   1.925   0.683   9.758  0.1202  1.2053  0.1901
   45CHL1   C19 5776   1.901   0.820   9.686 -0.4768 -0.7237  0.2556
   45CHL1  H19A 5777   1.975   0.843   9.607 -0.4496 -1.4037  0.0784
   45CHL1  H19B 5778   1.795   0.821   9.653 -0.8940  0.2912  1.5434
   45CHL1  H19C 5779   1.901   0.914   9.745  1.3359 -0.9791  0.7369
   45CHL1    C1 5780   1.797   0.649   9.845  0.6452  0.5800 -0.1567
   45CHL1   H1A 5781   1.705   0.637   9.783  0.2992  0.2288  0.4118
   45CHL1   H1B 5782   1.811   0.555   9.902 -2.0065 -1.1396 -2.0907
   45CHL1    C2 5783   1.774   0.753   9.957  0.2227 -0.3757 -0.0228
   45CHL1   H2A 5784   1.696   0.726  10.031  0.6179 -0.8821  0.2160
   45CHL1   H2B 5785   1.758   0.851   9.908 -1.7269 -1.3849 -1.5634
   45CHL1   C20 5786   1.918   0.494   9.138 -0.1101  0.1878 -0.2827
   45CHL1   H20 5787   1.823   0.550   9.149  0.1665  0.5519  0.3024
   45CHL1   C21 5788   1.874   0.351   9.119  0.1522  0.3849  0.5176
   45CHL1  H21A 5789   1.959   0.281   9.104 -0.4203 -0.9456  2.7736
   45CHL1  H21B 5790   1.806   0.341   9.032  0.1028 -1.4339  0.7120
   45CHL1  H21C 5791   1.824   0.313   9.211  2.8113 -1.3905  1.3624
   45CHL1   C22 5792   2.001   0.536   9.013  0.0705 -0.4632 -0.9504
   45CHL1  H22A 5793   2.069   0.621   9.038  0.4181 -0.2773 -2.4328
   45CHL1  H22B 5794   2.072   0.460   8.972  0.7610  0.0865 -0.7947
   45CHL1   C23 5795   1.920   0.565   8.888  0.4541  0.0782 -0.2959
   45CHL1  H23A 5796   1.860   0.479   8.852 -0.4202  0.6441 -0.1970
   45CHL1  H23B 5797   1.844   0.634   8.929  0.5862 -1.2015  2.3376
   45CHL1   C24 5798   1.991   0.625   8.772  0.1683 -0.7733  0.6815
   45CHL1  H24A 5799   2.078   0.682   8.809 -0.0493  0.3064 -0.3821
   45CHL1  H24B 5800   2.041   0.548   8.710 -0.1897 -1.2407  0.9669
   45CHL1   C25 5801   1.894   0.719   8.692  0.0794  0.3018  0.1083
   45CHL1   H25 5802   1.841   0.786   8.763  0.0679 -0.9812  1.3451
   45CHL1   C26 5803   1.985   0.801   8.605  0.3473 -0.5172  0.5640
   45CHL1  H26A 5804   1.930   0.860   8.528  1.5688 -2.6014 -2.1129
   45CHL1  H26B 5805   2.055   0.863   8.664 -0.0336 -0.3460  0.8389
   45CHL1  H26C 5806   2.057   0.739   8.547  1.9350  0.3854  1.4892
   45CHL1   C27 5807   1.795   0.638   8.610 -0.2831  0.4345 -0.7025
   45CHL1  H27A 5808   1.745   0.714   8.546 -0.3998  0.7861 -0.2010
   45CHL1  H27B 5809   1.849   0.576   8.535  1.5612 -0.5659  1.3453
   45CHL1  H27C 5810   1.719   0.586   8.671  0.1657  0.2651 -0.2761
   46CHL1    C3 5811   3.580   4.521  10.234 -0.1545  0.5189  0.2713
   46CHL1    H3 5812   3.519   4.430  10.247 -0.7597  1.0435  1.2340
   46CHL1    O3 5813   3.620   4.572  10.362 -0.0950  0.4878  0.8232
   46CHL1   H3' 5814   3.632   4.667  10.358 -2.4552  0.8396  0.9342
   46CHL1    C4 5815   3.719   4.479  10.174  0.3144 -0.4048 -1.0792
   46CHL1   H4A 5816   3.784   4.567  10.155  0.2159 -0.2057 -0.4916
   46CHL1   H4B 5817   3.767   4.409  10.246  0.8874  1.1966  0.1623
   46CHL1    C5 5818   3.690   4.418  10.036  0.2209 -0.5851 -0.2624
   46CHL1    C6 5819   3.712   4.291  10.002 -0.7023 -0.3103 -0.9489
   46CHL1    H6 5820   3.771   4.225  10.068 -1.5368  1.5664  1.8535
   46CHL1    C7 5821   3.694   4.228   9.864  0.8130 -0.3243 -0.6323
   46CHL1   H7A 5822   3.784   4.172   9.830  1.4879  2.0253 -3.0606
   46CHL1   H7B 5823   3.607   4.160   9.857  1.6359 -1.4692  0.0392
   46CHL1    C8 5824   3.668   4.338   9.761 -0.2971  0.2750  0.6198
   46CHL1    H8 5825   3.763   4.397   9.760  1.3591 -2.2480 -0.4124
   46CHL1   C14 5826   3.627   4.288   9.624  0.0398  0.0224 -0.8465
   46CHL1   H14 5827   3.530   4.236   9.640  1.0390 -1.9497 -0.7487
   46CHL1   C15 5828   3.691   4.165   9.558 -0.2857 -0.4044  0.5485
   46CHL1  H15A 5829   3.800   4.171   9.579 -0.0926  1.2898 -0.8022
   46CHL1  H15B 5830   3.658   4.070   9.606 -0.8491 -0.2687  0.4345
   46CHL1   C16 5831   3.646   4.165   9.414 -1.1786  0.8329 -0.1749
   46CHL1  H16A 5832   3.736   4.169   9.350  0.5921  0.2388  2.1400
   46CHL1  H16B 5833   3.586   4.074   9.392 -1.5268  1.0486 -0.1222
   46CHL1   C17 5834   3.561   4.288   9.397  0.6017  0.5384 -0.1945
   46CHL1   H17 5835   3.453   4.270   9.416  0.8662  0.6327  1.6269
   46CHL1   C13 5836   3.602   4.388   9.509  0.8392 -0.0670 -0.3899
   46CHL1   C18 5837   3.733   4.456   9.475 -0.3814  0.5326  0.7904
   46CHL1  H18A 5838   3.766   4.513   9.565  0.9892 -1.1860  1.4521
   46CHL1  H18B 5839   3.808   4.376   9.454 -1.9001 -0.4982 -0.9891
   46CHL1  H18C 5840   3.732   4.522   9.386  0.0039 -0.7914 -0.2285
   46CHL1   C12 5841   3.493   4.487   9.561  0.1615 -0.3728 -0.1847
   46CHL1  H12A 5842   3.498   4.572   9.489 -1.3829  1.4972  1.7760
   46CHL1  H12B 5843   3.400   4.427   9.573  1.1081 -1.8627 -0.0565
   46CHL1   C11 5844   3.530   4.550   9.694 -0.0998 -0.9720 -0.1993
   46CHL1  H11A 5845   3.619   4.615   9.675 -0.8467 -0.6426 -3.0055
   46CHL1  H11B 5846   3.447   4.621   9.714  1.0710  0.2321  0.6184
   46CHL1    C9 5847   3.568   4.451   9.808  0.2753 -0.2287 -0.7166
   46CHL1    H9 5848   3.470   4.401   9.816  0.5779 -0.4919  2.5630
   46CHL1   C10 5849   3.619   4.510   9.942 -0.1205  0.3413 -0.2553
   46CHL1   C19 5850   3.717   4.630   9.910 -0.1692  0.0591 -0.1547
   46CHL1  H19A 5851   3.740   4.685  10.004  0.1979  0.1326 -0.2842
   46CHL1  H19B 5852   3.812   4.593   9.866 -0.2027  1.0741 -1.1181
   46CHL1  H19C 5853   3.664   4.702   9.844  0.0809 -2.3801 -3.2433
   46CHL1    C1 5854   3.490   4.563  10.008  0.2324  0.4175 -0.0889
   46CHL1   H1A 5855   3.429   4.638   9.953  0.7740  1.1423  0.2643
   46CHL1   H1B 5856   3.427   4.472  10.009  2.2493 -1.0557 -1.0673
   46CHL1    C2 5857   3.508   4.628  10.151 -0.2582  0.2724 -0.7869
   46CHL1   H2A 5858   3.410   4.653  10.196  0.4480  3.3142 -0.7211
   46CHL1   H2B 5859   3.575   4.714  10.131  1.9158 -1.5801 -1.9914
   46CHL1   C20 5860   3.571   4.340   9.253 -0.1447 -0.4413 -0.4839
   46CHL1   H20 5861   3.677   4.356   9.225  0.0611 -0.1563  0.4170
   46CHL1   C21 5862   3.506   4.475   9.230  0.2739  0.7540  0.7928
   46CHL1  H21A 5863   3.409   4.477   9.284 -0.5738 -1.9312 -0.4713
   46CHL1  H21B 5864   3.472   4.490   9.125  0.2493  1.9687  0.9608
   46CHL1  H21C 5865   3.574   4.558   9.258  1.4625  0.6296 -1.5160
   46CHL1   C22 5866   3.529   4.225   9.154 -0.3158 -0.2107  0.4022
   46CHL1  H22A 5867   3.600   4.142   9.170  0.0503  0.4399  2.4455
   46CHL1  H22B 5868   3.431   4.197   9.199 -0.0600  0.8959  1.7503
   46CHL1   C23 5869   3.525   4.255   9.000 -0.1182  0.5706  1.0520
   46CHL1  H23A 5870   3.453   4.334   8.970 -4.7646 -3.1393  1.1182
   46CHL1  H23B 5871   3.628   4.286   8.972 -0.6981  1.0694 -0.6540
   46CHL1   C24 5872   3.487   4.139   8.910  0.3549  0.2258 -1.4705
   46CHL1  H24A 5873   3.526   4.042   8.949 -2.5982  0.0551  1.4881
   46CHL1  H24B 5874   3.379   4.129   8.933  0.7034 -0.8843 -0.1807
   46CHL1   C25 5875   3.512   4.179   8.763 -0.5566 -0.0806  0.1861
   46CHL1   H25 5876   3.475   4.283   8.753 -0.4473 -0.0732 -0.1295
   46CHL1   C26 5877   3.661   4.167   8.726 -0.1164 -0.0397  0.5629
   46CHL1  H26A 5878   3.683   4.059   8.728 -1.2034 -0.2647  1.7557
   46CHL1  H26B 5879   3.684   4.221   8.632 -2.1224 -2.4349 -1.4206
   46CHL1  H26C 5880   3.735   4.217   8.792  0.3592 -1.1478  0.8929
   46CHL1   C27 5881   3.432   4.085   8.671  0.8812  0.7003 -0.4335
   46CHL1  H27A 5882   3.455   3.977   8.683  2.4150  0.8653 -1.6921
   46CHL1  H27B 5883   3.325   4.112   8.685  0.5797 -0.6954  0.1096
   46CHL1  H27C 5884   3.454   4.092   8.563  0.8524  2.0368 -0.3668
   47CHL1    C3 5885   5.384   0.584  10.148 -0.4449 -0.0422 -0.3020
   47CHL1    H3 5886   5.294   0.642  10.117  0.0843  2.3142  2.2035
   47CHL1    O3 5887   5.384   0.576  10.288  0.5984  0.2114 -0.3447
   47CHL1   H3' 5888   5.305   0.525  10.307  1.6276 -1.0241  0.7474
   47CHL1    C4 5889   5.363   0.447  10.089  0.5969 -0.4976 -0.5327
   47CHL1   H4A 5890   5.444   0.378  10.122  0.6917 -0.6694 -1.1241
   47CHL1   H4B 5891   5.269   0.407  10.134  0.4002  0.7322  0.2057
   47CHL1    C5 5892   5.354   0.451   9.936  0.1912  0.0082  0.3953
   47CHL1    C6 5893   5.242   0.398   9.876  0.2376  0.1808  0.2968
   47CHL1    H6 5894   5.157   0.347   9.924 -0.8091  0.8160 -0.8246
   47CHL1    C7 5895   5.221   0.395   9.728  0.7327 -0.5674  0.4249
   47CHL1   H7A 5896   5.190   0.291   9.705  1.0361 -0.5872  0.0987
   47CHL1   H7B 5897   5.145   0.474   9.709  1.1358  0.3944  2.5033
   47CHL1    C8 5898   5.350   0.436   9.642 -0.0587 -0.2201  0.0107
   47CHL1    H8 5899   5.423   0.353   9.635 -1.2525 -1.2862 -0.3481
   47CHL1   C14 5900   5.307   0.494   9.504  0.0826  0.5707 -0.1594
   47CHL1   H14 5901   5.239   0.578   9.527  0.8896  2.2214 -3.1838
   47CHL1   C15 5902   5.230   0.390   9.425 -0.6350 -0.2184  0.4770
   47CHL1  H15A 5903   5.276   0.290   9.438 -0.8634 -0.5227 -0.9378
   47CHL1  H15B 5904   5.124   0.386   9.459 -0.7305  0.3218  0.2655
   47CHL1   C16 5905   5.236   0.432   9.278 -0.7450  0.3299 -0.4151
   47CHL1  H16A 5906   5.265   0.342   9.220 -0.3756 -2.2774  3.4375
   47CHL1  H16B 5907   5.131   0.458   9.248 -0.8497 -0.8340 -1.1250
   47CHL1   C17 5908   5.337   0.555   9.277 -1.0083  0.1596 -0.0280
   47CHL1   H17 5909   5.280   0.648   9.300  0.5437  1.4032 -0.9639
   47CHL1   C13 5910   5.418   0.540   9.406 -0.9076  0.0292 -0.4412
   47CHL1   C18 5911   5.520   0.429   9.383 -0.3794 -0.3720  0.5211
   47CHL1  H18A 5912   5.563   0.385   9.476 -0.8872 -0.7433  0.5828
   47CHL1  H18B 5913   5.482   0.336   9.335 -1.1799  0.1904  0.0478
   47CHL1  H18C 5914   5.606   0.472   9.326 -1.3967  1.1366  0.0740
   47CHL1   C12 5915   5.481   0.662   9.482  1.0165  0.1075  0.5546
   47CHL1  H12A 5916   5.566   0.696   9.419  2.2302  0.0905  2.1217
   47CHL1  H12B 5917   5.414   0.749   9.498  1.2189  0.3370  0.1759
   47CHL1   C11 5918   5.532   0.621   9.623 -0.6661  0.7306 -0.8453
   47CHL1  H11A 5919   5.620   0.556   9.609  0.1297  1.4536  0.5386
   47CHL1  H11B 5920   5.561   0.716   9.673  0.0345  1.8167 -3.1997
   47CHL1    C9 5921   5.423   0.554   9.716 -0.0512 -0.1019 -0.1752
   47CHL1    H9 5922   5.352   0.639   9.727 -0.9925 -0.9066  0.1479
   47CHL1   C10 5923   5.469   0.513   9.857 -0.5537 -0.4695  0.4092
   47CHL1   C19 5924   5.598   0.424   9.859 -0.2222  0.4858 -0.4227
   47CHL1  H19A 5925   5.564   0.322   9.830  1.1750  0.5899 -2.7314
   47CHL1  H19B 5926   5.670   0.470   9.788 -1.6114  2.5531 -0.5797
   47CHL1  H19C 5927   5.628   0.415   9.965  0.4845 -1.3881 -0.7342
   47CHL1    C1 5928   5.493   0.650   9.934 -0.8273  0.2373 -0.2335
   47CHL1   H1A 5929   5.575   0.699   9.878  0.1744 -1.3918 -0.2752
   47CHL1   H1B 5930   5.402   0.713   9.923 -0.3854  0.7172 -1.2134
   47CHL1    C2 5931   5.515   0.635  10.085  0.4966 -0.5362  0.3883
   47CHL1   H2A 5932   5.527   0.736  10.129  1.7063 -0.0381 -0.9925
   47CHL1   H2B 5933   5.603   0.575  10.115  2.9794  3.4464  1.7551
   47CHL1   C20 5934   5.415   0.574   9.148 -0.7793  0.3361  0.2777
   47CHL1   H20 5935   5.489   0.493   9.133  1.2934  2.3099 -0.7963
   47CHL1   C21 5936   5.481   0.706   9.157 -0.5529  0.3612 -0.3940
   47CHL1  H21A 5937   5.422   0.780   9.216 -2.1254 -2.0050  1.1403
   47CHL1  H21B 5938   5.496   0.765   9.063  2.3252  2.3380  1.1582
   47CHL1  H21C 5939   5.580   0.699   9.206 -0.1041 -1.8803 -1.4962
   47CHL1   C22 5940   5.335   0.570   9.013 -0.2440  0.4148  0.4754
   47CHL1  H22A 5941   5.398   0.596   8.925 -0.9558  0.1648 -0.1230
   47CHL1  H22B 5942   5.297   0.468   8.989  3.0147 -0.7628 -0.1121
   47CHL1   C23 5943   5.216   0.672   9.030 -0.3467 -1.2009 -0.0816
   47CHL1  H23A 5944   5.153   0.639   9.116 -1.2315 -1.3427 -0.7703
   47CHL1  H23B 5945   5.258   0.771   9.056  1.6207 -2.3234  1.3375
   47CHL1   C24 5946   5.137   0.697   8.903  0.1766  0.2630  0.3240
   47CHL1  H24A 5947   5.086   0.795   8.919 -0.4525 -0.0695  0.4049
   47CHL1  H24B 5948   5.202   0.714   8.815 -0.1403 -0.0852  0.0166
   47CHL1   C25 5949   5.027   0.598   8.870  0.0977  0.5868 -0.1063
   47CHL1   H25 5950   5.076   0.500   8.852  0.8644  0.5868  1.7673
   47CHL1   C26 5951   4.914   0.595   8.987 -0.4539 -0.1297  1.4149
   47CHL1  H26A 5952   4.960   0.542   9.073 -0.0056 -1.1678  0.5643
   47CHL1  H26B 5953   4.832   0.532   8.946  0.4108 -0.7252  0.5514
   47CHL1  H26C 5954   4.874   0.696   9.008  3.6991  1.5151  2.2519
   47CHL1   C27 5955   4.952   0.624   8.736 -0.3458 -0.3638 -0.0009
   47CHL1  H27A 5956   4.891   0.716   8.742 -0.1155 -0.2426  0.4914
   47CHL1  H27B 5957   5.026   0.632   8.653 -1.0892  1.0287 -0.5609
   47CHL1  H27C 5958   4.890   0.537   8.705 -0.6447 -0.5694  1.1419
   48CHL1    C3 5959   6.003   1.769   9.988 -0.4689  0.1768  0.2678
   48CHL1    H3 5960   5.920   1.837   9.958 -0.3784 -0.3117 -1.1553
   48CHL1    O3 5961   5.992   1.767  10.128 -0.2763 -0.4576 -0.0806
   48CHL1   H3' 5962   6.078   1.727  10.140 -0.0620  0.1757  0.5490
   48CHL1    C4 5963   5.971   1.632   9.917 -0.5794 -0.8595 -0.7567
   48CHL1   H4A 5964   6.059   1.571   9.947 -0.4861 -0.7619 -0.8285
   48CHL1   H4B 5965   5.884   1.575   9.954 -1.5451  0.4642 -0.9223
   48CHL1    C5 5966   5.971   1.652   9.770 -0.0441  0.1657  0.0049
   48CHL1    C6 5967   5.864   1.623   9.696 -0.2263  0.3543  0.0667
   48CHL1    H6 5968   5.773   1.585   9.744 -0.4483  0.8270  0.0183
   48CHL1    C7 5969   5.846   1.633   9.548  0.9892 -0.3090 -0.1473
   48CHL1   H7A 5970   5.790   1.544   9.511 -0.7094  0.4917  0.3652
   48CHL1   H7B 5971   5.793   1.725   9.516  3.3658  0.9342 -0.6947
   48CHL1    C8 5972   5.985   1.644   9.485 -0.2360  0.3512 -0.3639
   48CHL1    H8 5973   6.022   1.539   9.483  0.6966  0.6067  1.3802
   48CHL1   C14 5974   5.972   1.701   9.344 -0.0470 -0.0021 -0.6159
   48CHL1   H14 5975   5.961   1.812   9.344  0.5022  0.0788  1.0995
   48CHL1   C15 5976   5.859   1.653   9.253  0.4687  0.0168  0.0320
   48CHL1  H15A 5977   5.857   1.543   9.266 -1.0145 -0.1499 -1.2862
   48CHL1  H15B 5978   5.755   1.688   9.269 -0.3414 -1.8664 -0.8842
   48CHL1   C16 5979   5.904   1.699   9.115 -0.1396 -0.3152 -0.0216
   48CHL1  H16A 5980   5.927   1.604   9.062 -2.9300 -1.3431  0.4236
   48CHL1  H16B 5981   5.830   1.759   9.058  1.1915  1.9164  0.5085
   48CHL1   C17 5982   6.046   1.756   9.126  0.0667 -0.6501 -0.2045
   48CHL1   H17 5983   6.022   1.862   9.150  0.4012 -0.6518  0.1475
   48CHL1   C13 5984   6.100   1.693   9.258  0.0644  0.2439  0.5524
   48CHL1   C18 5985   6.150   1.545   9.241 -0.3374 -0.2254  0.1112
   48CHL1  H18A 5986   6.216   1.545   9.151 -1.5642 -0.4893 -0.8193
   48CHL1  H18B 5987   6.207   1.507   9.328 -3.0096 -0.7395  1.7240
   48CHL1  H18C 5988   6.067   1.471   9.237  0.5002 -1.2126  0.3987
   48CHL1   C12 5989   6.206   1.783   9.320 -0.0130 -0.1059 -0.3332
   48CHL1  H12A 5990   6.300   1.753   9.269  1.0488 -1.0786  2.0574
   48CHL1  H12B 5991   6.181   1.889   9.297  1.3883  0.5689  1.0687
   48CHL1   C11 5992   6.226   1.748   9.468 -0.1456 -0.1860 -0.2663
   48CHL1  H11A 5993   6.291   1.658   9.476  0.6752  0.3303 -1.0421
   48CHL1  H11B 5994   6.288   1.822   9.522  0.4552 -0.8864  0.0204
   48CHL1    C9 5995   6.085   1.731   9.548 -0.1310 -0.0052 -0.7314
   48CHL1    H9 5996   6.043   1.833   9.536  2.6990  1.8147  2.6221
   48CHL1   C10 5997   6.101   1.707   9.704 -0.3592 -0.5232 -0.7230
   48CHL1   C19 5998   6.220   1.610   9.729 -0.0880 -0.2116  0.6400
   48CHL1  H19A 5999   6.222   1.586   9.838  0.2725  0.7511  0.8527
   48CHL1  H19B 6000   6.215   1.523   9.660  4.1254  0.1129 -0.3088
   48CHL1  H19C 6001   6.318   1.661   9.719 -0.7482  1.0005  0.1416
   48CHL1    C1 6002   6.129   1.841   9.783 -0.3565  0.3553  0.5256
   48CHL1   H1A 6003   6.222   1.888   9.743 -0.3034 -0.2137 -0.0197
   48CHL1   H1B 6004   6.045   1.911   9.760  0.0719  0.7692  0.1889
   48CHL1    C2 6005   6.131   1.831   9.940  0.3040  0.6083  0.5038
   48CHL1   H2A 6006   6.132   1.933   9.986  0.2746  0.7512  0.1889
   48CHL1   H2B 6007   6.229   1.790   9.970  0.4595 -0.0482 -0.8309
   48CHL1   C20 6008   6.136   1.755   8.997 -0.2501  0.1069  0.1581
   48CHL1   H20 6009   6.208   1.671   9.004 -0.3293  0.0881  0.8248
   48CHL1   C21 6010   6.214   1.892   9.001  0.1575 -0.8552 -0.6709
   48CHL1  H21A 6011   6.134   1.969   9.007  1.5887  0.6103  0.6101
   48CHL1  H21B 6012   6.265   1.921   8.907  1.0549  2.5776  0.7153
   48CHL1  H21C 6013   6.290   1.914   9.079  0.5123 -0.3994 -1.1415
   48CHL1   C22 6014   6.062   1.746   8.864 -0.1040 -0.5754  0.1121
   48CHL1  H22A 6015   6.009   1.648   8.866 -0.3188 -0.5195 -1.6104
   48CHL1  H22B 6016   5.984   1.826   8.872 -0.5100 -0.8742 -0.7835
   48CHL1   C23 6017   6.141   1.742   8.732  0.1302 -0.1791 -0.3437
   48CHL1  H23A 6018   6.172   1.848   8.719 -1.0899  0.5200  1.9922
   48CHL1  H23B 6019   6.225   1.673   8.753 -2.4079 -3.3508  0.0506
   48CHL1   C24 6020   6.055   1.675   8.622  0.2296  0.0611  0.1284
   48CHL1  H24A 6021   6.027   1.572   8.656 -1.2012 -0.1023 -1.4011
   48CHL1  H24B 6022   5.960   1.731   8.610  0.6130  0.5237 -0.7453
   48CHL1   C25 6023   6.138   1.671   8.495 -0.6401  0.4316  0.6586
   48CHL1   H25 6024   6.175   1.774   8.475  0.9779 -0.2987 -0.3629
   48CHL1   C26 6025   6.252   1.560   8.503 -0.4661 -0.8720 -0.0286
   48CHL1  H26A 6026   6.341   1.591   8.562  0.7548  0.1532 -2.2756
   48CHL1  H26B 6027   6.221   1.454   8.513 -0.6603 -0.6746  2.0971
   48CHL1  H26C 6028   6.295   1.539   8.403 -0.8980 -1.9254 -0.0106
   48CHL1   C27 6029   6.045   1.630   8.379  0.4198  0.0102 -0.1867
   48CHL1  H27A 6030   6.086   1.653   8.279 -0.3647  0.2102 -0.4658
   48CHL1  H27B 6031   6.006   1.526   8.387  0.0544  0.1268 -0.4376
   48CHL1  H27C 6032   5.954   1.694   8.380  0.7268  0.5335 -2.1433
   49CHL1    C3 6033   3.396   2.934  10.040  0.3732 -0.2919  0.2826
   49CHL1    H3 6034   3.391   3.039  10.005 -1.4949 -0.6446 -0.6049
   49CHL1    O3 6035   3.383   2.933  10.180  0.2982 -0.3662 -0.3153
   49CHL1   H3' 6036   3.334   2.857  10.209  1.4488 -1.5143 -1.2358
   49CHL1    C4 6037   3.266   2.862   9.983 -0.0299 -0.5426  0.2093
   49CHL1   H4A 6038   3.257   2.759  10.022  2.0841 -1.0083 -0.4167
   49CHL1   H4B 6039   3.187   2.936  10.010  0.4909 -0.3908  1.3578
   49CHL1    C5 6040   3.274   2.864   9.824 -0.4010  0.5861 -0.5568
   49CHL1    C6 6041   3.173   2.909   9.748 -0.6311 -0.5676  0.7009
   49CHL1    H6 6042   3.086   2.950   9.801  0.3987  0.7592  1.4203
   49CHL1    C7 6043   3.180   2.905   9.592  0.0541  0.1865  0.5243
   49CHL1   H7A 6044   3.092   2.850   9.553  1.6624 -1.9629 -0.3002
   49CHL1   H7B 6045   3.181   3.008   9.552  1.4897  0.3501  0.9475
   49CHL1    C8 6046   3.294   2.822   9.540 -0.1758 -0.0173 -0.1425
   49CHL1    H8 6047   3.272   2.713   9.551  1.1008 -0.2465  0.3329
   49CHL1   C14 6048   3.321   2.857   9.395  0.0393  0.5737 -0.7441
   49CHL1   H14 6049   3.342   2.966   9.392 -1.7158  0.9307 -3.0746
   49CHL1   C15 6050   3.208   2.832   9.296  0.3953  0.1103 -0.3924
   49CHL1  H15A 6051   3.165   2.730   9.299  5.7691 -2.4654  2.3578
   49CHL1  H15B 6052   3.123   2.903   9.303  0.0714 -0.1861 -1.1768
   49CHL1   C16 6053   3.277   2.857   9.164  0.2078  0.1277  0.4296
   49CHL1  H16A 6054   3.240   2.778   9.096  1.7560 -1.0861  0.9250
   49CHL1  H16B 6055   3.262   2.962   9.132 -1.9345 -0.4631 -0.6882
   49CHL1   C17 6056   3.438   2.834   9.178  0.7379 -0.3443  0.4930
   49CHL1   H17 6057   3.485   2.933   9.163 -0.8306  0.2968 -0.4570
   49CHL1   C13 6058   3.445   2.789   9.325  0.7625 -0.3691 -0.6178
   49CHL1   C18 6059   3.415   2.637   9.341  0.1365 -0.4773  0.5300
   49CHL1  H18A 6060   3.404   2.617   9.450 -1.6638  0.9484  0.6481
   49CHL1  H18B 6061   3.330   2.612   9.275  2.1421  0.7927 -2.8440
   49CHL1  H18C 6062   3.508   2.592   9.300 -0.3145 -1.2127  0.3062
   49CHL1   C12 6063   3.572   2.833   9.402 -0.2801 -0.3720 -0.1120
   49CHL1  H12A 6064   3.667   2.797   9.357  1.6842  1.0328  2.5858
   49CHL1  H12B 6065   3.564   2.943   9.389 -3.5262 -0.5295 -0.2460
   49CHL1   C11 6066   3.561   2.794   9.557 -0.6360 -0.4161  0.0986
   49CHL1  H11A 6067   3.561   2.684   9.574  2.0298 -0.7914 -1.6426
   49CHL1  H11B 6068   3.652   2.836   9.605  0.6129  0.0534 -2.4674
   49CHL1    C9 6069   3.426   2.849   9.615 -0.9067  0.3836 -0.3423
   49CHL1    H9 6070   3.443   2.959   9.614  1.8352  0.0870  1.8709
   49CHL1   C10 6071   3.407   2.811   9.768 -0.5921  0.2484  0.6736
   49CHL1   C19 6072   3.410   2.656   9.779  0.9911 -0.6843 -0.0885
   49CHL1  H19A 6073   3.395   2.596   9.686 -1.5459  0.2535 -0.3477
   49CHL1  H19B 6074   3.503   2.626   9.832  1.7215 -0.1571 -1.0307
   49CHL1  H19C 6075   3.322   2.619   9.836  0.9193  0.4692  0.5751
   49CHL1    C1 6076   3.534   2.870   9.840  0.2327  0.0601  0.3413
   49CHL1   H1A 6077   3.623   2.810   9.810 -1.3601 -0.7029 -3.4471
   49CHL1   H1B 6078   3.550   2.973   9.803 -0.5514 -0.2382 -0.8897
   49CHL1    C2 6079   3.527   2.870   9.992  0.1172  0.0905 -0.3846
   49CHL1   H2A 6080   3.600   2.942  10.036  0.0220  0.0639 -0.1811
   49CHL1   H2B 6081   3.535   2.766  10.029  1.3890 -0.2615 -1.5873
   49CHL1   C20 6082   3.497   2.753   9.064 -0.2573 -0.2073 -0.5507
   49CHL1   H20 6083   3.449   2.652   9.062  2.8642 -1.8410 -0.2135
   49CHL1   C21 6084   3.649   2.729   9.093  0.2474  0.1704 -0.0063
   49CHL1  H21A 6085   3.670   2.677   9.189  2.3181  0.9335  0.0248
   49CHL1  H21B 6086   3.693   2.831   9.096 -0.0037  0.3901 -2.2625
   49CHL1  H21C 6087   3.696   2.660   9.019 -1.1381 -0.7509 -0.0589
   49CHL1   C22 6088   3.463   2.818   8.931 -0.7682  0.0845 -0.1987
   49CHL1  H22A 6089   3.354   2.830   8.914 -0.8261  2.7230  1.3816
   49CHL1  H22B 6090   3.500   2.923   8.921 -0.6127 -0.1312 -2.2233
   49CHL1   C23 6091   3.509   2.728   8.819  0.5076  0.1909 -0.3610
   49CHL1  H23A 6092   3.618   2.739   8.803  0.2719  0.2844 -2.1498
   49CHL1  H23B 6093   3.484   2.624   8.849  2.0231 -0.0615  0.1139
   49CHL1   C24 6094   3.456   2.764   8.678 -0.0755 -1.1044 -0.4711
   49CHL1  H24A 6095   3.345   2.770   8.683  0.0424  0.7509  2.1078
   49CHL1  H24B 6096   3.485   2.868   8.654 -0.1908 -0.4449  1.9756
   49CHL1   C25 6097   3.517   2.681   8.566  0.3121 -0.3575  0.1766
   49CHL1   H25 6098   3.618   2.649   8.599  0.3560  0.4111  0.8212
   49CHL1   C26 6099   3.441   2.564   8.521  0.1074 -0.7362 -0.2828
   49CHL1  H26A 6100   3.422   2.509   8.615  0.1414  1.0418  0.8050
   49CHL1  H26B 6101   3.343   2.603   8.485 -0.9908 -0.2536  2.8942
   49CHL1  H26C 6102   3.505   2.505   8.451  0.1127 -1.9476  0.7197
   49CHL1   C27 6103   3.547   2.777   8.444  0.2205 -0.0331 -0.1345
   49CHL1  H27A 6104   3.592   2.714   8.365  0.2476 -0.3922  0.1679
   49CHL1  H27B 6105   3.453   2.819   8.402 -0.7574 -2.6309 -0.7507
   49CHL1  H27C 6106   3.615   2.860   8.472  1.1326 -1.3199  1.6022
   50CHL1    C3 6107   0.308   0.425  10.155  0.5685 -0.6399 -0.3754
   50CHL1    H3 6108   0.250   0.509  10.111  0.5753 -0.1322  0.5434
   50CHL1    O3 6109   0.278   0.446  10.297  0.0594  0.0599 -0.0624
   50CHL1   H3' 6110   0.346   0.400  10.347  1.0334 -1.6095 -2.7043
   50CHL1    C4 6111   0.245   0.295  10.097 -0.0091 -0.3714 -0.5712
   50CHL1   H4A 6112   0.289   0.205  10.144  1.7499  1.4905  1.5563
   50CHL1   H4B 6113   0.138   0.300  10.127  0.2282 -0.6572  0.3485
   50CHL1    C5 6114   0.270   0.302   9.948 -0.3542 -0.4613  0.5683
   50CHL1    C6 6115   0.161   0.291   9.866 -0.1663  0.2809  0.3581
   50CHL1    H6 6116   0.060   0.271   9.906 -0.1527 -2.1052 -0.6620
   50CHL1    C7 6117   0.162   0.299   9.718 -0.0015  0.0226 -0.0140
   50CHL1   H7A 6118   0.100   0.214   9.683  0.3720 -0.3559  0.2435
   50CHL1   H7B 6119   0.127   0.399   9.683  0.3555 -0.2678 -1.2276
   50CHL1    C8 6120   0.307   0.282   9.663 -0.0219 -0.1698 -0.4400
   50CHL1    H8 6121   0.343   0.177   9.658  3.0234  0.8118 -2.7354
   50CHL1   C14 6122   0.310   0.331   9.519 -0.4793 -0.0724 -0.5164
   50CHL1   H14 6123   0.282   0.438   9.530  1.6755  0.5115 -0.2791
   50CHL1   C15 6124   0.206   0.276   9.425  0.7365  0.2316 -0.1365
   50CHL1  H15A 6125   0.206   0.165   9.431 -4.4337 -0.2398 -2.6440
   50CHL1  H15B 6126   0.097   0.291   9.443  0.4783 -2.6984  1.3925
   50CHL1   C16 6127   0.265   0.313   9.288 -0.2739 -0.4520  0.0718
   50CHL1  H16A 6128   0.266   0.220   9.227 -0.8132 -1.0382  0.9262
   50CHL1  H16B 6129   0.193   0.384   9.243  1.5279  0.5969 -1.2629
   50CHL1   C17 6130   0.403   0.378   9.305 -0.4352  0.6260  0.1736
   50CHL1   H17 6131   0.383   0.487   9.307 -0.0923  0.6783  1.0067
   50CHL1   C13 6132   0.445   0.334   9.448  0.1937  0.5410 -0.5885
   50CHL1   C18 6133   0.508   0.189   9.443  0.7213 -0.0465  0.1678
   50CHL1  H18A 6134   0.525   0.139   9.541 -1.9051  0.6850  1.0609
   50CHL1  H18B 6135   0.436   0.125   9.388  0.0924 -0.0072  0.9292
   50CHL1  H18C 6136   0.603   0.200   9.387  0.4271 -0.0984 -0.3391
   50CHL1   C12 6137   0.537   0.433   9.526 -0.0465 -0.4708 -0.4816
   50CHL1  H12A 6138   0.639   0.452   9.486 -0.2250  0.4901 -0.5059
   50CHL1  H12B 6139   0.484   0.531   9.525  1.1659  0.2623  1.4170
   50CHL1   C11 6140   0.539   0.385   9.682 -0.2103  0.6696  0.6983
   50CHL1  H11A 6141   0.593   0.288   9.689  0.1963  0.9003  0.8108
   50CHL1  H11B 6142   0.609   0.450   9.740  4.1104 -1.8918 -1.1477
   50CHL1    C9 6143   0.396   0.372   9.739 -0.3840  0.4809 -0.7206
   50CHL1    H9 6144   0.350   0.473   9.748  0.3469  0.7209  0.4583
   50CHL1   C10 6145   0.413   0.341   9.891  0.3845  1.2911 -0.2374
   50CHL1   C19 6146   0.495   0.216   9.919 -0.0274  0.1972  0.6658
   50CHL1  H19A 6147   0.484   0.143   9.836  0.3305  1.3831 -0.4761
   50CHL1  H19B 6148   0.603   0.244   9.923 -0.1548  0.8720 -0.2778
   50CHL1  H19C 6149   0.480   0.170  10.019 -0.6725 -2.4905 -0.5766
   50CHL1    C1 6150   0.489   0.456   9.977 -0.3853 -0.1277 -0.1613
   50CHL1   H1A 6151   0.598   0.445   9.956 -0.7606 -0.2426 -2.2199
   50CHL1   H1B 6152   0.444   0.550   9.941 -2.6477 -1.3263 -0.6437
   50CHL1    C2 6153   0.458   0.444  10.122  0.5787 -0.1019 -0.2412
   50CHL1   H2A 6154   0.502   0.532  10.172 -0.2613  0.1629  0.0472
   50CHL1   H2B 6155   0.506   0.356  10.171 -0.9099 -1.1840 -0.6376
   50CHL1   C20 6156   0.499   0.356   9.184  0.1714  0.0825 -0.5944
   50CHL1   H20 6157   0.510   0.246   9.172 -0.6988 -0.1711  0.7767
   50CHL1   C21 6158   0.633   0.419   9.212 -0.6143 -0.0635  0.2655
   50CHL1  H21A 6159   0.688   0.372   9.296  0.0820 -0.0557 -0.1814
   50CHL1  H21B 6160   0.615   0.528   9.224 -2.5490 -0.4262  1.1069
   50CHL1  H21C 6161   0.687   0.418   9.115 -3.4677 -0.6851 -1.4690
   50CHL1   C22 6162   0.439   0.393   9.046  0.2130 -0.3600  0.3444
   50CHL1  H22A 6163   0.515   0.378   8.967 -0.5939  0.5989 -0.6601
   50CHL1  H22B 6164   0.342   0.340   9.030 -1.5192  1.8209  2.6863
   50CHL1   C23 6165   0.398   0.546   9.041  0.7184 -0.2061  0.4274
   50CHL1  H23A 6166   0.324   0.572   9.120  0.4980  1.0066 -0.1594
   50CHL1  H23B 6167   0.491   0.604   9.056  0.7579 -0.5995  1.7755
   50CHL1   C24 6168   0.333   0.593   8.902 -0.0866  0.3443 -0.0148
   50CHL1  H24A 6169   0.397   0.558   8.819 -0.9947  2.0673 -1.5087
   50CHL1  H24B 6170   0.228   0.557   8.893 -0.4921  1.6572 -0.7565
   50CHL1   C25 6171   0.308   0.743   8.919  0.5051 -0.3884  0.4541
   50CHL1   H25 6172   0.246   0.761   9.009  1.1022 -1.7838  1.1787
   50CHL1   C26 6173   0.438   0.831   8.919 -0.2745 -0.3345  0.0585
   50CHL1  H26A 6174   0.495   0.796   8.830  2.5596 -1.9706  2.3392
   50CHL1  H26B 6175   0.421   0.940   8.907 -0.3308 -0.4840 -1.3786
   50CHL1  H26C 6176   0.502   0.811   9.007 -1.8767  1.2371  1.6565
   50CHL1   C27 6177   0.206   0.784   8.804 -0.4104  0.6662 -1.2740
   50CHL1  H27A 6178   0.252   0.758   8.706 -0.1905 -0.0210 -0.9910
   50CHL1  H27B 6179   0.110   0.728   8.809 -0.4287  0.7903  0.4991
   50CHL1  H27C 6180   0.186   0.893   8.808 -0.9006  0.7609 -3.9783
   51CHL1    C3 6181   2.390   2.838  10.301  0.5786  0.7887  0.6952
   51CHL1    H3 6182   2.463   2.912  10.262  2.3208 -0.4419  1.5059
   51CHL1    O3 6183   2.390   2.836  10.440  0.4660  0.1653  0.5105
   51CHL1   H3' 6184   2.339   2.759  10.466  0.8787 -0.0315  0.7410
   51CHL1    C4 6185   2.247   2.879  10.255  0.6239 -0.4164  0.1189
   51CHL1   H4A 6186   2.173   2.808  10.297  1.0492  0.2641  2.1751
   51CHL1   H4B 6187   2.230   2.974  10.310  0.3328 -0.7834  0.6768
   51CHL1    C5 6188   2.228   2.881  10.103  0.4331  0.0588  0.1813
   51CHL1    C6 6189   2.184   2.987  10.046  0.8734  0.1160  0.4193
   51CHL1    H6 6190   2.145   3.068  10.110 -1.2376 -0.4180 -0.1463
   51CHL1    C7 6191   2.163   2.998   9.894 -0.4655 -0.9102  0.2938
   51CHL1   H7A 6192   2.069   3.057   9.890  0.1985  0.3642  2.1867
   51CHL1   H7B 6193   2.244   3.063   9.856  0.8980 -2.4855  0.3963
   51CHL1    C8 6194   2.177   2.872   9.814  0.1001 -0.1753 -0.2885
   51CHL1    H8 6195   2.088   2.805   9.819 -0.2233  0.1115 -1.7465
   51CHL1   C14 6196   2.197   2.907   9.665  0.5365  0.0173 -0.8214
   51CHL1   H14 6197   2.290   2.967   9.673 -0.0781  1.2626 -2.4281
   51CHL1   C15 6198   2.092   2.995   9.591  0.1339  0.0928 -0.3919
   51CHL1  H15A 6199   1.991   2.962   9.622  0.3870  0.9139  1.4557
   51CHL1  H15B 6200   2.112   3.101   9.617 -1.3015  0.0280  1.1227
   51CHL1   C16 6201   2.121   2.977   9.448 -0.0480 -0.1691 -0.0557
   51CHL1  H16A 6202   2.029   2.938   9.402  0.6501 -1.3560 -0.4810
   51CHL1  H16B 6203   2.157   3.068   9.395 -0.4815 -0.9727 -1.7909
   51CHL1   C17 6204   2.234   2.863   9.443  1.0184 -0.3443 -0.5001
   51CHL1   H17 6205   2.330   2.918   9.430  0.0733  2.2635  2.3912
   51CHL1   C13 6206   2.221   2.781   9.573  0.4416 -0.5039  0.3743
   51CHL1   C18 6207   2.093   2.690   9.577  0.0416 -0.1270  0.2683
   51CHL1  H18A 6208   2.000   2.732   9.534 -0.2453  0.7636  1.6742
   51CHL1  H18B 6209   2.105   2.593   9.525  1.0530 -1.0448  2.1063
   51CHL1  H18C 6210   2.075   2.655   9.681 -0.3296 -0.7611 -0.0020
   51CHL1   C12 6211   2.347   2.712   9.631  0.2322  0.8649 -0.0899
   51CHL1  H12A 6212   2.375   2.620   9.574 -2.5165 -1.0152  1.3613
   51CHL1  H12B 6213   2.423   2.786   9.598 -1.1179  1.4681 -2.0622
   51CHL1   C11 6214   2.352   2.686   9.781 -0.8600  0.0090 -0.5872
   51CHL1  H11A 6215   2.284   2.598   9.789 -1.2575  0.2274 -1.3829
   51CHL1  H11B 6216   2.455   2.650   9.800  0.1925  1.6500 -2.7674
   51CHL1    C9 6217   2.299   2.799   9.873  0.5506  0.5084 -0.0183
   51CHL1    H9 6218   2.382   2.873   9.874  0.0590  1.0578  0.6718
   51CHL1   C10 6219   2.278   2.761  10.020  0.7591  0.9915 -0.7732
   51CHL1   C19 6220   2.180   2.640  10.033 -0.0854  0.1040  0.4609
   51CHL1  H19A 6221   2.216   2.541   9.998 -0.1512  1.2448 -3.2472
   51CHL1  H19B 6222   2.154   2.618  10.139  1.0150 -1.7359  0.3931
   51CHL1  H19C 6223   2.085   2.653   9.976  0.6604  1.1293 -0.5950
   51CHL1    C1 6224   2.422   2.727  10.081  0.0081  0.7023 -0.5760
   51CHL1   H1A 6225   2.443   2.636  10.021 -0.8057  0.6361 -0.7715
   51CHL1   H1B 6226   2.490   2.812  10.056  0.0993  0.0744 -2.6702
   51CHL1    C2 6227   2.420   2.704  10.235  0.4911  0.2105  0.0733
   51CHL1   H2A 6228   2.516   2.659  10.267  0.5565 -0.1825 -0.6613
   51CHL1   H2B 6229   2.338   2.634  10.262  0.6433  0.2847  0.7597
   51CHL1   C20 6230   2.216   2.776   9.313 -0.0309  0.4422 -1.0095
   51CHL1   H20 6231   2.144   2.692   9.327  1.6302 -1.1494 -1.6699
   51CHL1   C21 6232   2.353   2.707   9.283  0.6715  0.2206 -0.6614
   51CHL1  H21A 6233   2.429   2.787   9.298  0.6019  0.4546 -1.4921
   51CHL1  H21B 6234   2.363   2.655   9.185 -0.3404  0.6692 -1.0138
   51CHL1  H21C 6235   2.367   2.630   9.362  1.7087 -2.3811 -3.2307
   51CHL1   C22 6236   2.170   2.851   9.183  0.3153 -0.1956 -0.5220
   51CHL1  H22A 6237   2.071   2.898   9.201 -1.0644 -2.8685 -0.5589
   51CHL1  H22B 6238   2.248   2.929   9.170 -1.2811  1.6178  0.3762
   51CHL1   C23 6239   2.144   2.775   9.054 -0.3640  1.0217 -0.5585
   51CHL1  H23A 6240   2.231   2.720   9.011  0.5933  0.1590  2.2732
   51CHL1  H23B 6241   2.067   2.698   9.073  1.1385 -0.8348 -1.6684
   51CHL1   C24 6242   2.090   2.861   8.951  0.4943  0.1651  0.1960
   51CHL1  H24A 6243   1.991   2.899   8.986  0.7541  1.7506 -0.7172
   51CHL1  H24B 6244   2.151   2.953   8.938  0.6121  0.2751  1.4266
   51CHL1   C25 6245   2.073   2.800   8.809  0.2413 -0.5841 -0.0203
   51CHL1   H25 6246   2.005   2.864   8.749  0.0424 -0.3309  0.4707
   51CHL1   C26 6247   2.208   2.791   8.735  0.0052 -0.0070  0.2532
   51CHL1  H26A 6248   2.191   2.774   8.626 -1.3576 -1.1564  0.6107
   51CHL1  H26B 6249   2.257   2.889   8.754 -0.9208  0.2202  1.6611
   51CHL1  H26C 6250   2.275   2.718   8.785 -0.8597 -1.8494 -1.1373
   51CHL1   C27 6251   2.022   2.658   8.819  0.5254  0.2293  0.1731
   51CHL1  H27A 6252   2.090   2.597   8.883 -0.8463 -1.8165 -0.2213
   51CHL1  H27B 6253   1.918   2.657   8.858  1.1743  0.6587  2.0316
   51CHL1  H27C 6254   2.032   2.600   8.725  0.4831  0.1973  0.1874
   52CHL1    C3 6255   5.111   6.731  10.002 -0.1952  0.4976 -0.2346
   52CHL1    H3 6256   5.202   6.789   9.976  2.1268 -2.4600  0.7687
   52CHL1    O3 6257   5.090   6.735  10.144  0.4564  0.1478 -0.0578
   52CHL1   H3' 6258   5.062   6.826  10.157 -3.2705 -0.7505 -0.7016
   52CHL1    C4 6259   4.988   6.780   9.935 -0.2685  0.1256 -0.4171
   52CHL1   H4A 6260   4.903   6.717   9.969 -0.7996  0.7247 -0.6197
   52CHL1   H4B 6261   4.976   6.883   9.974  0.6017  0.5323 -1.1993
   52CHL1    C5 6262   5.016   6.789   9.792 -1.0308  0.9038 -0.1048
   52CHL1    C6 6263   5.006   6.898   9.724 -0.3590 -1.2863 -0.1622
   52CHL1    H6 6264   4.972   6.991   9.771 -2.9283 -1.4530 -1.5154
   52CHL1    C7 6265   5.038   6.911   9.576 -0.2350 -0.5841  0.5357
   52CHL1   H7A 6266   4.960   6.971   9.525 -1.1505 -0.0451  2.4992
   52CHL1   H7B 6267   5.144   6.937   9.552 -0.2706  1.2284  2.1644
   52CHL1    C8 6268   5.026   6.772   9.501  0.0813 -0.2839  0.2435
   52CHL1    H8 6269   4.919   6.743   9.487  0.3936 -0.9719 -0.8002
   52CHL1   C14 6270   5.087   6.790   9.370 -0.2461 -0.0264  0.1005
   52CHL1   H14 6271   5.191   6.826   9.378 -0.2298 -0.0298 -0.0913
   52CHL1   C15 6272   5.036   6.892   9.265 -0.6883  0.0689  0.3000
   52CHL1  H15A 6273   4.927   6.911   9.259 -0.6149  0.6144  0.6480
   52CHL1  H15B 6274   5.075   6.990   9.299 -0.2176 -0.1562  0.4305
   52CHL1   C16 6275   5.081   6.838   9.132  0.1409 -0.1536 -0.3666
   52CHL1  H16A 6276   4.986   6.817   9.077 -0.6006 -1.2125  1.2464
   52CHL1  H16B 6277   5.142   6.914   9.080  0.0599  0.7278  0.7877
   52CHL1   C17 6278   5.156   6.708   9.157  1.3931  0.7143 -0.4481
   52CHL1   H17 6279   5.263   6.736   9.172  1.3693  0.5712  0.0149
   52CHL1   C13 6280   5.102   6.655   9.290  0.4612 -0.7605 -0.1014
   52CHL1   C18 6281   4.959   6.595   9.273 -0.1486 -0.5017 -0.2445
   52CHL1  H18A 6282   4.926   6.542   9.364 -1.1012 -0.7163 -0.6987
   52CHL1  H18B 6283   4.890   6.682   9.270  2.1064  1.3732 -2.5843
   52CHL1  H18C 6284   4.951   6.531   9.183 -1.1828  2.4828 -2.4479
   52CHL1   C12 6285   5.204   6.560   9.373 -0.2941  0.2068 -0.1877
   52CHL1  H12A 6286   5.227   6.464   9.321  2.4051  0.2420  0.7790
   52CHL1  H12B 6287   5.300   6.615   9.378  0.1441 -0.3527 -1.8882
   52CHL1   C11 6288   5.145   6.540   9.514  0.4846  0.0089 -0.3048
   52CHL1  H11A 6289   5.053   6.479   9.500  1.6225 -1.4785 -1.6948
   52CHL1  H11B 6290   5.207   6.475   9.579  0.1765  0.4777  0.4679
   52CHL1    C9 6291   5.104   6.665   9.588 -0.5032  0.3008  0.5905
   52CHL1    H9 6292   5.200   6.719   9.603 -0.4965  0.4560 -0.0124
   52CHL1   C10 6293   5.047   6.646   9.729 -0.8159  0.4773 -0.1469
   52CHL1   C19 6294   4.919   6.567   9.723  0.6731  0.0080 -0.5357
   52CHL1  H19A 6295   4.879   6.557   9.826  2.0114  2.4428  0.3056
   52CHL1  H19B 6296   4.841   6.613   9.659  0.8346  1.5040  0.3162
   52CHL1  H19C 6297   4.937   6.462   9.690 -2.5756 -0.6033 -0.7092
   52CHL1    C1 6298   5.141   6.558   9.814  0.0235  0.9098  0.1209
   52CHL1   H1A 6299   5.123   6.451   9.789  2.2171  0.5264  0.0400
   52CHL1   H1B 6300   5.244   6.582   9.781  0.0985  1.3673  0.6773
   52CHL1    C2 6301   5.132   6.578   9.964  0.1984 -0.1134  0.5264
   52CHL1   H2A 6302   5.210   6.530  10.026 -0.2601 -2.2619 -0.4698
   52CHL1   H2B 6303   5.041   6.524   9.995  0.8090 -0.7268  1.2748
   52CHL1   C20 6304   5.148   6.621   9.031 -0.1830  0.6727  1.3647
   52CHL1   H20 6305   5.042   6.592   9.014  0.0984  1.0921 -1.6771
   52CHL1   C21 6306   5.220   6.487   9.053  0.6418 -0.6997  0.1984
   52CHL1  H21A 6307   5.164   6.424   9.125 -0.2942  1.0011  1.0197
   52CHL1  H21B 6308   5.319   6.503   9.101  1.2023 -0.3451 -1.0300
   52CHL1  H21C 6309   5.234   6.424   8.963  1.1108  1.1410 -1.0953
   52CHL1   C22 6310   5.181   6.687   8.896  0.2936 -0.0562 -0.5139
   52CHL1  H22A 6311   5.134   6.787   8.880  0.5390  0.0579 -0.5273
   52CHL1  H22B 6312   5.287   6.720   8.901  0.5222 -0.7906 -0.4863
   52CHL1   C23 6313   5.154   6.610   8.769 -0.3362  0.2389 -0.2491
   52CHL1  H23A 6314   5.210   6.514   8.765  1.7990  1.3692  1.2227
   52CHL1  H23B 6315   5.047   6.578   8.767  0.0052 -0.9309 -0.6035
   52CHL1   C24 6316   5.191   6.678   8.637 -0.4419  0.4753 -0.6531
   52CHL1  H24A 6317   5.101   6.737   8.610  0.9629  2.0007 -2.2747
   52CHL1  H24B 6318   5.279   6.745   8.644 -0.3169  0.1290  2.1723
   52CHL1   C25 6319   5.215   6.581   8.510 -0.0776 -0.2372  0.1436
   52CHL1   H25 6320   5.310   6.524   8.516  0.8165  1.2895  1.3243
   52CHL1   C26 6321   5.101   6.479   8.494  0.2467 -0.0666 -0.0410
   52CHL1  H26A 6322   5.101   6.450   8.387 -1.1425  2.7869 -0.9233
   52CHL1  H26B 6323   5.109   6.393   8.563  1.6546 -0.3839 -0.5623
   52CHL1  H26C 6324   5.001   6.525   8.511  0.8880  1.2847  0.2517
   52CHL1   C27 6325   5.209   6.663   8.379  0.0774 -0.2562  0.1777
   52CHL1  H27A 6326   5.272   6.754   8.388  1.2900 -1.2073  1.7583
   52CHL1  H27B 6327   5.255   6.611   8.293  0.1911 -0.8502  0.5915
   52CHL1  H27C 6328   5.102   6.692   8.364 -0.0951 -1.3522 -0.8243
   53CHL1    C3 6329   5.603   6.319  10.031  0.5735 -0.0234 -0.4564
   53CHL1    H3 6330   5.692   6.363   9.982  1.2786 -0.5405  0.3346
   53CHL1    O3 6331   5.583   6.328  10.173  0.3137  0.0568  0.1724
   53CHL1   H3' 6332   5.658   6.283  10.214  0.1644 -0.2654  0.0967
   53CHL1    C4 6333   5.474   6.354   9.954  0.8162  0.4251  0.1492
   53CHL1   H4A 6334   5.390   6.288   9.984 -1.0893  1.6548 -2.1531
   53CHL1   H4B 6335   5.445   6.458   9.981  0.6755  0.2242  0.7785
   53CHL1    C5 6336   5.499   6.337   9.806  0.3603 -0.3961  0.5166
   53CHL1    C6 6337   5.489   6.434   9.721  0.0322  0.7909  0.0809
   53CHL1    H6 6338   5.455   6.529   9.766  1.5102  0.4708  1.9887
   53CHL1    C7 6339   5.517   6.417   9.570 -0.6078 -0.4186  0.6155
   53CHL1   H7A 6340   5.453   6.491   9.518 -1.4302 -0.6369  1.2995
   53CHL1   H7B 6341   5.622   6.449   9.556 -0.9604  0.6721  0.4123
   53CHL1    C8 6342   5.507   6.273   9.516  0.1007  0.1639 -0.0445
   53CHL1    H8 6343   5.398   6.252   9.524 -0.1477  1.3012 -0.2354
   53CHL1   C14 6344   5.560   6.255   9.376  0.0490  0.0842 -0.0883
   53CHL1   H14 6345   5.669   6.275   9.378 -0.3048  2.3173  0.1841
   53CHL1   C15 6346   5.513   6.353   9.275  0.0688  0.0069  0.1033
   53CHL1  H15A 6347   5.403   6.370   9.280  0.2455  1.3036 -0.0086
   53CHL1  H15B 6348   5.571   6.447   9.288 -0.2093 -0.1388  3.1207
   53CHL1   C16 6349   5.558   6.282   9.148  0.4788  0.2122  0.4178
   53CHL1  H16A 6350   5.469   6.271   9.083  1.0943  1.2189 -0.6391
   53CHL1  H16B 6351   5.630   6.334   9.082 -0.7579 -0.0907 -1.2498
   53CHL1   C17 6352   5.608   6.141   9.189 -0.0786  0.2180  0.4562
   53CHL1   H17 6353   5.716   6.146   9.214 -0.4371 -0.9164  2.3924
   53CHL1   C13 6354   5.541   6.116   9.322  0.4462 -0.8920  0.6184
   53CHL1   C18 6355   5.398   6.080   9.300 -0.4422  0.6379  0.2450
   53CHL1  H18A 6356   5.345   6.149   9.231  0.0987  0.9712  0.1601
   53CHL1  H18B 6357   5.373   5.980   9.258 -2.0103  1.8579 -1.9363
   53CHL1  H18C 6358   5.342   6.095   9.396  0.0728 -2.3850  1.1372
   53CHL1   C12 6359   5.618   6.016   9.414  0.2357 -0.7285  0.2303
   53CHL1  H12A 6360   5.602   5.913   9.374  2.9942 -0.7203 -1.1235
   53CHL1  H12B 6361   5.726   6.036   9.397 -0.5423  2.4929 -1.8414
   53CHL1   C11 6362   5.578   6.032   9.560 -0.3597 -0.2240 -1.0927
   53CHL1  H11A 6363   5.476   5.987   9.566 -0.7318  0.5053 -1.7283
   53CHL1  H11B 6364   5.648   5.984   9.631  0.3583 -0.1572 -1.7467
   53CHL1    C9 6365   5.571   6.180   9.611  0.3630  0.7545  0.1617
   53CHL1    H9 6366   5.680   6.200   9.605  1.3847 -3.0085  2.3360
   53CHL1   C10 6367   5.533   6.196   9.758 -0.1045  0.9216  0.1043
   53CHL1   C19 6368   5.411   6.100   9.782  0.7269 -0.7992  0.3440
   53CHL1  H19A 6369   5.452   5.998   9.798  0.6613 -0.6746  1.3665
   53CHL1  H19B 6370   5.352   6.141   9.867 -1.0636  0.1508 -1.2975
   53CHL1  H19C 6371   5.342   6.094   9.696 -0.1392 -2.2632  1.0873
   53CHL1    C1 6372   5.647   6.145   9.852  0.0312  0.0775  1.5286
   53CHL1   H1A 6373   5.689   6.045   9.828  2.0204  1.4618 -1.3767
   53CHL1   H1B 6374   5.734   6.209   9.827 -0.1808  0.2387  1.1957
   53CHL1    C2 6375   5.620   6.172   9.999 -0.3886 -0.1790  0.2606
   53CHL1   H2A 6376   5.713   6.138  10.049 -1.8583 -0.6800  2.8281
   53CHL1   H2B 6377   5.534   6.113  10.038 -0.4160  0.8396  1.8040
   53CHL1   C20 6378   5.580   6.036   9.071 -0.5170 -0.3052 -0.4441
   53CHL1   H20 6379   5.473   6.029   9.039 -0.5241  1.7012 -1.0127
   53CHL1   C21 6380   5.629   5.892   9.102 -0.3771 -0.2539  0.2304
   53CHL1  H21A 6381   5.722   5.889   9.163  0.0755 -0.3060 -0.4563
   53CHL1  H21B 6382   5.645   5.830   9.011  0.6945  0.1868  0.0991
   53CHL1  H21C 6383   5.560   5.827   9.160  1.4540 -2.3151  0.2265
   53CHL1   C22 6384   5.646   6.086   8.941 -0.6851 -0.4430 -0.2631
   53CHL1  H22A 6385   5.717   6.169   8.959 -0.7749 -0.4056 -0.0829
   53CHL1  H22B 6386   5.709   5.999   8.911 -2.0076 -1.7427  0.5855
   53CHL1   C23 6387   5.544   6.121   8.832  0.5977 -0.3715 -0.0099
   53CHL1  H23A 6388   5.481   6.211   8.845 -0.9065 -1.1259 -1.6177
   53CHL1  H23B 6389   5.608   6.144   8.744 -1.8193  0.1605 -1.7518
   53CHL1   C24 6390   5.461   5.996   8.784  0.1601 -0.6185  0.1460
   53CHL1  H24A 6391   5.539   5.918   8.776  0.9090 -0.0387  1.4432
   53CHL1  H24B 6392   5.386   5.969   8.862  0.2256  0.9221  0.7911
   53CHL1   C25 6393   5.399   6.008   8.644  0.0846  0.2731 -0.0199
   53CHL1   H25 6394   5.483   6.044   8.581  1.5366 -2.5277  0.1448
   53CHL1   C26 6395   5.354   5.864   8.602  0.4650  0.3931 -0.2834
   53CHL1  H26A 6396   5.325   5.861   8.495  0.9999 -0.7691 -0.4147
   53CHL1  H26B 6397   5.433   5.791   8.627  0.4041 -0.5427 -2.5871
   53CHL1  H26C 6398   5.259   5.845   8.657 -1.0822  0.0015 -2.9602
   53CHL1   C27 6399   5.285   6.112   8.645  0.1572  0.2107  0.1479
   53CHL1  H27A 6400   5.238   6.139   8.548 -1.7364 -1.1698  0.6238
   53CHL1  H27B 6401   5.203   6.067   8.706 -0.1680 -1.0622 -1.1719
   53CHL1  H27C 6402   5.315   6.208   8.694  1.3762 -0.1218  0.0753
   54CHL1    C3 6403   6.398   0.513  10.239 -0.4484 -0.4614 -1.0216
   54CHL1    H3 6404   6.376   0.420  10.183 -0.5494  0.4441 -2.5518
   54CHL1    O3 6405   6.385   0.482  10.374 -0.4539 -0.1784  0.5539
   54CHL1   H3' 6406   6.396   0.569  10.412  0.0189 -0.0947  0.2343
   54CHL1    C4 6407   6.548   0.555  10.213 -0.0925  0.0626  0.2772
   54CHL1   H4A 6408   6.570   0.644  10.275 -0.8295  1.4699 -1.4078
   54CHL1   H4B 6409   6.607   0.466  10.244 -0.6856 -0.1274  0.8807
   54CHL1    C5 6410   6.574   0.577  10.066  0.5603 -0.0075  0.2918
   54CHL1    C6 6411   6.668   0.513   9.997 -0.2290  0.3609  0.6851
   54CHL1    H6 6412   6.739   0.449  10.052 -0.9211  0.0807  1.2668
   54CHL1    C7 6413   6.700   0.520   9.852  0.6187  0.7238  0.2438
   54CHL1   H7A 6414   6.806   0.542   9.830  0.7732  2.4733  2.4394
   54CHL1   H7B 6415   6.672   0.426   9.799 -3.0259  1.6178  0.3238
   54CHL1    C8 6416   6.607   0.631   9.781 -0.4369 -0.1039  0.0414
   54CHL1    H8 6417   6.657   0.726   9.811 -1.0093  0.1699  0.1555
   54CHL1   C14 6418   6.592   0.597   9.634  0.1680 -0.1056  0.2771
   54CHL1   H14 6419   6.535   0.502   9.628  0.9496 -0.5244 -0.6872
   54CHL1   C15 6420   6.714   0.562   9.550  0.4948  0.5418 -0.6318
   54CHL1  H15A 6421   6.800   0.622   9.586 -0.0326  1.8481 -1.5032
   54CHL1  H15B 6422   6.742   0.456   9.570  0.3449  0.1306 -2.4566
   54CHL1   C16 6423   6.669   0.590   9.413  0.7265 -0.2649 -0.3207
   54CHL1  H16A 6424   6.739   0.669   9.378  1.0772  0.2093  1.3423
   54CHL1  H16B 6425   6.687   0.506   9.343 -0.9413 -0.9189  0.0040
   54CHL1   C17 6426   6.527   0.648   9.417  0.0179  0.7581  0.3508
   54CHL1   H17 6427   6.467   0.555   9.406  0.6643  0.4733 -0.9248
   54CHL1   C13 6428   6.517   0.701   9.557 -0.2302  0.1516  0.1038
   54CHL1   C18 6429   6.589   0.838   9.574 -0.0758  1.0827 -0.1139
   54CHL1  H18A 6430   6.695   0.835   9.541  0.2769 -1.0321  1.0333
   54CHL1  H18B 6431   6.542   0.918   9.512 -0.0228  1.7182  0.6559
   54CHL1  H18C 6432   6.596   0.881   9.676 -0.0917  2.4897 -0.6813
   54CHL1   C12 6433   6.378   0.706   9.616  0.0996 -0.1517 -0.3751
   54CHL1  H12A 6434   6.318   0.786   9.569  0.8840  0.5007 -0.2942
   54CHL1  H12B 6435   6.331   0.605   9.611  1.3860 -0.7569 -0.8053
   54CHL1   C11 6436   6.379   0.740   9.760  0.0724 -0.0611 -0.2966
   54CHL1  H11A 6437   6.424   0.841   9.770 -1.6545  0.9282 -1.9248
   54CHL1  H11B 6438   6.271   0.744   9.784  0.1462 -0.4090  0.1052
   54CHL1    C9 6439   6.471   0.638   9.839  0.5746 -0.2502  0.1874
   54CHL1    H9 6440   6.426   0.537   9.824  0.8351 -0.0969 -2.0154
   54CHL1   C10 6441   6.468   0.664   9.995  0.0207  0.4564  0.5529
   54CHL1   C19 6442   6.506   0.807  10.035 -0.3403  0.5511 -0.0990
   54CHL1  H19A 6443   6.610   0.834  10.003  0.0734 -0.0256  0.7256
   54CHL1  H19B 6444   6.438   0.882   9.989  0.3148  0.0295 -2.0177
   54CHL1  H19C 6445   6.499   0.807  10.145  0.6092 -0.8928 -0.0096
   54CHL1    C1 6446   6.319   0.643  10.048  0.1886 -0.1736  0.1589
   54CHL1   H1A 6447   6.266   0.736  10.018  1.2026  0.6942  0.9797
   54CHL1   H1B 6448   6.283   0.562   9.982 -1.8296  1.5561 -0.9888
   54CHL1    C2 6449   6.300   0.616  10.198  0.4035  0.1364 -0.2279
   54CHL1   H2A 6450   6.193   0.598  10.221  0.5044  1.3066  1.3899
   54CHL1   H2B 6451   6.330   0.716  10.239 -0.6717  0.7025 -0.7962
   54CHL1   C20 6452   6.499   0.745   9.301  0.2894 -0.9789  0.6054
   54CHL1   H20 6453   6.563   0.835   9.314  1.2650 -1.6845  0.7894
   54CHL1   C21 6454   6.352   0.790   9.282 -0.2602 -0.5101  0.2733
   54CHL1  H21A 6455   6.325   0.849   9.373 -1.7846 -0.2370 -0.3196
   54CHL1  H21B 6456   6.284   0.702   9.273 -2.3459  1.0075  0.3038
   54CHL1  H21C 6457   6.340   0.856   9.193  1.5831  0.5319  0.7417
   54CHL1   C22 6458   6.556   0.685   9.171 -0.1622  0.2887  0.3566
   54CHL1  H22A 6459   6.665   0.704   9.171  0.0341 -0.7848  0.6289
   54CHL1  H22B 6460   6.546   0.574   9.174  0.8973  0.0640 -1.9838
   54CHL1   C23 6461   6.512   0.735   9.028  0.6452 -0.7002 -0.7761
   54CHL1  H23A 6462   6.539   0.653   8.958  1.2680  0.8703 -2.4477
   54CHL1  H23B 6463   6.401   0.741   9.020  0.6357 -1.3301 -1.1152
   54CHL1   C24 6464   6.586   0.867   8.995  0.5557 -0.4643 -0.1332
   54CHL1  H24A 6465   6.549   0.940   9.070 -1.4981 -1.3094 -0.2527
   54CHL1  H24B 6466   6.696   0.859   9.010  0.7690 -1.1932 -1.8434
   54CHL1   C25 6467   6.558   0.932   8.855 -0.1116  0.4227  0.3459
   54CHL1   H25 6468   6.562   0.860   8.771  0.4147 -1.1906  1.7233
   54CHL1   C26 6469   6.423   1.004   8.834  0.1731 -0.0114 -0.5104
   54CHL1  H26A 6470   6.425   1.098   8.893  1.9871  0.4379 -1.2121
   54CHL1  H26B 6471   6.404   1.026   8.727  1.3761  0.0860 -0.7126
   54CHL1  H26C 6472   6.343   0.938   8.873 -2.0012  1.4463 -2.2812
   54CHL1   C27 6473   6.667   1.044   8.821 -0.0253  0.3746 -0.1705
   54CHL1  H27A 6474   6.657   1.126   8.895 -0.4793 -0.3128  0.5537
   54CHL1  H27B 6475   6.771   1.004   8.817  0.8581  2.6414 -2.4643
   54CHL1  H27C 6476   6.655   1.090   8.721 -1.6495 -0.1745 -0.2601
   55CHL1    C3 6477   6.579   6.168  10.087 -0.4255 -0.1645 -0.0062
   55CHL1    H3 6478   6.676   6.115  10.078 -0.1373  0.3026  0.3070
   55CHL1    O3 6479   6.542   6.184  10.225  0.2789 -0.0489  0.0335
   55CHL1   H3' 6480   6.577   6.267  10.257 -3.2869  1.7854 -0.3772
   55CHL1    C4 6481   6.593   6.308  10.016 -0.4401 -0.0577  0.3486
   55CHL1   H4A 6482   6.518   6.379  10.058 -0.3946  1.1910 -1.5526
   55CHL1   H4B 6483   6.691   6.352  10.044 -0.3125  1.0308 -1.6021
   55CHL1    C5 6484   6.599   6.307   9.861  0.3039 -1.0669 -1.0000
   55CHL1    C6 6485   6.697   6.374   9.794 -0.8048  0.0977  0.7722
   55CHL1    H6 6486   6.763   6.440   9.852 -2.2994  1.0293  1.4461
   55CHL1    C7 6487   6.703   6.383   9.641 -0.2809  0.1165  0.3396
   55CHL1   H7A 6488   6.733   6.484   9.609 -0.3567  0.4853  1.3793
   55CHL1   H7B 6489   6.790   6.325   9.604 -0.5368 -0.0195 -0.0568
   55CHL1    C8 6490   6.574   6.323   9.570 -0.7045  0.7301 -0.3224
   55CHL1    H8 6491   6.503   6.408   9.581  0.7674  2.1606 -1.3007
   55CHL1   C14 6492   6.604   6.294   9.429 -0.5892 -0.0267 -0.5835
   55CHL1   H14 6493   6.682   6.215   9.426 -1.3165 -0.7230 -1.4513
   55CHL1   C15 6494   6.670   6.411   9.349 -0.6263 -0.9314  0.3091
   55CHL1  H15A 6495   6.597   6.495   9.352  0.3611 -0.0106 -0.6577
   55CHL1  H15B 6496   6.776   6.439   9.368 -0.4306  0.8297 -2.7627
   55CHL1   C16 6497   6.657   6.356   9.208 -0.0773  0.0977  0.5297
   55CHL1  H16A 6498   6.607   6.442   9.157 -3.9848 -0.9559  2.1926
   55CHL1  H16B 6499   6.755   6.348   9.157 -0.4709  0.3522 -0.2852
   55CHL1   C17 6500   6.566   6.226   9.205  0.3860  0.3413 -0.5171
   55CHL1   H17 6501   6.638   6.141   9.207  1.0742  0.9246  0.6360
   55CHL1   C13 6502   6.499   6.232   9.341 -0.2250  0.2628  0.0726
   55CHL1   C18 6503   6.388   6.336   9.331 -0.1627 -0.1954  0.0085
   55CHL1  H18A 6504   6.351   6.387   9.423 -0.0384 -1.9247  1.0659
   55CHL1  H18B 6505   6.411   6.421   9.264 -0.7391  0.3121  0.4357
   55CHL1  H18C 6506   6.307   6.279   9.281  0.6921 -0.6819 -0.8549
   55CHL1   C12 6507   6.457   6.098   9.398 -0.1333 -0.4596 -0.0118
   55CHL1  H12A 6508   6.367   6.057   9.347 -1.0911  1.3926  0.0935
   55CHL1  H12B 6509   6.541   6.027   9.384  0.7460  0.5819 -0.2068
   55CHL1   C11 6510   6.427   6.113   9.557  0.4033 -0.4222  0.8196
   55CHL1  H11A 6511   6.334   6.174   9.566  0.0342 -0.5499 -1.6374
   55CHL1  H11B 6512   6.405   6.010   9.593 -2.5567 -0.1807 -0.0476
   55CHL1    C9 6513   6.530   6.198   9.637  0.4810 -0.1080 -0.2141
   55CHL1    H9 6514   6.616   6.128   9.635 -2.2815 -3.8103  0.5083
   55CHL1   C10 6515   6.506   6.212   9.793 -0.1267  0.6326 -0.6592
   55CHL1   C19 6516   6.359   6.273   9.804  0.1435  0.3232  0.4467
   55CHL1  H19A 6517   6.361   6.371   9.753  0.5790  1.4456  2.5161
   55CHL1  H19B 6518   6.281   6.201   9.770  0.4304  0.0072  0.4446
   55CHL1  H19C 6519   6.332   6.313   9.904 -0.1017  0.7063  0.2284
   55CHL1    C1 6520   6.515   6.070   9.862 -0.1866  0.2501 -0.4826
   55CHL1   H1A 6521   6.448   5.990   9.825 -0.8631 -1.3057  3.5876
   55CHL1   H1B 6522   6.623   6.044   9.854  0.1714  1.0565  1.1835
   55CHL1    C2 6523   6.473   6.077  10.022 -0.4275 -0.4708  0.9118
   55CHL1   H2A 6524   6.470   5.979  10.074  0.0988  0.6183  3.0847
   55CHL1   H2B 6525   6.376   6.132  10.025 -1.0577 -1.3132 -1.5211
   55CHL1   C20 6526   6.481   6.217   9.071 -0.0322 -0.4180  1.0521
   55CHL1   H20 6527   6.412   6.302   9.054  0.7651 -0.5052 -4.1139
   55CHL1   C21 6528   6.389   6.093   9.076 -0.4703 -0.4343 -0.1036
   55CHL1  H21A 6529   6.304   6.106   9.146  1.1295  0.8882  1.6921
   55CHL1  H21B 6530   6.449   6.002   9.098  1.7759  1.4353  2.0303
   55CHL1  H21C 6531   6.339   6.086   8.976  0.5503  1.4065 -0.7884
   55CHL1   C22 6532   6.570   6.224   8.948 -0.1738  0.5423  0.3759
   55CHL1  H22A 6533   6.666   6.276   8.969 -0.5593  1.4015  0.0560
   55CHL1  H22B 6534   6.604   6.120   8.929  1.2864  1.0218  0.2469
   55CHL1   C23 6535   6.509   6.285   8.826 -0.0402  0.9935 -0.1210
   55CHL1  H23A 6536   6.400   6.263   8.819  0.0668  1.0033 -3.2521
   55CHL1  H23B 6537   6.514   6.395   8.843 -1.9265  1.3473 -1.4442
   55CHL1   C24 6538   6.592   6.258   8.706  0.3204 -0.4511  0.9881
   55CHL1  H24A 6539   6.693   6.302   8.718 -0.7078  2.2707  0.3365
   55CHL1  H24B 6540   6.605   6.148   8.696 -1.7544 -0.8257  1.8405
   55CHL1   C25 6541   6.527   6.302   8.568  0.6716 -0.5451  0.0355
   55CHL1   H25 6542   6.436   6.238   8.567  0.7294 -0.7961  2.8759
   55CHL1   C26 6543   6.486   6.452   8.555  0.6488 -0.1759 -0.4450
   55CHL1  H26A 6544   6.410   6.474   8.632  0.7268  0.8060 -0.6366
   55CHL1  H26B 6545   6.577   6.516   8.561  0.7057 -0.3380  0.5647
   55CHL1  H26C 6546   6.428   6.484   8.466  1.5774 -0.3473 -1.1373
   55CHL1   C27 6547   6.616   6.270   8.452 -0.3614 -0.2046  0.9894
   55CHL1  H27A 6548   6.574   6.301   8.354 -0.5810 -0.7279  0.9127
   55CHL1  H27B 6549   6.714   6.319   8.466 -0.9835  0.7548  2.2184
   55CHL1  H27C 6550   6.633   6.160   8.457 -0.3862 -0.3570 -1.2652
   56CHL1    C3 6551   4.037   3.834  10.100 -0.0226 -0.0676 -0.2072
   56CHL1    H3 6552   3.931   3.801  10.094 -0.2055  0.5767 -0.5235
   56CHL1    O3 6553   4.074   3.865  10.233  0.5469  0.4352  0.1027
   56CHL1   H3' 6554   4.029   3.803  10.290  1.3517  2.6376  3.4177
   56CHL1    C4 6555   4.126   3.725  10.034 -0.2738 -0.4371 -0.0386
   56CHL1   H4A 6556   4.229   3.765  10.031  0.4207 -2.1864 -1.0723
   56CHL1   H4B 6557   4.120   3.629  10.091 -2.6285 -0.1346  0.3442
   56CHL1    C5 6558   4.093   3.703   9.886  1.1611  0.6184  0.0847
   56CHL1    C6 6559   4.040   3.587   9.842  0.1454 -0.2122 -1.1305
   56CHL1    H6 6560   4.046   3.505   9.915  0.9011  0.1179 -0.8125
   56CHL1    C7 6561   3.996   3.563   9.701  0.1125  0.1185 -0.3628
   56CHL1   H7A 6562   4.037   3.470   9.656  0.8008  0.5495 -0.6463
   56CHL1   H7B 6563   3.885   3.559   9.700  0.0520  1.4038 -1.1852
   56CHL1    C8 6564   4.048   3.677   9.599 -0.6066 -0.3799 -0.3542
   56CHL1    H8 6565   4.157   3.672   9.581 -0.0039  0.3137  2.5356
   56CHL1   C14 6566   3.977   3.664   9.470 -0.2899 -0.1261  0.3301
   56CHL1   H14 6567   3.869   3.668   9.495 -0.7232 -0.8725 -1.2726
   56CHL1   C15 6568   3.983   3.525   9.392 -0.3018  0.3415 -0.1284
   56CHL1  H15A 6569   4.079   3.472   9.412 -1.8613 -1.7410  2.5567
   56CHL1  H15B 6570   3.906   3.464   9.444  2.6933  0.0601  4.6205
   56CHL1   C16 6571   3.954   3.561   9.248 -0.3862  0.2147  0.3157
   56CHL1  H16A 6572   4.035   3.533   9.178 -2.8190 -0.2930 -2.5224
   56CHL1  H16B 6573   3.861   3.507   9.220  0.3557  0.4685 -3.1379
   56CHL1   C17 6574   3.921   3.721   9.253 -0.2437  0.1708  0.7342
   56CHL1   H17 6575   3.816   3.730   9.288 -0.7106 -2.3587  0.1924
   56CHL1   C13 6576   4.007   3.773   9.371 -0.3586  0.2225 -0.0280
   56CHL1   C18 6577   4.153   3.804   9.317  1.0246  0.8412 -0.0413
   56CHL1  H18A 6578   4.196   3.710   9.277 -1.7493 -1.3592  1.7006
   56CHL1  H18B 6579   4.162   3.886   9.243 -3.9434  0.5285 -1.3457
   56CHL1  H18C 6580   4.216   3.825   9.406  2.2327 -0.0642 -0.6630
   56CHL1   C12 6581   3.944   3.909   9.424  0.1482  0.2375  0.4673
   56CHL1  H12A 6582   3.978   3.994   9.361  3.3256 -0.5364  0.9310
   56CHL1  H12B 6583   3.835   3.903   9.441 -0.0138  0.9981 -0.2694
   56CHL1   C11 6584   4.014   3.933   9.560  0.2168 -0.7752  0.3141
   56CHL1  H11A 6585   4.120   3.958   9.538  0.5414 -2.3964 -0.0496
   56CHL1  H11B 6586   3.965   4.024   9.601 -0.9770 -1.4426  0.4069
   56CHL1    C9 6587   4.006   3.812   9.662  0.6539  0.1307  0.7530
   56CHL1    H9 6588   3.897   3.795   9.680  0.1212  1.4199 -1.0098
   56CHL1   C10 6589   4.086   3.830   9.796 -0.3263  0.3928  0.0797
   56CHL1   C19 6590   4.231   3.881   9.769  0.0127  0.1408  0.2997
   56CHL1  H19A 6591   4.283   3.820   9.693 -0.2810 -0.7037  0.7673
   56CHL1  H19B 6592   4.222   3.985   9.731  1.5558 -0.2366 -1.1925
   56CHL1  H19C 6593   4.290   3.897   9.862 -1.5483 -1.2362  1.5686
   56CHL1    C1 6594   4.010   3.944   9.881 -0.3850  0.8140 -0.0772
   56CHL1   H1A 6595   4.030   4.044   9.837  1.0890  2.0373  3.0143
   56CHL1   H1B 6596   3.903   3.915   9.875 -0.3971  1.0466 -1.1535
   56CHL1    C2 6597   4.048   3.961  10.023  0.0501 -0.5504 -0.1999
   56CHL1   H2A 6598   3.999   4.053  10.063  0.8239  1.9195 -4.3168
   56CHL1   H2B 6599   4.155   3.990  10.030 -0.5223  1.2983  2.7878
   56CHL1   C20 6600   3.927   3.785   9.111 -0.0404  0.5374  0.0565
   56CHL1   H20 6601   4.031   3.778   9.072 -0.1318  0.2176 -0.1317
   56CHL1   C21 6602   3.891   3.928   9.122  0.3183  0.4258 -0.1641
   56CHL1  H21A 6603   3.978   3.990   9.152  2.2954 -2.7635  1.2466
   56CHL1  H21B 6604   3.812   3.943   9.199 -0.5297 -3.8562  0.0199
   56CHL1  H21C 6605   3.839   3.972   9.034 -1.9256 -3.0253 -0.7482
   56CHL1   C22 6606   3.821   3.712   9.026  0.6751  1.1202  0.7715
   56CHL1  H22A 6607   3.820   3.601   9.033 -0.4859  1.1930  2.3940
   56CHL1  H22B 6608   3.724   3.737   9.074  0.3196  0.6251  0.3331
   56CHL1   C23 6609   3.812   3.745   8.871  0.0969 -0.3798  0.1818
   56CHL1  H23A 6610   3.798   3.855   8.856 -3.4565 -0.6832  0.3339
   56CHL1  H23B 6611   3.906   3.724   8.816  1.3903  1.3156  1.6330
   56CHL1   C24 6612   3.696   3.671   8.805 -0.1736  0.4721 -0.8794
   56CHL1  H24A 6613   3.703   3.565   8.837 -1.3243  1.7117  4.2768
   56CHL1  H24B 6614   3.598   3.707   8.844 -0.7872 -2.2794  0.3860
   56CHL1   C25 6615   3.695   3.673   8.655  0.5401  0.2014  0.1722
   56CHL1   H25 6616   3.666   3.773   8.616  0.9479 -0.2276 -1.2883
   56CHL1   C26 6617   3.830   3.626   8.597 -0.1241 -0.1906 -0.0267
   56CHL1  H26A 6618   3.821   3.619   8.487  0.3460  1.2884 -0.1850
   56CHL1  H26B 6619   3.905   3.706   8.615 -0.0231 -0.6075  1.5423
   56CHL1  H26C 6620   3.851   3.525   8.638  0.5877 -0.8182 -1.8709
   56CHL1   C27 6621   3.567   3.592   8.604  0.1536 -0.4324 -1.0257
   56CHL1  H27A 6622   3.576   3.484   8.630  1.4517  0.0798  0.8488
   56CHL1  H27B 6623   3.478   3.634   8.654  1.4416 -0.6330  1.6499
   56CHL1  H27C 6624   3.565   3.594   8.493  0.4254  1.3631 -1.0200
   57CHL1    C3 6625   6.368   0.024  10.067 -0.7667 -0.9717 -0.1429
   57CHL1    H3 6626   6.267   0.070  10.066  0.4236  1.9927 -3.1431
   57CHL1    O3 6627   6.395  -0.012  10.201 -0.3847 -0.0429  0.4077
   57CHL1   H3' 6628   6.431   0.071  10.231  0.4801 -0.9570  2.0291
   57CHL1    C4 6629   6.384  -0.093   9.977 -0.2355 -0.8968 -0.4978
   57CHL1   H4A 6630   6.473  -0.149  10.012  1.2929  0.7581 -1.5444
   57CHL1   H4B 6631   6.291  -0.148  10.003 -0.3826 -0.0819  0.8176
   57CHL1    C5 6632   6.406  -0.069   9.828 -0.3095 -1.0424  0.3002
   57CHL1    C6 6633   6.339  -0.138   9.732 -1.3266 -0.0495 -1.2214
   57CHL1    H6 6634   6.272  -0.215   9.773  1.9943 -0.7826  3.6471
   57CHL1    C7 6635   6.348  -0.114   9.591  0.0745 -0.5900  0.9984
   57CHL1   H7A 6636   6.359  -0.205   9.528  2.6116  1.3290 -1.6024
   57CHL1   H7B 6637   6.247  -0.080   9.559 -0.1330 -0.3120  1.9152
   57CHL1    C8 6638   6.464  -0.018   9.547  0.0159  0.1470 -0.6246
   57CHL1    H8 6639   6.557  -0.076   9.564 -0.2373  0.0871  0.6906
   57CHL1   C14 6640   6.442   0.025   9.405  0.2874 -0.1418  0.0940
   57CHL1   H14 6641   6.360   0.099   9.402  1.1083  0.7574 -2.1642
   57CHL1   C15 6642   6.430  -0.081   9.294  0.5452  0.0577  0.7404
   57CHL1  H15A 6643   6.520  -0.145   9.301  0.9974  0.3228 -1.8563
   57CHL1  H15B 6644   6.338  -0.138   9.318 -0.2992  1.0314 -0.0729
   57CHL1   C16 6645   6.428   0.001   9.166 -0.0043  0.1816 -0.6115
   57CHL1  H16A 6646   6.469  -0.057   9.081  2.5097  0.5730  0.2676
   57CHL1  H16B 6647   6.324   0.030   9.138 -0.1633 -0.7799 -1.0457
   57CHL1   C17 6648   6.510   0.131   9.205 -0.0603  0.4633 -0.1726
   57CHL1   H17 6649   6.437   0.214   9.215  0.3434  0.6971  1.0320
   57CHL1   C13 6650   6.561   0.110   9.352 -0.1930 -0.5324  0.0747
   57CHL1   C18 6651   6.697   0.035   9.340 -0.3148 -0.0618 -0.4187
   57CHL1  H18A 6652   6.685  -0.048   9.268 -1.8589 -0.6900  0.5159
   57CHL1  H18B 6653   6.778   0.104   9.307 -0.4268  0.5559  0.5528
   57CHL1  H18C 6654   6.726  -0.010   9.438  2.2475 -1.4906 -1.7290
   57CHL1   C12 6655   6.563   0.234   9.444  0.0311  0.1194 -1.0098
   57CHL1  H12A 6656   6.637   0.312   9.416  1.6877  0.0483  2.5887
   57CHL1  H12B 6657   6.467   0.288   9.432 -0.0452 -0.1041 -1.4182
   57CHL1   C11 6658   6.584   0.190   9.589  0.4696 -0.7693  0.1761
   57CHL1  H11A 6659   6.690   0.157   9.595  0.6624  0.0731  3.3420
   57CHL1  H11B 6660   6.588   0.286   9.645 -2.5712 -1.7341  2.3434
   57CHL1    C9 6661   6.474   0.102   9.647  0.2005  0.3364  0.0558
   57CHL1    H9 6662   6.381   0.161   9.639  1.5454  2.4680 -0.7876
   57CHL1   C10 6663   6.494   0.053   9.794 -0.8360  0.1783  0.0183
   57CHL1   C19 6664   6.649   0.025   9.816  0.1553  0.0486  0.3623
   57CHL1  H19A 6665   6.713   0.113   9.797  0.5916 -0.3423  0.0037
   57CHL1  H19B 6666   6.669  -0.012   9.919 -1.5958 -4.0118 -0.5461
   57CHL1  H19C 6667   6.684  -0.053   9.745 -0.3163 -0.6832  0.9180
   57CHL1    C1 6668   6.458   0.174   9.880 -0.5668 -0.2392 -0.1727
   57CHL1   H1A 6669   6.509   0.266   9.845 -2.3201  0.7002 -0.3279
   57CHL1   H1B 6670   6.353   0.202   9.856 -0.0630  0.2315 -1.9648
   57CHL1    C2 6671   6.462   0.142  10.031 -0.3127 -0.3462  0.3087
   57CHL1   H2A 6672   6.433   0.239  10.077  2.3578 -0.6022  2.8004
   57CHL1   H2B 6673   6.564   0.114  10.066 -0.9253 -2.5311  0.4605
   57CHL1   C20 6674   6.615   0.171   9.099 -0.2830  0.3937  0.8093
   57CHL1   H20 6675   6.690   0.090   9.090 -3.3435 -2.6128  0.0014
   57CHL1   C21 6676   6.685   0.308   9.132 -0.4818  0.5835  0.0579
   57CHL1  H21A 6677   6.608   0.387   9.117 -0.6591  0.1816 -1.3263
   57CHL1  H21B 6678   6.765   0.322   9.056  0.3882 -1.3155  0.5678
   57CHL1  H21C 6679   6.728   0.308   9.234 -1.5001 -0.8014  0.5126
   57CHL1   C22 6680   6.551   0.188   8.955  0.5252  0.5375  0.2207
   57CHL1  H22A 6681   6.502   0.091   8.934 -0.1736  0.4298  2.1716
   57CHL1  H22B 6682   6.484   0.277   8.961 -0.2478  0.0005 -0.3718
   57CHL1   C23 6683   6.656   0.232   8.846  0.3011  0.3936 -0.2873
   57CHL1  H23A 6684   6.610   0.231   8.745  0.5231  1.0988 -0.4018
   57CHL1  H23B 6685   6.687   0.336   8.868 -0.4307  0.6439 -0.4102
   57CHL1   C24 6686   6.777   0.138   8.840  0.3218  0.4221  0.1372
   57CHL1  H24A 6687   6.832   0.119   8.935 -0.4868  0.0627  0.5415
   57CHL1  H24B 6688   6.730   0.039   8.820 -0.4812  0.6415  0.8813
   57CHL1   C25 6689   6.884   0.171   8.734  0.2721  0.4385  0.6286
   57CHL1   H25 6690   6.827   0.194   8.641  1.0472  1.6943  0.4380
   57CHL1   C26 6691   6.968   0.290   8.778 -0.1996 -0.5679 -0.1329
   57CHL1  H26A 6692   7.041   0.331   8.705 -0.0312 -0.6190  0.0025
   57CHL1  H26B 6693   6.901   0.374   8.804 -0.4314 -0.9056  0.3794
   57CHL1  H26C 6694   7.012   0.274   8.879 -2.9381  0.5649  1.3413
   57CHL1   C27 6695   6.979   0.057   8.700 -0.2444 -0.8277 -0.5133
   57CHL1  H27A 6696   7.048   0.071   8.614  1.3807 -2.3512  0.4497
   57CHL1  H27B 6697   7.036   0.035   8.794 -0.1582 -0.6807 -0.5320
   57CHL1  H27C 6698   6.913  -0.029   8.675 -1.5306  0.1813 -0.6612
   58CHL1    C3 6699   2.260   3.863  10.038  0.4317  0.2501  0.1071
   58CHL1    H3 6700   2.158   3.888  10.004  0.3432  0.1683  0.3126
   58CHL1    O3 6701   2.289   3.906  10.172  0.3266 -0.3202 -0.1905
   58CHL1   H3' 6702   2.280   3.822  10.219  0.6119 -0.7032 -0.8035
   58CHL1    C4 6703   2.273   3.706  10.029 -0.1557  0.3531 -0.2748
   58CHL1   H4A 6704   2.372   3.681  10.073  1.4534  2.0922 -2.6229
   58CHL1   H4B 6705   2.199   3.656  10.095  0.4937 -0.1904  0.0468
   58CHL1    C5 6706   2.287   3.644   9.889  0.3987 -0.2082 -0.0442
   58CHL1    C6 6707   2.207   3.540   9.862 -0.8232 -0.0416 -0.1673
   58CHL1    H6 6708   2.152   3.492   9.944  0.2935 -1.8658 -0.4316
   58CHL1    C7 6709   2.192   3.477   9.728  0.1514  0.2928  0.2103
   58CHL1   H7A 6710   2.194   3.367   9.743  1.6334  0.5035  1.8844
   58CHL1   H7B 6711   2.091   3.505   9.691 -0.6196 -3.3450 -0.8094
   58CHL1    C8 6712   2.295   3.524   9.620 -0.2212 -0.0365  0.2289
   58CHL1    H8 6713   2.395   3.481   9.643 -1.7113 -2.7610  2.1241
   58CHL1   C14 6714   2.245   3.491   9.478 -0.2190 -0.1142 -0.2726
   58CHL1   H14 6715   2.153   3.551   9.457  0.1324  0.2128 -0.9271
   58CHL1   C15 6716   2.177   3.350   9.455  0.2476 -0.3833 -0.1916
   58CHL1  H15A 6717   2.242   3.274   9.502  0.5981  0.5987  0.9675
   58CHL1  H15B 6718   2.072   3.349   9.491  0.5958 -3.0319  0.9077
   58CHL1   C16 6719   2.187   3.340   9.300 -0.2488  0.3755 -0.0461
   58CHL1  H16A 6720   2.252   3.256   9.267 -1.3009  0.4609 -2.5687
   58CHL1  H16B 6721   2.085   3.341   9.257  0.0217 -1.4523 -0.8156
   58CHL1   C17 6722   2.263   3.468   9.241  0.5033  0.1561  0.1130
   58CHL1   H17 6723   2.182   3.544   9.232 -0.1801 -0.7218 -1.6032
   58CHL1   C13 6724   2.336   3.526   9.368  0.1636  0.6672  0.3203
   58CHL1   C18 6725   2.474   3.457   9.394  0.1647 -0.4862  0.0633
   58CHL1  H18A 6726   2.543   3.467   9.307 -1.5363 -2.6514 -1.6539
   58CHL1  H18B 6727   2.520   3.493   9.488  1.0717 -0.0211 -0.5422
   58CHL1  H18C 6728   2.479   3.346   9.405  0.0040 -0.6751 -1.4780
   58CHL1   C12 6729   2.346   3.684   9.360  0.0744 -0.1954 -0.4942
   58CHL1  H12A 6730   2.425   3.706   9.284  0.0567 -0.1850 -0.5099
   58CHL1  H12B 6731   2.252   3.728   9.321 -0.4499 -1.0981 -0.2899
   58CHL1   C11 6732   2.390   3.741   9.501 -0.0837 -0.3339  0.8036
   58CHL1  H11A 6733   2.498   3.718   9.506 -0.1181 -1.2694 -1.6389
   58CHL1  H11B 6734   2.381   3.852   9.500 -0.1848 -0.3437  0.0180
   58CHL1    C9 6735   2.314   3.682   9.630  0.1039  0.0648  0.2363
   58CHL1    H9 6736   2.209   3.719   9.619 -0.7167 -2.3771 -0.7438
   58CHL1   C10 6737   2.358   3.725   9.772  0.4389 -0.0149 -0.8764
   58CHL1   C19 6738   2.514   3.712   9.784  0.2185 -0.1618  0.3598
   58CHL1  H19A 6739   2.552   3.799   9.725  0.0813 -1.1899 -1.3259
   58CHL1  H19B 6740   2.557   3.705   9.886  2.8886  0.4850 -0.6405
   58CHL1  H19C 6741   2.534   3.614   9.736  2.1441  0.3727  0.0222
   58CHL1    C1 6742   2.315   3.874   9.800  0.0369 -0.2096  0.5078
   58CHL1   H1A 6743   2.363   3.937   9.723  0.5023 -0.4503  0.5949
   58CHL1   H1B 6744   2.204   3.879   9.795 -0.1696 -1.6359  2.3983
   58CHL1    C2 6745   2.348   3.933   9.933  0.4788 -0.6362  0.0170
   58CHL1   H2A 6746   2.345   4.044   9.940  1.0469 -0.5848 -0.4623
   58CHL1   H2B 6747   2.452   3.912   9.965 -0.4119 -0.8855  2.9883
   58CHL1   C20 6748   2.322   3.438   9.105  0.3292 -0.2303 -0.9195
   58CHL1   H20 6749   2.397   3.357   9.110  0.2060 -0.4663 -2.4024
   58CHL1   C21 6750   2.386   3.568   9.054  0.1657  0.4381 -0.2696
   58CHL1  H21A 6751   2.456   3.620   9.122  0.0302 -0.8610  0.9112
   58CHL1  H21B 6752   2.305   3.640   9.028  0.4067  0.1370 -1.9848
   58CHL1  H21C 6753   2.439   3.555   8.957  0.5378  1.8648 -0.2729
   58CHL1   C22 6754   2.218   3.386   9.001 -0.6642  0.0956  0.2541
   58CHL1  H22A 6755   2.182   3.289   9.044  2.1232 -2.0757 -1.9023
   58CHL1  H22B 6756   2.141   3.465   8.997 -0.9844 -0.2469 -0.4175
   58CHL1   C23 6757   2.267   3.360   8.864  0.3624  0.4345 -0.0586
   58CHL1  H23A 6758   2.297   3.456   8.816 -0.2186  0.7068  0.1105
   58CHL1  H23B 6759   2.363   3.304   8.865 -0.9469 -1.9972 -2.0619
   58CHL1   C24 6760   2.177   3.274   8.779  0.0964 -0.4701 -0.2439
   58CHL1  H24A 6761   2.142   3.184   8.833 -0.1154 -0.9863 -1.2244
   58CHL1  H24B 6762   2.093   3.344   8.755 -0.1316  0.0656  1.8959
   58CHL1   C25 6763   2.243   3.214   8.649  0.4085 -0.2524 -0.0204
   58CHL1   H25 6764   2.320   3.139   8.677  2.9697  2.8403  1.9963
   58CHL1   C26 6765   2.121   3.150   8.582  0.2516 -0.9643 -0.7569
   58CHL1  H26A 6766   2.139   3.103   8.483 -0.1908 -2.4069 -0.1744
   58CHL1  H26B 6767   2.071   3.078   8.650 -0.7901 -0.7990 -1.3148
   58CHL1  H26C 6768   2.038   3.216   8.548 -0.4616 -2.9813 -3.2609
   58CHL1   C27 6769   2.289   3.330   8.565 -0.4895 -0.6901  0.9112
   58CHL1  H27A 6770   2.211   3.404   8.538  1.0854  0.4325 -0.7627
   58CHL1  H27B 6771   2.370   3.393   8.607 -1.4761  2.7413 -1.8710
   58CHL1  H27C 6772   2.331   3.293   8.469  0.8009  0.2388  1.0946
   59CHL1    C3 6773   2.478   4.621  10.389 -0.2586  0.3668  1.1576
   59CHL1    H3 6774   2.532   4.708  10.434  0.1541  0.7955 -0.1265
   59CHL1    O3 6775   2.413   4.542  10.486  0.4544 -0.6834 -0.3136
   59CHL1   H3' 6776   2.368   4.476  10.433 -2.3516  0.8487  0.0065
   59CHL1    C4 6777   2.361   4.666  10.299 -0.5560 -0.6413 -0.4023
   59CHL1   H4A 6778   2.312   4.572  10.265 -0.9879 -1.1036  1.4269
   59CHL1   H4B 6779   2.284   4.722  10.355 -2.2290  0.6546 -3.7143
   59CHL1    C5 6780   2.406   4.752  10.178  0.0489 -0.2965 -0.5149
   59CHL1    C6 6781   2.367   4.881  10.169 -0.1891 -0.4678 -0.1362
   59CHL1    H6 6782   2.309   4.931  10.248 -1.5930 -2.4452  0.1561
   59CHL1    C7 6783   2.414   4.967  10.052  0.1949 -0.3840  0.0388
   59CHL1   H7A 6784   2.327   5.024  10.013  1.1552  0.3082 -1.1670
   59CHL1   H7B 6785   2.491   5.037  10.092 -0.4656 -0.2413  1.1114
   59CHL1    C8 6786   2.470   4.889   9.934 -0.2796  0.0785 -0.0737
   59CHL1    H8 6787   2.393   4.829   9.881  1.4947 -0.1315 -2.5921
   59CHL1   C14 6788   2.546   4.988   9.835  1.0247  0.1788 -0.4146
   59CHL1   H14 6789   2.625   5.033   9.898  0.9392  2.1601 -1.6520
   59CHL1   C15 6790   2.468   5.110   9.781  0.0754 -0.0729 -0.5745
   59CHL1  H15A 6791   2.369   5.066   9.756  0.0335 -1.2074  1.3949
   59CHL1  H15B 6792   2.435   5.193   9.848 -2.0487 -2.0437  1.0231
   59CHL1   C16 6793   2.537   5.153   9.656 -0.4320  0.2182 -0.8292
   59CHL1  H16A 6794   2.453   5.148   9.583 -1.8508 -2.0258  0.8021
   59CHL1  H16B 6795   2.585   5.253   9.650 -0.7580  0.3714 -0.8499
   59CHL1   C17 6796   2.649   5.049   9.625 -0.4913  0.8874 -0.0219
   59CHL1   H17 6797   2.735   5.107   9.666  0.1832 -1.5369  2.2730
   59CHL1   C13 6798   2.613   4.924   9.718 -0.1277  0.3374  0.8586
   59CHL1   C18 6799   2.505   4.842   9.644  0.4389  0.1047 -0.0552
   59CHL1  H18A 6800   2.463   4.764   9.711 -0.8834  2.0712  1.5476
   59CHL1  H18B 6801   2.427   4.908   9.601  1.7577  1.1030 -0.9820
   59CHL1  H18C 6802   2.563   4.793   9.564  2.4131  2.7147 -0.3682
   59CHL1   C12 6803   2.720   4.825   9.772 -0.5702  0.0323  0.2247
   59CHL1  H12A 6804   2.755   4.765   9.685 -1.6284  1.4388 -1.2162
   59CHL1  H12B 6805   2.802   4.887   9.814 -0.6259 -0.2272  0.7277
   59CHL1   C11 6806   2.668   4.728   9.876 -0.0141  0.3123  0.1947
   59CHL1  H11A 6807   2.617   4.648   9.818  0.5105  0.2147 -0.1391
   59CHL1  H11B 6808   2.760   4.675   9.909 -0.7502 -1.5972 -0.6325
   59CHL1    C9 6809   2.575   4.787   9.983 -0.2566  0.4681 -0.8672
   59CHL1    H9 6810   2.644   4.853  10.038 -0.1824  0.5906 -1.1039
   59CHL1   C10 6811   2.506   4.693  10.082 -0.0177  0.7889  0.1903
   59CHL1   C19 6812   2.437   4.576  10.002 -0.9278 -0.7119  0.7893
   59CHL1  H19A 6813   2.367   4.516  10.064 -0.1338  1.5330  4.1507
   59CHL1  H19B 6814   2.376   4.619   9.919 -1.1630 -1.7696  0.4006
   59CHL1  H19C 6815   2.515   4.508   9.962  0.8213  1.2357  0.7573
   59CHL1    C1 6816   2.616   4.633  10.174 -0.0958  0.0400 -0.6719
   59CHL1   H1A 6817   2.688   4.574  10.113  1.4282  0.1234  0.9867
   59CHL1   H1B 6818   2.668   4.723  10.213 -0.7817  0.5201 -0.8499
   59CHL1    C2 6819   2.574   4.544  10.294  0.8731 -0.2923 -0.7060
   59CHL1   H2A 6820   2.669   4.519  10.346  0.6089 -0.2620 -0.2035
   59CHL1   H2B 6821   2.525   4.451  10.259 -0.9475  0.1589  0.4852
   59CHL1   C20 6822   2.684   5.021   9.483  0.3847 -0.0211  0.4311
   59CHL1   H20 6823   2.611   4.947   9.445 -0.3414 -0.2580  2.2113
   59CHL1   C21 6824   2.819   4.949   9.471 -0.4102  0.2740  0.2254
   59CHL1  H21A 6825   2.838   4.885   9.559 -0.0217  3.1656  2.4136
   59CHL1  H21B 6826   2.905   5.020   9.471  1.5210 -1.9256  1.5199
   59CHL1  H21C 6827   2.814   4.898   9.373  1.5423  1.5349 -0.6086
   59CHL1   C22 6828   2.687   5.144   9.390  0.6260 -0.1326 -0.8284
   59CHL1  H22A 6829   2.597   5.209   9.395  0.2286 -0.7069 -0.3755
   59CHL1  H22B 6830   2.766   5.216   9.421  2.0448 -1.9288 -0.0510
   59CHL1   C23 6831   2.719   5.096   9.248 -0.3998  0.2563  0.3087
   59CHL1  H23A 6832   2.822   5.055   9.249 -0.7859 -0.7358  0.9566
   59CHL1  H23B 6833   2.665   5.001   9.230  1.2207 -0.6974  0.3364
   59CHL1   C24 6834   2.701   5.207   9.140 -0.1382 -0.8851  0.3549
   59CHL1  H24A 6835   2.610   5.267   9.158  0.7774  0.4796  0.6238
   59CHL1  H24B 6836   2.786   5.275   9.165  0.1593 -0.8190 -0.7626
   59CHL1   C25 6837   2.723   5.148   8.995 -0.0459 -0.2601  0.3861
   59CHL1   H25 6838   2.629   5.092   8.977  0.1524 -1.0398  1.6172
   59CHL1   C26 6839   2.712   5.264   8.890 -0.3536  1.2458 -0.2896
   59CHL1  H26A 6840   2.629   5.331   8.920  0.0844  0.3933  3.2277
   59CHL1  H26B 6841   2.802   5.329   8.878  0.6565  0.3060  1.8155
   59CHL1  H26C 6842   2.693   5.222   8.788 -1.4069  0.4664  0.2072
   59CHL1   C27 6843   2.853   5.058   8.968  0.0509 -0.3772  0.1095
   59CHL1  H27A 6844   2.849   5.017   8.864  2.0084 -0.8737  0.1935
   59CHL1  H27B 6845   2.944   5.121   8.963  0.4116 -0.8953  0.0906
   59CHL1  H27C 6846   2.875   4.973   9.036 -0.6999  0.6080  1.6434
   60CHL1    C3 6847   1.433   3.213  10.270 -0.8153  0.4597 -0.3485
   60CHL1    H3 6848   1.537   3.239  10.243 -0.2629 -2.4986 -1.4323
   60CHL1    O3 6849   1.420   3.208  10.413  0.0794 -0.4915 -0.0268
   60CHL1   H3' 6850   1.330   3.179  10.429 -1.0157  1.4101 -2.2201
   60CHL1    C4 6851   1.336   3.320  10.218  0.2135  0.4909 -0.3186
   60CHL1   H4A 6852   1.241   3.299  10.272 -0.7281  0.3766 -1.9578
   60CHL1   H4B 6853   1.371   3.420  10.253  0.5555  0.3385 -0.2210
   60CHL1    C5 6854   1.313   3.318  10.067  0.8660 -0.4287  0.8649
   60CHL1    C6 6855   1.318   3.438  10.001  1.1571 -0.1295  0.1486
   60CHL1    H6 6856   1.330   3.529  10.061 -3.2216  0.5750  0.3268
   60CHL1    C7 6857   1.294   3.446   9.858  0.5794  0.9968  0.4118
   60CHL1   H7A 6858   1.224   3.527   9.829  1.3938  1.0202 -1.7024
   60CHL1   H7B 6859   1.394   3.475   9.817 -0.3483  0.1293 -2.7482
   60CHL1    C8 6860   1.248   3.311   9.789 -0.2380  0.5389 -0.1671
   60CHL1    H8 6861   1.138   3.317   9.799 -0.6899 -1.8871 -2.6130
   60CHL1   C14 6862   1.294   3.306   9.641 -0.2302  0.1844 -0.0136
   60CHL1   H14 6863   1.401   3.279   9.651  0.3173  2.6217  1.4723
   60CHL1   C15 6864   1.277   3.432   9.552 -0.6989  0.3140 -0.4057
   60CHL1  H15A 6865   1.176   3.473   9.573 -0.8255 -0.6142  0.9021
   60CHL1  H15B 6866   1.357   3.509   9.563  2.8305 -3.0087 -0.9338
   60CHL1   C16 6867   1.280   3.381   9.408  0.0702  0.8352 -0.2870
   60CHL1  H16A 6868   1.192   3.406   9.345  0.2211 -2.7646 -2.2060
   60CHL1  H16B 6869   1.370   3.425   9.359 -1.3913  1.8343 -2.1808
   60CHL1   C17 6870   1.290   3.223   9.428 -0.2330 -1.4692 -0.2310
   60CHL1   H17 6871   1.400   3.209   9.430 -0.1260 -0.6305  0.2092
   60CHL1   C13 6872   1.230   3.190   9.569 -0.4420  0.0707 -0.6315
   60CHL1   C18 6873   1.082   3.185   9.582 -0.0242  0.1679  0.3603
   60CHL1  H18A 6874   1.038   3.262   9.515  1.1064 -0.0558 -0.6634
   60CHL1  H18B 6875   1.045   3.083   9.560 -1.5304  1.0946 -1.6885
   60CHL1  H18C 6876   1.052   3.194   9.689  1.1721  0.2297  0.6967
   60CHL1   C12 6877   1.288   3.060   9.641 -0.1628 -0.3986  0.3190
   60CHL1  H12A 6878   1.226   2.987   9.586 -1.3899  0.7270  0.1527
   60CHL1  H12B 6879   1.394   3.045   9.609  0.0920  1.0691  0.3662
   60CHL1   C11 6880   1.261   3.054   9.789 -0.4741 -0.0884  0.0326
   60CHL1  H11A 6881   1.153   3.048   9.815  0.0919 -0.7729  2.4287
   60CHL1  H11B 6882   1.312   2.967   9.835 -1.7896 -1.1714 -0.4755
   60CHL1    C9 6883   1.303   3.184   9.861  0.1144 -0.9594 -0.1120
   60CHL1    H9 6884   1.412   3.196   9.839  0.2130  0.8373  1.0967
   60CHL1   C10 6885   1.287   3.178  10.006  0.6167  0.1331 -0.6046
   60CHL1   C19 6886   1.129   3.157  10.034 -0.7894 -0.2437 -0.0071
   60CHL1  H19A 6887   1.114   3.174  10.143 -0.1587  4.0669 -0.4262
   60CHL1  H19B 6888   1.064   3.221   9.970 -1.7380  0.9152  1.9954
   60CHL1  H19C 6889   1.107   3.049  10.019 -1.6085  0.0548 -1.0592
   60CHL1    C1 6890   1.381   3.070  10.069  0.1050  0.6023 -0.1510
   60CHL1   H1A 6891   1.366   2.967  10.033 -1.1174  0.4477  0.7570
   60CHL1   H1B 6892   1.487   3.086  10.037  0.5969 -2.2263 -0.1188
   60CHL1    C2 6893   1.389   3.079  10.224  0.2296  0.1569  0.3132
   60CHL1   H2A 6894   1.458   3.000  10.259  1.1125  1.2316  1.0514
   60CHL1   H2B 6895   1.289   3.054  10.266 -0.3874 -0.2746 -1.3022
   60CHL1   C20 6896   1.240   3.152   9.304 -0.4600  0.0566 -0.3400
   60CHL1   H20 6897   1.133   3.179   9.297 -0.8757 -1.4524 -0.2615
   60CHL1   C21 6898   1.242   2.995   9.321  0.4298 -0.8309  0.0542
   60CHL1  H21A 6899   1.164   2.960   9.393  0.4561 -3.9504 -1.2676
   60CHL1  H21B 6900   1.346   2.966   9.348  1.2319 -1.4375 -3.2306
   60CHL1  H21C 6901   1.227   2.939   9.226  2.1283  0.1411 -0.8313
   60CHL1   C22 6902   1.310   3.196   9.175  0.1420 -0.0597 -0.8076
   60CHL1  H22A 6903   1.324   3.307   9.172 -0.0577  0.1943  3.1974
   60CHL1  H22B 6904   1.413   3.154   9.180 -0.2385 -1.0639 -1.1617
   60CHL1   C23 6905   1.235   3.160   9.044 -0.2145  0.3422  0.0581
   60CHL1  H23A 6906   1.255   3.055   9.012 -0.3913 -0.2021  1.6436
   60CHL1  H23B 6907   1.128   3.186   9.060 -0.7556 -0.6494 -1.6496
   60CHL1   C24 6908   1.286   3.252   8.936 -0.1944  0.0967 -0.2546
   60CHL1  H24A 6909   1.286   3.356   8.976 -0.5281 -0.0109  0.0395
   60CHL1  H24B 6910   1.392   3.222   8.920 -0.2168  1.4389 -3.4437
   60CHL1   C25 6911   1.218   3.244   8.802 -0.6384 -0.0982  0.6679
   60CHL1   H25 6912   1.109   3.261   8.810 -0.5571  1.6278 -1.1800
   60CHL1   C26 6913   1.284   3.340   8.700  0.4776 -0.0941  0.4210
   60CHL1  H26A 6914   1.233   3.326   8.602  1.5176 -2.1544  0.1213
   60CHL1  H26B 6915   1.292   3.445   8.733  2.2993 -0.6840  2.0250
   60CHL1  H26C 6916   1.389   3.303   8.687  0.5540  0.1377  0.3731
   60CHL1   C27 6917   1.235   3.104   8.741 -0.5904 -0.6600  0.7413
   60CHL1  H27A 6918   1.336   3.083   8.700  0.2801  3.1032  0.6232
   60CHL1  H27B 6919   1.194   3.017   8.797 -0.1181 -0.9423  0.6554
   60CHL1  H27C 6920   1.178   3.106   8.645  1.0993 -0.9768 -0.3151
   61CHL1    C3 6921   5.601   2.148  10.206 -0.0291 -0.2403  0.2557
   61CHL1    H3 6922   5.617   2.039  10.195  1.0899 -0.1322  0.6913
   61CHL1    O3 6923   5.582   2.173  10.343  0.0268  0.1619  0.2369
   61CHL1   H3' 6924   5.629   2.252  10.369  1.3588 -0.9883  1.4820
   61CHL1    C4 6925   5.728   2.220  10.161 -0.1231 -0.4343  0.7558
   61CHL1   H4A 6926   5.721   2.328  10.189  0.0535 -0.4891  1.0169
   61CHL1   H4B 6927   5.817   2.180  10.215  0.0883 -1.3348 -0.2324
   61CHL1    C5 6928   5.742   2.206  10.010  0.5964 -0.0700  0.4654
   61CHL1    C6 6929   5.852   2.146   9.961  0.1433 -1.0611 -0.2291
   61CHL1    H6 6930   5.925   2.102  10.030  0.0093 -0.7025  0.1494
   61CHL1    C7 6931   5.890   2.138   9.813  0.5334 -0.3427  0.0200
   61CHL1   H7A 6932   5.993   2.179   9.805  1.4178 -2.0706  1.6265
   61CHL1   H7B 6933   5.897   2.032   9.779 -0.6266 -0.7378  0.9507
   61CHL1    C8 6934   5.786   2.215   9.717 -0.4274  0.1944 -0.3500
   61CHL1    H8 6935   5.809   2.324   9.717  1.7992 -0.2383  0.2053
   61CHL1   C14 6936   5.785   2.158   9.575  0.1531 -0.0454 -0.6869
   61CHL1   H14 6937   5.750   2.053   9.585  0.3056 -0.1646 -1.3436
   61CHL1   C15 6938   5.920   2.160   9.501 -0.3601  0.5717  0.1087
   61CHL1  H15A 6939   5.960   2.262   9.518  1.6891 -0.2494  0.4545
   61CHL1  H15B 6940   5.984   2.078   9.538 -1.3892 -0.0358  0.5959
   61CHL1   C16 6941   5.876   2.145   9.353  0.4863 -0.0185 -0.8289
   61CHL1  H16A 6942   5.910   2.238   9.303 -4.2465  1.0808 -2.5234
   61CHL1  H16B 6943   5.916   2.053   9.303 -0.4199 -0.0073 -1.6056
   61CHL1   C17 6944   5.722   2.159   9.348 -0.5121  0.3476  0.2522
   61CHL1   H17 6945   5.685   2.055   9.350  0.9295 -0.1810  2.4901
   61CHL1   C13 6946   5.685   2.226   9.486 -0.1266 -0.5336 -0.6356
   61CHL1   C18 6947   5.711   2.379   9.474 -0.1316 -0.1239 -0.0802
   61CHL1  H18A 6948   5.801   2.405   9.413 -0.7825  0.9705 -0.6044
   61CHL1  H18B 6949   5.619   2.413   9.423  1.3946  0.5807 -2.5435
   61CHL1  H18C 6950   5.710   2.432   9.571 -1.2673  0.4876 -0.4113
   61CHL1   C12 6951   5.546   2.195   9.538 -1.1196  0.6224 -0.6231
   61CHL1  H12A 6952   5.467   2.249   9.482 -2.0002  1.2787  1.1726
   61CHL1  H12B 6953   5.532   2.085   9.539 -0.4291  0.5233 -0.7779
   61CHL1   C11 6954   5.533   2.250   9.684  0.4918 -0.0010  0.2589
   61CHL1  H11A 6955   5.519   2.359   9.670 -0.3095  0.1235  1.8183
   61CHL1  H11B 6956   5.433   2.215   9.719  0.2248  0.1933 -0.2832
   61CHL1    C9 6957   5.639   2.196   9.781 -0.3252  0.7391 -0.1475
   61CHL1    H9 6958   5.620   2.087   9.796  0.8964  0.4507 -0.5787
   61CHL1   C10 6959   5.623   2.252   9.928 -0.0848  0.5716 -0.0947
   61CHL1   C19 6960   5.602   2.407   9.923  0.3909 -0.0813 -0.6436
   61CHL1  H19A 6961   5.684   2.460   9.869  1.6568 -0.3259  0.9658
   61CHL1  H19B 6962   5.503   2.435   9.883 -0.4378  0.1110  1.4354
   61CHL1  H19C 6963   5.612   2.448  10.025  3.1515 -0.2292 -0.7650
   61CHL1    C1 6964   5.488   2.196   9.986  0.0579  0.3677 -0.5522
   61CHL1   H1A 6965   5.405   2.241   9.927  1.6047  1.6425 -1.8596
   61CHL1   H1B 6966   5.486   2.090   9.956 -0.9950  1.4115 -4.8117
   61CHL1    C2 6967   5.477   2.204  10.138  0.3001  0.5821 -0.0594
   61CHL1   H2A 6968   5.385   2.155  10.178 -0.4832  2.5498  0.6991
   61CHL1   H2B 6969   5.459   2.312  10.158 -3.9892  0.3166 -1.4590
   61CHL1   C20 6970   5.672   2.220   9.218 -0.2862 -0.3013 -0.3249
   61CHL1   H20 6971   5.722   2.319   9.213 -1.7202  0.4636 -0.1453
   61CHL1   C21 6972   5.515   2.234   9.216  0.2474 -0.5862 -0.0680
   61CHL1  H21A 6973   5.475   2.299   9.297 -0.0631 -0.1852 -0.5342
   61CHL1  H21B 6974   5.476   2.131   9.225  0.9918 -0.8970 -0.3602
   61CHL1  H21C 6975   5.465   2.272   9.124 -0.9405  1.3613  1.3045
   61CHL1   C22 6976   5.726   2.140   9.104 -0.0389  0.6297  0.3347
   61CHL1  H22A 6977   5.836   2.149   9.095  0.3090 -1.2168  2.0837
   61CHL1  H22B 6978   5.689   2.036   9.115 -0.4938  0.5439 -1.6186
   61CHL1   C23 6979   5.673   2.194   8.969 -0.5802  0.1762 -0.0195
   61CHL1  H23A 6980   5.565   2.167   8.974 -0.2206 -2.2067 -2.6211
   61CHL1  H23B 6981   5.695   2.302   8.964 -2.8998  0.8396  1.9420
   61CHL1   C24 6982   5.744   2.129   8.846 -0.2612  1.1970 -0.5254
   61CHL1  H24A 6983   5.850   2.105   8.868 -1.3932 -2.0502  2.1595
   61CHL1  H24B 6984   5.706   2.025   8.845 -0.0164  1.0965  0.3687
   61CHL1   C25 6985   5.712   2.192   8.710 -0.7148  0.6949  0.0428
   61CHL1   H25 6986   5.613   2.243   8.710 -0.1573  1.8256  0.7009
   61CHL1   C26 6987   5.822   2.296   8.681  0.4806  0.2186  0.0034
   61CHL1  H26A 6988   5.919   2.243   8.679 -1.0569 -2.8486  0.4376
   61CHL1  H26B 6989   5.815   2.338   8.578 -2.5987 -0.3963 -0.1372
   61CHL1  H26C 6990   5.832   2.373   8.760 -0.4433 -1.0812  1.4545
   61CHL1   C27 6991   5.716   2.088   8.600 -0.1668 -0.0029 -0.5363
   61CHL1  H27A 6992   5.695   2.131   8.500 -0.4209  1.8186  0.2590
   61CHL1  H27B 6993   5.817   2.042   8.589 -1.4712 -2.7271 -2.0907
   61CHL1  H27C 6994   5.650   2.001   8.621  0.1319 -0.0623  0.1872
   62CHL1    C3 6995   6.069   0.257   9.986 -0.0433 -0.6771  0.2968
   62CHL1    H3 6996   6.180   0.258   9.981  0.0668  0.5193  2.1309
   62CHL1    O3 6997   6.032   0.264  10.119  0.4675  0.1991  0.3440
   62CHL1   H3' 6998   5.936   0.264  10.112  0.2620 -2.8140  1.5988
   62CHL1    C4 6999   6.006   0.366   9.900  0.3311 -0.2759 -0.0554
   62CHL1   H4A 7000   5.895   0.375   9.903  0.2900 -0.8021  0.1369
   62CHL1   H4B 7001   6.032   0.464   9.944 -0.6357 -0.1647  0.2906
   62CHL1    C5 7002   6.039   0.367   9.752  0.5059 -0.0545 -0.1213
   62CHL1    C6 7003   6.108   0.459   9.691  0.0285 -0.5078  0.4376
   62CHL1    H6 7004   6.144   0.544   9.751  1.4594  0.1977 -1.3291
   62CHL1    C7 7005   6.136   0.449   9.542  0.0344 -0.0590  0.3275
   62CHL1   H7A 7006   6.126   0.551   9.501  0.6670 -0.5091 -1.0130
   62CHL1   H7B 7007   6.245   0.425   9.535  0.4037  1.7044 -0.7108
   62CHL1    C8 7008   6.053   0.339   9.471  0.3929  1.0582  0.0267
   62CHL1    H8 7009   5.946   0.369   9.470  0.1658  0.3022  0.4253
   62CHL1   C14 7010   6.104   0.311   9.326 -0.5758  0.1494 -0.0695
   62CHL1   H14 7011   6.210   0.282   9.340 -0.3528  1.6799  1.9275
   62CHL1   C15 7012   6.101   0.428   9.239 -0.0353 -0.5323 -0.3317
   62CHL1  H15A 7013   6.004   0.482   9.237  0.2727  0.0106 -1.0657
   62CHL1  H15B 7014   6.188   0.495   9.260  1.0425 -2.0728  0.2938
   62CHL1   C16 7015   6.118   0.366   9.095 -0.5766 -0.2292 -0.8965
   62CHL1  H16A 7016   6.040   0.409   9.028 -0.2020 -0.5444 -1.5445
   62CHL1  H16B 7017   6.224   0.384   9.069 -0.3039  0.5643  0.6557
   62CHL1   C17 7018   6.091   0.219   9.111  0.6069 -0.1252 -0.6980
   62CHL1   H17 7019   6.188   0.166   9.122  0.6847 -0.2830 -2.0415
   62CHL1   C13 7020   6.026   0.204   9.253 -0.8753 -0.1476 -0.0799
   62CHL1   C18 7021   5.876   0.239   9.241  0.7952 -0.0344  0.2154
   62CHL1  H18A 7022   5.836   0.166   9.167  0.3893  0.4344 -0.0387
   62CHL1  H18B 7023   5.818   0.241   9.336  0.9350 -0.8365  0.3239
   62CHL1  H18C 7024   5.867   0.340   9.195 -0.2584  0.3802  1.2735
   62CHL1   C12 7025   6.053   0.071   9.325  0.1596  0.3404  0.0712
   62CHL1  H12A 7026   6.020  -0.021   9.271  1.2084  0.0223 -0.0724
   62CHL1  H12B 7027   6.164   0.081   9.317  0.0624  2.8793  1.2282
   62CHL1   C11 7028   6.002   0.083   9.470 -0.0693 -0.3992  0.0442
   62CHL1  H11A 7029   5.892   0.098   9.464 -0.3399 -1.5044  1.5268
   62CHL1  H11B 7030   6.030  -0.017   9.511 -0.7538 -0.1231  1.2610
   62CHL1    C9 7031   6.066   0.208   9.547  0.4768 -0.1698 -0.7754
   62CHL1    H9 7032   6.174   0.183   9.556 -0.1974 -2.9894  0.6320
   62CHL1   C10 7033   6.005   0.231   9.682  0.2248  0.6559 -0.4523
   62CHL1   C19 7034   5.847   0.222   9.672 -0.1707 -0.3404  0.4047
   62CHL1  H19A 7035   5.802   0.246   9.770  0.0487  1.5734  0.0670
   62CHL1  H19B 7036   5.802   0.290   9.596  2.4051 -0.1769 -1.1206
   62CHL1  H19C 7037   5.828   0.113   9.658  0.8832 -0.4918 -0.0019
   62CHL1    C1 7038   6.046   0.114   9.778  0.3617 -0.1405  0.8046
   62CHL1   H1A 7039   5.995   0.022   9.740  2.1730 -1.2541  0.9445
   62CHL1   H1B 7040   6.156   0.103   9.765  0.2441  0.5972 -1.2111
   62CHL1    C2 7041   6.020   0.126   9.930 -0.6276  0.8696  0.7376
   62CHL1   H2A 7042   6.079   0.046   9.979 -0.8321 -0.0338 -0.4316
   62CHL1   H2B 7043   5.910   0.118   9.944 -0.6256 -0.7308  0.0470
   62CHL1   C20 7044   6.036   0.153   8.980  0.5718  0.0100  0.2019
   62CHL1   H20 7045   5.941   0.206   8.957  1.4851  1.6823  0.1325
   62CHL1   C21 7046   6.007   0.003   9.006  0.1493 -0.1813 -0.0908
   62CHL1  H21A 7047   5.930   0.005   9.086  1.5655 -1.1725  1.3780
   62CHL1  H21B 7048   6.100  -0.045   9.045  0.3694  0.9215  0.7958
   62CHL1  H21C 7049   5.968  -0.049   8.916  1.1354 -1.5970  0.2593
   62CHL1   C22 7050   6.127   0.168   8.856 -0.2455 -0.4765 -0.2556
   62CHL1  H22A 7051   6.189   0.260   8.852  0.4540 -0.9225  0.1098
   62CHL1  H22B 7052   6.198   0.082   8.856 -0.9619 -1.0983  0.6417
   62CHL1   C23 7053   6.050   0.168   8.730  0.1205 -0.3756 -0.2508
   62CHL1  H23A 7054   6.006   0.067   8.717 -0.9553 -0.0990  1.0235
   62CHL1  H23B 7055   5.963   0.235   8.744 -1.4699 -2.7164  2.1133
   62CHL1   C24 7056   6.133   0.204   8.608 -0.3235  0.8815  1.0331
   62CHL1  H24A 7057   6.188   0.299   8.622 -0.4594  1.2791 -0.8142
   62CHL1  H24B 7058   6.211   0.128   8.585  0.6786  2.3583 -0.6940
   62CHL1   C25 7059   6.050   0.206   8.478  0.2715 -0.3330 -0.2882
   62CHL1   H25 7060   6.011   0.104   8.458 -2.0585  0.4915 -0.2331
   62CHL1   C26 7061   5.928   0.300   8.489  0.1145  0.4465 -0.8389
   62CHL1  H26A 7062   5.883   0.319   8.389  0.6170  0.0335 -1.1557
   62CHL1  H26B 7063   5.851   0.259   8.556  1.6313 -2.2628 -0.5932
   62CHL1  H26C 7064   5.946   0.402   8.529  2.4988  0.7132 -2.3394
   62CHL1   C27 7065   6.132   0.267   8.365  0.3014 -0.1372  0.0995
   62CHL1  H27A 7066   6.222   0.204   8.347 -0.3090 -0.6026 -1.4860
   62CHL1  H27B 7067   6.077   0.277   8.269 -2.5778  1.7138  1.7982
   62CHL1  H27C 7068   6.175   0.365   8.395 -0.2617  0.4422 -0.9368
   63CHL1    C3 7069   2.255   2.312  10.258  0.1230 -0.2574  1.1264
   63CHL1    H3 7070   2.247   2.422  10.242 -3.0259 -0.4753  0.4353
   63CHL1    O3 7071   2.249   2.288  10.393 -0.6800  0.0868 -0.4963
   63CHL1   H3' 7072   2.219   2.197  10.398  0.7110 -0.6661 -3.5646
   63CHL1    C4 7073   2.133   2.236  10.193  1.1329  0.1483  0.0771
   63CHL1   H4A 7074   2.103   2.136  10.230  2.4319 -0.7236 -1.1669
   63CHL1   H4B 7075   2.041   2.287  10.231  0.7537  0.6239 -1.4380
   63CHL1    C5 7076   2.128   2.245  10.043 -0.4296 -0.3858  0.0587
   63CHL1    C6 7077   2.025   2.292   9.974  0.0778 -0.3821  0.4745
   63CHL1    H6 7078   1.927   2.316  10.016 -0.9730 -2.5251 -0.6152
   63CHL1    C7 7079   2.014   2.318   9.827 -0.0214  0.8436 -0.0786
   63CHL1   H7A 7080   1.912   2.296   9.789 -0.3176  0.7897  0.7069
   63CHL1   H7B 7081   2.017   2.426   9.800 -0.0261  0.4299 -1.8430
   63CHL1    C8 7082   2.117   2.234   9.749 -0.0607 -0.0629 -0.1314
   63CHL1    H8 7083   2.082   2.129   9.750  0.1030 -0.2356 -3.4644
   63CHL1   C14 7084   2.109   2.275   9.597  0.0980  0.7245 -0.2162
   63CHL1   H14 7085   2.134   2.383   9.594 -0.9414  0.9654 -0.6074
   63CHL1   C15 7086   1.977   2.262   9.524  0.2159 -0.1736  0.6637
   63CHL1  H15A 7087   1.945   2.160   9.552  2.6589 -0.7779  1.5042
   63CHL1  H15B 7088   1.906   2.340   9.562 -2.2011 -0.3789 -2.9594
   63CHL1   C16 7089   2.014   2.266   9.381 -0.7225  0.3186  0.5444
   63CHL1  H16A 7090   1.986   2.169   9.334 -0.7019  0.3374  0.4933
   63CHL1  H16B 7091   1.966   2.342   9.316 -0.6185  0.1430  0.2575
   63CHL1   C17 7092   2.173   2.269   9.378  0.4559  0.4161  0.5124
   63CHL1   H17 7093   2.205   2.375   9.390 -1.7428  1.3639 -1.2893
   63CHL1   C13 7094   2.214   2.206   9.511  0.0567 -0.0992  0.6088
   63CHL1   C18 7095   2.208   2.054   9.504  0.5337  0.0086 -0.0894
   63CHL1  H18A 7096   2.307   2.014   9.473  0.9101  1.3075 -0.6521
   63CHL1  H18B 7097   2.184   2.007   9.602 -2.1484 -0.3015 -0.8163
   63CHL1  H18C 7098   2.126   2.014   9.441  1.0292 -2.4834  0.7616
   63CHL1   C12 7099   2.355   2.238   9.571  0.4161 -0.3093 -0.0614
   63CHL1  H12A 7100   2.437   2.189   9.515 -0.6290 -2.2140 -0.0016
   63CHL1  H12B 7101   2.368   2.348   9.582  0.1066 -0.3056  0.2951
   63CHL1   C11 7102   2.368   2.188   9.721  0.2887  0.7253 -0.3332
   63CHL1  H11A 7103   2.358   2.078   9.721  2.7516  0.3962  1.5078
   63CHL1  H11B 7104   2.470   2.205   9.763  0.2033 -1.9128  1.1415
   63CHL1    C9 7105   2.257   2.242   9.812  1.0396  0.6401 -0.8041
   63CHL1    H9 7106   2.271   2.352   9.810  1.1652  0.6246 -1.9835
   63CHL1   C10 7107   2.262   2.210   9.969  0.6673 -0.0412  0.2697
   63CHL1   C19 7108   2.267   2.055   9.976  0.2374  0.1991  1.0543
   63CHL1  H19A 7109   2.183   2.009   9.920  0.1083  0.4513  1.0386
   63CHL1  H19B 7110   2.364   2.020   9.934  0.0102 -0.0863  0.7609
   63CHL1  H19C 7111   2.266   2.018  10.081 -0.2728 -1.4396  0.5019
   63CHL1    C1 7112   2.375   2.282  10.037  0.7952 -0.3659 -0.0743
   63CHL1   H1A 7113   2.477   2.250  10.005 -0.1798 -2.5839 -1.1510
   63CHL1   H1B 7114   2.371   2.391  10.016  1.3116 -0.3565 -0.1483
   63CHL1    C2 7115   2.392   2.269  10.193  0.3917  0.2662 -0.1222
   63CHL1   H2A 7116   2.472   2.342  10.220 -0.3504  0.7969  0.6851
   63CHL1   H2B 7117   2.417   2.167  10.228 -0.7059  0.1921  0.4854
   63CHL1   C20 7118   2.232   2.226   9.237  0.5309 -0.0418 -0.6101
   63CHL1   H20 7119   2.197   2.122   9.227 -2.1288  0.3866  2.4877
   63CHL1   C21 7120   2.376   2.228   9.246 -0.3521 -0.0188 -0.8360
   63CHL1  H21A 7121   2.420   2.144   9.305  0.3563  1.1025  0.3017
   63CHL1  H21B 7122   2.408   2.317   9.305 -1.7160 -0.3539  0.4842
   63CHL1  H21C 7123   2.417   2.232   9.143 -2.7597 -0.2977 -1.8632
   63CHL1   C22 7124   2.192   2.309   9.119  0.3840 -0.1835  0.2479
   63CHL1  H22A 7125   2.084   2.334   9.120  0.8952  2.3932 -0.3973
   63CHL1  H22B 7126   2.236   2.411   9.110 -0.5802  0.1085 -1.6488
   63CHL1   C23 7127   2.193   2.234   8.993  0.8055  0.9187  0.7997
   63CHL1  H23A 7128   2.295   2.191   8.981 -0.3799 -1.7065 -0.7322
   63CHL1  H23B 7129   2.133   2.141   9.001  1.1544  0.7001  0.8610
   63CHL1   C24 7130   2.142   2.302   8.865  0.1053  0.1351  0.0544
   63CHL1  H24A 7131   2.032   2.319   8.863 -0.1610 -1.2437 -3.3500
   63CHL1  H24B 7132   2.206   2.393   8.866 -0.1805  0.3381  1.2309
   63CHL1   C25 7133   2.158   2.218   8.734 -0.3967 -1.1082  0.2129
   63CHL1   H25 7134   2.264   2.184   8.728 -0.2947 -1.3837  2.8051
   63CHL1   C26 7135   2.073   2.087   8.746 -0.1212 -0.3116  0.3807
   63CHL1  H26A 7136   2.087   2.028   8.838  1.3389 -0.1519  0.2789
   63CHL1  H26B 7137   1.963   2.100   8.736  0.1755  3.2630  0.4233
   63CHL1  H26C 7138   2.107   2.025   8.660  0.2125  1.1029 -0.5495
   63CHL1   C27 7139   2.110   2.302   8.620  0.0162  0.1081 -0.0595
   63CHL1  H27A 7140   2.148   2.265   8.522  1.9972  1.3800  0.1789
   63CHL1  H27B 7141   2.000   2.307   8.614 -0.0625 -0.2973  0.7670
   63CHL1  H27C 7142   2.159   2.402   8.621 -1.0572  0.6686 -1.1762
   64CHL1    C3 7143   0.849   0.302  10.130  0.0192  0.3364  0.5953
   64CHL1    H3 7144   0.744   0.324  10.099  0.4533  2.4682  0.5209
   64CHL1    O3 7145   0.873   0.325  10.265  0.0274 -0.6665 -0.2476
   64CHL1   H3' 7146   0.824   0.254  10.307  0.2837 -2.2118 -2.3915
   64CHL1    C4 7147   0.885   0.161  10.111 -0.2850 -0.0200 -0.3146
   64CHL1   H4A 7148   0.985   0.135  10.153 -1.1389  0.8461  2.4419
   64CHL1   H4B 7149   0.811   0.098  10.166  0.2977 -0.3991  0.0476
   64CHL1    C5 7150   0.873   0.126   9.965  0.3252  0.2134 -0.0781
   64CHL1    C6 7151   0.781   0.032   9.918 -0.0118 -0.0606 -0.2618
   64CHL1    H6 7152   0.715  -0.016   9.992 -1.3592  2.2845  0.1592
   64CHL1    C7 7153   0.768  -0.001   9.775 -0.4405  0.5481  0.8356
   64CHL1   H7A 7154   0.753  -0.111   9.772  6.0662 -0.7198 -1.1902
   64CHL1   H7B 7155   0.680   0.055   9.736  0.8556  0.9432 -1.7913
   64CHL1    C8 7156   0.886   0.036   9.683  0.2244 -0.1235  0.2999
   64CHL1    H8 7157   0.965  -0.039   9.703  0.3441 -0.6601 -1.8802
   64CHL1   C14 7158   0.865   0.018   9.533 -1.1109  0.5175  0.7166
   64CHL1   H14 7159   0.771   0.070   9.502 -0.4504  0.8664 -0.8033
   64CHL1   C15 7160   0.830  -0.129   9.494 -0.5077  0.4870  0.2527
   64CHL1  H15A 7161   0.910  -0.195   9.533 -0.1325  0.6503 -0.2305
   64CHL1  H15B 7162   0.731  -0.158   9.535 -0.4582 -2.4714 -1.3902
   64CHL1   C16 7163   0.837  -0.118   9.344 -0.1457  0.1262 -0.4011
   64CHL1  H16A 7164   0.898  -0.205   9.311 -1.3032 -1.5253  1.5853
   64CHL1  H16B 7165   0.733  -0.112   9.307 -0.5036  0.3339  0.6140
   64CHL1   C17 7166   0.919   0.014   9.311  0.2865  0.1956 -0.2477
   64CHL1   H17 7167   0.849   0.094   9.280  3.7166  3.1752 -1.0574
   64CHL1   C13 7168   0.980   0.061   9.437  0.4094 -0.1481  0.0488
   64CHL1   C18 7169   1.108  -0.028   9.465  0.2983  0.3792  0.5534
   64CHL1  H18A 7170   1.191  -0.002   9.396  0.1276  0.1498  0.2565
   64CHL1  H18B 7171   1.137  -0.010   9.571 -0.8238 -0.6224  1.0591
   64CHL1  H18C 7172   1.077  -0.132   9.440  0.1963  0.3954  0.6125
   64CHL1   C12 7173   1.000   0.216   9.463 -0.0569  0.1329 -0.3974
   64CHL1  H12A 7174   1.082   0.265   9.405  0.3765  1.9981  1.6259
   64CHL1  H12B 7175   0.903   0.265   9.439 -1.0168 -1.6255 -0.2458
   64CHL1   C11 7176   1.031   0.236   9.615  0.6447  0.0081  0.1541
   64CHL1  H11A 7177   1.128   0.187   9.634  1.2295  1.5090  1.2814
   64CHL1  H11B 7178   1.043   0.343   9.644  1.9496 -0.0399 -0.1559
   64CHL1    C9 7179   0.929   0.174   9.712  1.0552 -0.2687  0.0150
   64CHL1    H9 7180   0.839   0.233   9.685  1.1884  0.2364  0.6476
   64CHL1   C10 7181   0.958   0.207   9.868 -0.1048  0.0585  0.3085
   64CHL1   C19 7182   1.104   0.169   9.891  0.4556  0.2631 -0.1694
   64CHL1  H19A 7183   1.178   0.218   9.824 -0.2645  0.0385 -1.1520
   64CHL1  H19B 7184   1.137   0.177   9.997 -0.2295 -3.4910  0.4881
   64CHL1  H19C 7185   1.120   0.063   9.859  0.2951  0.9814 -2.8378
   64CHL1    C1 7186   0.924   0.350   9.894  0.3317  0.8142  0.3709
   64CHL1   H1A 7187   0.991   0.417   9.836 -0.7588  3.0484  1.5497
   64CHL1   H1B 7188   0.820   0.369   9.861 -0.2249 -0.7184  1.1357
   64CHL1    C2 7189   0.940   0.387  10.040 -0.1901 -0.3646 -0.3455
   64CHL1   H2A 7190   0.925   0.496  10.051 -2.7584 -0.7808  0.9635
   64CHL1   H2B 7191   1.048   0.377  10.064 -0.2187  1.5347  0.7420
   64CHL1   C20 7192   1.008  -0.000   9.185 -0.9608 -0.2457  0.2821
   64CHL1   H20 7193   1.078  -0.086   9.197  1.2564  1.6190  1.4569
   64CHL1   C21 7194   1.081   0.136   9.172 -0.1167 -0.7651  0.3141
   64CHL1  H21A 7195   1.096   0.144   9.062 -2.5623  0.0930 -0.0245
   64CHL1  H21B 7196   1.176   0.143   9.229  1.0691  0.7707 -1.7099
   64CHL1  H21C 7197   1.008   0.218   9.189 -0.1798 -1.1323  1.9832
   64CHL1   C22 7198   0.937  -0.030   9.050  0.8321 -0.0373  0.0441
   64CHL1  H22A 7199   0.840  -0.080   9.072  0.3943  1.3044  1.4091
   64CHL1  H22B 7200   0.898   0.070   9.021  0.3295  0.0773  1.0590
   64CHL1   C23 7201   1.020  -0.106   8.949 -0.8321 -0.1422 -0.0737
   64CHL1  H23A 7202   1.088  -0.031   8.902 -0.7716 -0.7441 -0.9550
   64CHL1  H23B 7203   1.079  -0.188   8.994 -0.7436  0.4348  0.8794
   64CHL1   C24 7204   0.941  -0.173   8.835 -0.5279  0.0130 -0.7461
   64CHL1  H24A 7205   0.874  -0.253   8.873  0.4733  0.5742  2.4774
   64CHL1  H24B 7206   0.863  -0.098   8.808 -0.8024 -0.3233 -0.9002
   64CHL1   C25 7207   1.026  -0.217   8.717  0.3888 -0.1394  0.2136
   64CHL1   H25 7208   1.096  -0.137   8.685 -0.0639 -0.3945 -1.5143
   64CHL1   C26 7209   1.119  -0.339   8.743  0.6813 -0.1266  0.3851
   64CHL1  H26A 7210   1.059  -0.407   8.808 -0.6996  0.7572  0.0687
   64CHL1  H26B 7211   1.155  -0.396   8.655  0.5383  0.5484 -0.1132
   64CHL1  H26C 7212   1.200  -0.289   8.800  1.3483 -1.1846  0.3929
   64CHL1   C27 7213   0.927  -0.245   8.601  0.4912 -0.8964  0.2070
   64CHL1  H27A 7214   0.829  -0.285   8.634 -0.9563  0.1052 -2.5253
   64CHL1  H27B 7215   0.909  -0.149   8.547  1.8751 -1.2322 -0.9123
   64CHL1  H27C 7216   0.964  -0.311   8.520  2.5805  2.0152 -1.4328
   65CHL1    C3 7217   2.967   2.670  10.222 -0.3945  0.2498 -0.3720
   65CHL1    H3 7218   3.049   2.720  10.165 -1.2248  2.8654  0.5430
   65CHL1    O3 7219   2.985   2.705  10.360  0.0314  1.0151 -0.5000
   65CHL1   H3' 7220   3.071   2.670  10.386 -0.5696  0.1305  0.4070
   65CHL1    C4 7221   2.833   2.715  10.172 -0.4347 -0.0605 -0.0418
   65CHL1   H4A 7222   2.759   2.672  10.244 -0.5609 -0.4087 -0.3750
   65CHL1   H4B 7223   2.829   2.823  10.194  0.7822  0.3387 -1.6307
   65CHL1    C5 7224   2.807   2.687  10.023  0.2199  0.0080 -0.8186
   65CHL1    C6 7225   2.765   2.776   9.932 -0.1529  0.8262 -0.1055
   65CHL1    H6 7226   2.740   2.875   9.972 -1.2251 -0.0021  1.3983
   65CHL1    C7 7227   2.753   2.757   9.780  0.0407  0.8466 -0.2662
   65CHL1   H7A 7228   2.657   2.796   9.741 -0.5955 -1.2834 -0.9157
   65CHL1   H7B 7229   2.836   2.818   9.737  0.6536  1.0198  1.1078
   65CHL1    C8 7230   2.770   2.605   9.744  0.1303  1.0305 -0.5069
   65CHL1    H8 7231   2.672   2.557   9.763  0.3403  0.4625 -0.8439
   65CHL1   C14 7232   2.824   2.584   9.606 -0.0752  0.4061  0.4709
   65CHL1   H14 7233   2.931   2.613   9.604  0.2809 -0.8729 -1.4028
   65CHL1   C15 7234   2.770   2.670   9.500  0.1194 -0.9254 -0.1360
   65CHL1  H15A 7235   2.661   2.687   9.511  0.6570  1.8515  1.8189
   65CHL1  H15B 7236   2.832   2.761   9.493 -0.4219 -0.4487  1.0546
   65CHL1   C16 7237   2.797   2.606   9.362  0.1688 -0.3558  0.7142
   65CHL1  H16A 7238   2.702   2.587   9.307  0.5971  2.1639 -1.0600
   65CHL1  H16B 7239   2.851   2.670   9.289  3.2315 -2.8348  0.5792
   65CHL1   C17 7240   2.871   2.475   9.400 -0.4018 -0.8421  0.3354
   65CHL1   H17 7241   2.977   2.503   9.414 -0.5277 -0.8555  1.4084
   65CHL1   C13 7242   2.823   2.440   9.547 -0.3231 -0.3828 -0.3164
   65CHL1   C18 7243   2.689   2.381   9.534  0.1331  0.3844 -0.1083
   65CHL1  H18A 7244   2.617   2.446   9.479 -0.6289  2.4004  3.0250
   65CHL1  H18B 7245   2.704   2.276   9.502 -1.1733 -0.5106  2.0178
   65CHL1  H18C 7246   2.639   2.374   9.633 -0.0063 -0.4127 -0.2314
   65CHL1   C12 7247   2.926   2.364   9.637  0.0097  0.6401 -0.2426
   65CHL1  H12A 7248   2.926   2.257   9.606  0.1274  0.4467  0.4105
   65CHL1  H12B 7249   3.024   2.406   9.606  0.5322 -1.2682 -1.3351
   65CHL1   C11 7250   2.901   2.382   9.786  0.1093 -0.5114 -0.1143
   65CHL1  H11A 7251   2.818   2.318   9.822 -0.9750  1.3844  0.8635
   65CHL1  H11B 7252   2.986   2.340   9.844 -0.3928  0.0258  1.0398
   65CHL1    C9 7253   2.871   2.530   9.834  0.3282 -0.6276 -0.5480
   65CHL1    H9 7254   2.967   2.585   9.824  0.7298 -0.8858  1.4486
   65CHL1   C10 7255   2.855   2.539   9.986 -0.2951 -0.5502  0.4380
   65CHL1   C19 7256   2.745   2.439  10.037  0.0141 -0.1446  0.9025
   65CHL1  H19A 7257   2.651   2.450   9.978  0.2965 -0.6965  0.3301
   65CHL1  H19B 7258   2.793   2.341  10.020  1.0262  0.5900 -0.7120
   65CHL1  H19C 7259   2.716   2.454  10.143  2.0519 -1.7089  1.7386
   65CHL1    C1 7260   2.989   2.498  10.056  0.3983  0.4020  0.3980
   65CHL1   H1A 7261   3.006   2.389  10.043 -2.1829 -0.3151  2.2291
   65CHL1   H1B 7262   3.074   2.555  10.013  1.3035 -0.5899  0.8567
   65CHL1    C2 7263   2.982   2.518  10.206  0.4625  0.4832  0.0366
   65CHL1   H2A 7264   3.080   2.496  10.254  0.1888 -0.6206  0.1268
   65CHL1   H2B 7265   2.904   2.460  10.259 -1.1318  2.6962  0.2198
   65CHL1   C20 7266   2.874   2.369   9.288 -0.2524  0.0298 -0.0306
   65CHL1   H20 7267   2.770   2.331   9.277 -0.7304  1.3785 -0.3554
   65CHL1   C21 7268   2.971   2.250   9.330  0.2237 -0.3368 -0.6340
   65CHL1  H21A 7269   2.971   2.196   9.233 -1.3488 -2.2930  0.3816
   65CHL1  H21B 7270   2.925   2.196   9.416 -1.4299  1.1701 -0.5131
   65CHL1  H21C 7271   3.073   2.288   9.352  0.5675 -0.6350 -1.6546
   65CHL1   C22 7272   2.908   2.427   9.152  0.0353  1.1913  0.8748
   65CHL1  H22A 7273   2.839   2.512   9.135 -2.9689 -0.6668  2.8900
   65CHL1  H22B 7274   3.012   2.465   9.146  0.5354 -0.2284 -3.3813
   65CHL1   C23 7275   2.888   2.335   9.026  0.4869 -0.6213  0.1921
   65CHL1  H23A 7276   2.971   2.260   9.026  0.8847 -0.4598 -4.3303
   65CHL1  H23B 7277   2.789   2.287   9.042  0.4293  0.0646  2.1382
   65CHL1   C24 7278   2.894   2.421   8.902 -0.1153 -0.4998  0.4418
   65CHL1  H24A 7279   2.824   2.507   8.904  0.2297 -0.2046  0.1412
   65CHL1  H24B 7280   2.995   2.459   8.876 -0.6168 -0.4365 -1.5556
   65CHL1   C25 7281   2.862   2.336   8.773  0.6129  0.6225 -0.5675
   65CHL1   H25 7282   2.918   2.240   8.768 -0.3865  0.0708 -1.6536
   65CHL1   C26 7283   2.708   2.326   8.772 -0.2033 -0.3286  0.2767
   65CHL1  H26A 7284   2.672   2.266   8.858  0.5679  0.4334  1.1624
   65CHL1  H26B 7285   2.652   2.422   8.774  0.7174  0.3006 -1.6142
   65CHL1  H26C 7286   2.671   2.273   8.682  0.8369 -1.1895  0.3403
   65CHL1   C27 7287   2.908   2.424   8.655 -1.1723  0.3465  0.0666
   65CHL1  H27A 7288   2.857   2.387   8.564  0.7384 -2.3622 -0.0442
   65CHL1  H27B 7289   2.892   2.531   8.681 -2.6750 -0.3928  2.6074
   65CHL1  H27C 7290   3.017   2.416   8.636 -1.4362 -1.2952 -0.9473
   66CHL1    C3 7291   0.851   3.531  10.459  0.2167  1.0388 -0.2300
   66CHL1    H3 7292   0.868   3.636  10.490  0.0431  0.8076  0.6741
   66CHL1    O3 7293   0.850   3.459  10.576 -0.3210  0.5252  0.0930
   66CHL1   H3' 7294   0.941   3.436  10.599 -1.0271 -1.8838  0.7027
   66CHL1    C4 7295   0.710   3.519  10.394 -0.4098  0.2179 -0.2458
   66CHL1   H4A 7296   0.672   3.415  10.400 -0.7645  0.3713  0.2471
   66CHL1   H4B 7297   0.637   3.574  10.458 -0.6728  0.7282 -0.9674
   66CHL1    C5 7298   0.700   3.577  10.250 -0.2354 -0.0360 -0.2849
   66CHL1    C6 7299   0.608   3.660  10.217  0.4785 -1.0836  0.3293
   66CHL1    H6 7300   0.521   3.684  10.281  0.1930  0.0407 -0.4526
   66CHL1    C7 7301   0.593   3.702  10.073  0.2644 -0.8377  0.3977
   66CHL1   H7A 7302   0.487   3.705  10.037  1.1555 -0.8670 -2.4708
   66CHL1   H7B 7303   0.632   3.806  10.075 -1.4591 -0.1572  2.6617
   66CHL1    C8 7304   0.673   3.612   9.976  0.2361  0.0269 -0.2296
   66CHL1    H8 7305   0.626   3.512   9.965 -1.7093  1.0109 -1.4724
   66CHL1   C14 7306   0.673   3.671   9.833  0.4489 -0.2076 -0.4695
   66CHL1   H14 7307   0.721   3.770   9.834  0.2424 -0.0397  2.6144
   66CHL1   C15 7308   0.530   3.689   9.771 -0.6308 -0.3219  0.1994
   66CHL1  H15A 7309   0.482   3.592   9.796 -0.6344 -0.0581  1.2562
   66CHL1  H15B 7310   0.469   3.769   9.817 -2.8066 -0.9795 -1.3979
   66CHL1   C16 7311   0.563   3.706   9.621  0.1542 -0.2565 -0.1501
   66CHL1  H16A 7312   0.500   3.633   9.566  1.6028 -1.4407 -0.2986
   66CHL1  H16B 7313   0.551   3.813   9.594 -0.0188  0.3999  2.3036
   66CHL1   C17 7314   0.710   3.659   9.597 -0.3210  0.2645  0.3485
   66CHL1   H17 7315   0.771   3.751   9.604  0.3632 -0.1194 -0.3360
   66CHL1   C13 7316   0.754   3.584   9.724 -0.2758  0.3876  0.0832
   66CHL1   C18 7317   0.700   3.443   9.716 -0.6684  0.3305  0.0720
   66CHL1  H18A 7318   0.596   3.453   9.678 -0.3991  2.5682 -0.1740
   66CHL1  H18B 7319   0.766   3.385   9.648 -0.7403 -2.2946  2.1057
   66CHL1  H18C 7320   0.691   3.383   9.809 -2.9366 -1.9034 -1.4309
   66CHL1   C12 7321   0.904   3.587   9.774  0.9631  0.5597 -0.0695
   66CHL1  H12A 7322   0.955   3.513   9.709 -0.1035  0.9922 -1.4561
   66CHL1  H12B 7323   0.942   3.691   9.766 -0.5287  1.4561  2.9152
   66CHL1   C11 7324   0.913   3.532   9.913  0.4666  0.1189 -0.4127
   66CHL1  H11A 7325   0.896   3.422   9.909  0.5312  0.1200 -0.7831
   66CHL1  H11B 7326   1.015   3.549   9.952 -0.0611 -0.1515  1.1666
   66CHL1    C9 7327   0.815   3.595  10.020  0.4258  0.6508 -0.2012
   66CHL1    H9 7328   0.855   3.699  10.029  2.5719 -0.2157  0.9998
   66CHL1   C10 7329   0.814   3.528  10.160 -0.6845 -0.3470  0.3945
   66CHL1   C19 7330   0.785   3.374  10.147  0.2483  0.5067  0.9494
   66CHL1  H19A 7331   0.691   3.351  10.093  2.0529  0.7544 -2.5861
   66CHL1  H19B 7332   0.862   3.325  10.083 -0.9084 -1.1463  0.7461
   66CHL1  H19C 7333   0.791   3.311  10.238 -0.4068  0.2918  0.8516
   66CHL1    C1 7334   0.946   3.550  10.231  1.0728  0.1720  0.4024
   66CHL1   H1A 7335   1.028   3.525  10.161 -0.3900  1.3037 -1.8386
   66CHL1   H1B 7336   0.962   3.659  10.244  1.8631 -0.1224  2.2491
   66CHL1    C2 7337   0.962   3.483  10.364  1.0424 -0.2255  0.0031
   66CHL1   H2A 7338   1.064   3.515  10.394  1.1967  0.0631 -0.7912
   66CHL1   H2B 7339   0.952   3.374  10.347  0.8819 -0.3411  0.8200
   66CHL1   C20 7340   0.739   3.600   9.462  0.0411  0.6118 -0.2925
   66CHL1   H20 7341   0.703   3.496   9.469 -0.1765  0.7932  1.8511
   66CHL1   C21 7342   0.892   3.595   9.428 -0.7100  0.0218 -0.3737
   66CHL1  H21A 7343   0.900   3.553   9.325 -1.4752  0.3528 -0.5718
   66CHL1  H21B 7344   0.954   3.534   9.498  0.0114 -2.5547 -3.0530
   66CHL1  H21C 7345   0.931   3.698   9.419 -0.4524 -0.1130 -0.8573
   66CHL1   C22 7346   0.671   3.659   9.331  0.2390 -0.4045  1.2556
   66CHL1  H22A 7347   0.678   3.596   9.241  1.4230 -0.6015  1.4717
   66CHL1  H22B 7348   0.562   3.649   9.353 -0.4678  2.0498 -0.6451
   66CHL1   C23 7349   0.700   3.806   9.301 -0.7676 -0.6404  0.3806
   66CHL1  H23A 7350   0.640   3.874   9.365  2.5125  3.5587 -0.5068
   66CHL1  H23B 7351   0.803   3.838   9.328 -0.7171  1.4363 -1.9201
   66CHL1   C24 7352   0.698   3.842   9.147  0.0047 -0.1477 -0.4747
   66CHL1  H24A 7353   0.722   3.950   9.136  2.4284 -0.6282 -0.6409
   66CHL1  H24B 7354   0.790   3.790   9.112  1.2372  1.6325 -0.0050
   66CHL1   C25 7355   0.571   3.806   9.062 -0.5049 -0.3677 -0.2813
   66CHL1   H25 7356   0.544   3.698   9.070  1.2102 -0.6983  5.1014
   66CHL1   C26 7357   0.446   3.877   9.118  0.8221 -0.5844  0.0360
   66CHL1  H26A 7358   0.461   3.985   9.098  0.6095 -0.5385  0.1228
   66CHL1  H26B 7359   0.362   3.849   9.052  0.2497  2.9090 -0.9417
   66CHL1  H26C 7360   0.432   3.859   9.227  0.9170 -0.2488  0.1046
   66CHL1   C27 7361   0.584   3.832   8.911 -0.1498  0.6096  0.4753
   66CHL1  H27A 7362   0.646   3.761   8.852 -0.9059  2.2875 -2.5036
   66CHL1  H27B 7363   0.484   3.827   8.862 -0.3126  1.4033  0.7153
   66CHL1  H27C 7364   0.612   3.939   8.907 -0.5166  0.7070  0.4845
   67CHL1    C3 7365   4.391   3.429  10.144 -0.4525  0.2930 -0.4114
   67CHL1    H3 7366   4.281   3.447  10.139 -0.9150 -1.0540  2.5272
   67CHL1    O3 7367   4.446   3.434  10.279  0.1947 -0.5680  0.4757
   67CHL1   H3' 7368   4.536   3.402  10.274  1.3188  2.3536 -0.1252
   67CHL1    C4 7369   4.432   3.288  10.086 -0.0107 -0.4696 -0.3767
   67CHL1   H4A 7370   4.533   3.261  10.126 -0.2321  0.2468  0.7331
   67CHL1   H4B 7371   4.357   3.216  10.124  0.3575 -0.3031  0.7083
   67CHL1    C5 7372   4.432   3.270   9.942  0.4655 -0.4894 -0.0612
   67CHL1    C6 7373   4.359   3.178   9.875 -0.4245  0.4034  0.0983
   67CHL1    H6 7374   4.298   3.112   9.938  0.2362 -0.3765 -0.0613
   67CHL1    C7 7375   4.357   3.158   9.727 -0.8079 -0.1020 -0.1277
   67CHL1   H7A 7376   4.372   3.052   9.696  0.8201 -0.2597  1.0418
   67CHL1   H7B 7377   4.255   3.183   9.690 -1.5038 -0.9177  1.1393
   67CHL1    C8 7378   4.458   3.251   9.652  0.0843  0.7753 -0.2880
   67CHL1    H8 7379   4.561   3.212   9.665  0.0427  0.9002  0.4410
   67CHL1   C14 7380   4.416   3.266   9.508  0.1375 -0.0486  0.1488
   67CHL1   H14 7381   4.315   3.312   9.505  0.3178  0.2762 -2.0015
   67CHL1   C15 7382   4.394   3.136   9.428 -0.0897  0.1329 -0.0021
   67CHL1  H15A 7383   4.475   3.063   9.447  1.1961  1.5357  0.0267
   67CHL1  H15B 7384   4.294   3.097   9.458 -0.5361  1.3177  0.1083
   67CHL1   C16 7385   4.392   3.183   9.278  0.2124 -0.2186 -0.4726
   67CHL1  H16A 7386   4.465   3.124   9.219  0.5440 -0.5460  0.2646
   67CHL1  H16B 7387   4.287   3.172   9.242  0.0192 -0.6431  0.2137
   67CHL1   C17 7388   4.423   3.339   9.280  0.1814 -0.2167  0.1108
   67CHL1   H17 7389   4.326   3.393   9.281 -1.1690 -2.3263 -2.4615
   67CHL1   C13 7390   4.498   3.359   9.415  0.3099 -0.2119 -0.0498
   67CHL1   C18 7391   4.641   3.309   9.402  0.2581 -0.0366  0.7745
   67CHL1  H18A 7392   4.692   3.306   9.501 -0.0944 -1.0484  0.9461
   67CHL1  H18B 7393   4.642   3.200   9.380  0.2099 -0.2679  1.8302
   67CHL1  H18C 7394   4.699   3.372   9.332  2.4306 -1.4800  1.1687
   67CHL1   C12 7395   4.497   3.499   9.478 -0.0648  0.5035 -0.3471
   67CHL1  H12A 7396   4.568   3.563   9.421 -1.5900  1.2769 -1.4232
   67CHL1  H12B 7397   4.399   3.549   9.469  0.4012  1.9603  1.7044
   67CHL1   C11 7398   4.535   3.493   9.631  0.5181  0.0833  0.0188
   67CHL1  H11A 7399   4.643   3.468   9.639  1.2060  2.7656 -0.0026
   67CHL1  H11B 7400   4.526   3.597   9.668  4.0034 -0.0091  1.4774
   67CHL1    C9 7401   4.457   3.391   9.716 -0.1035  0.0984 -0.0977
   67CHL1    H9 7402   4.353   3.428   9.722  0.5386  2.5746 -2.1387
   67CHL1   C10 7403   4.498   3.385   9.868 -0.1808  0.5741  0.3805
   67CHL1   C19 7404   4.647   3.370   9.879 -0.0041  0.0215  0.2167
   67CHL1  H19A 7405   4.707   3.453   9.837  0.4847 -0.8677 -0.8803
   67CHL1  H19B 7406   4.680   3.361   9.985  0.1678 -1.2448  0.0706
   67CHL1  H19C 7407   4.695   3.279   9.836  1.7453  1.1920 -0.4006
   67CHL1    C1 7408   4.461   3.519   9.929  0.6126 -0.0122 -0.4381
   67CHL1   H1A 7409   4.524   3.595   9.879  0.9761 -0.6401 -0.9369
   67CHL1   H1B 7410   4.357   3.549   9.902  0.0958 -2.0399 -0.8238
   67CHL1    C2 7411   4.469   3.538  10.079 -0.9702  0.4662 -0.3675
   67CHL1   H2A 7412   4.432   3.640  10.106 -0.6570  0.5302 -0.1689
   67CHL1   H2B 7413   4.577   3.541  10.103 -1.2691  0.4174  1.0431
   67CHL1   C20 7414   4.494   3.377   9.148  0.8204 -0.3869 -0.7909
   67CHL1   H20 7415   4.589   3.320   9.135  0.0365 -1.6957 -0.8780
   67CHL1   C21 7416   4.518   3.534   9.152  0.1072  0.9241 -0.4364
   67CHL1  H21A 7417   4.434   3.596   9.188  1.3565  1.5091  1.6340
   67CHL1  H21B 7418   4.544   3.568   9.049 -1.4397 -1.8130 -1.8633
   67CHL1  H21C 7419   4.597   3.558   9.227 -0.8608 -1.9080  1.6751
   67CHL1   C22 7420   4.407   3.353   9.024  0.2247 -0.2066  0.1486
   67CHL1  H22A 7421   4.479   3.373   8.941 -0.1363  0.1131 -0.0939
   67CHL1  H22B 7422   4.392   3.243   9.018  0.5723 -0.1779 -2.7453
   67CHL1   C23 7423   4.278   3.417   9.014  0.6097  0.0732 -0.5574
   67CHL1  H23A 7424   4.213   3.374   9.093  1.4917 -2.0283 -0.9177
   67CHL1  H23B 7425   4.279   3.528   9.024 -1.9100  0.1682 -0.7466
   67CHL1   C24 7426   4.200   3.398   8.874  0.4203 -1.0095  0.2218
   67CHL1  H24A 7427   4.199   3.289   8.854 -0.2058 -1.7766  3.7056
   67CHL1  H24B 7428   4.098   3.441   8.887  0.5525  0.0581 -1.7770
   67CHL1   C25 7429   4.263   3.476   8.756  0.6449 -0.0199 -0.7544
   67CHL1   H25 7430   4.362   3.428   8.742  1.4249  0.7922  1.5997
   67CHL1   C26 7431   4.183   3.469   8.626 -0.2420  0.2307 -0.0399
   67CHL1  H26A 7432   4.250   3.502   8.544  1.5981 -0.8359  0.9694
   67CHL1  H26B 7433   4.174   3.361   8.601  0.1700  0.0627  0.5111
   67CHL1  H26C 7434   4.084   3.519   8.634  0.9869  2.9742 -0.7667
   67CHL1   C27 7435   4.274   3.630   8.781 -0.6928  0.0984 -0.6075
   67CHL1  H27A 7436   4.171   3.671   8.788 -2.0435 -2.8096 -1.7970
   67CHL1  H27B 7437   4.334   3.646   8.873 -0.2188 -1.6642 -0.5623
   67CHL1  H27C 7438   4.330   3.681   8.700  0.2719 -0.8316 -0.5557
   68CHL1    C3 7439   1.824   3.909  10.180 -0.1032  0.0386  0.6791
   68CHL1    H3 7440   1.914   3.973  10.163 -0.3537 -0.1623 -1.7751
   68CHL1    O3 7441   1.794   3.906  10.323 -0.3962 -0.2062 -0.2824
   68CHL1   H3' 7442   1.791   3.810  10.326  1.5366 -0.2750  0.9690
   68CHL1    C4 7443   1.705   3.959  10.097 -0.4109 -0.1922  0.4530
   68CHL1   H4A 7444   1.625   3.890  10.132  0.1161 -0.2168  1.6623
   68CHL1   H4B 7445   1.671   4.059  10.131  0.7385 -0.4333  2.5098
   68CHL1    C5 7446   1.740   3.950   9.951 -0.2070  0.1341  0.0644
   68CHL1    C6 7447   1.739   4.067   9.878 -0.0817 -0.2509 -0.8616
   68CHL1    H6 7448   1.716   4.164   9.924  0.8987 -1.1255  1.6831
   68CHL1    C7 7449   1.768   4.068   9.730  0.3696  0.1878  0.1313
   68CHL1   H7A 7450   1.690   4.129   9.680 -0.0288 -0.1731  0.3075
   68CHL1   H7B 7451   1.873   4.100   9.713  0.8905 -1.0899  0.8187
   68CHL1    C8 7452   1.744   3.927   9.663 -0.9281 -0.1401  0.3564
   68CHL1    H8 7453   1.636   3.904   9.668 -0.6976 -1.3902 -0.0932
   68CHL1   C14 7454   1.793   3.925   9.520 -0.0827 -0.0982 -0.4681
   68CHL1   H14 7455   1.899   3.952   9.537  0.6339 -1.5098 -2.2379
   68CHL1   C15 7456   1.734   4.032   9.424  0.7211  0.7011 -0.0198
   68CHL1  H15A 7457   1.624   4.027   9.440  0.7852 -0.3376  0.2041
   68CHL1  H15B 7458   1.773   4.123   9.474 -0.2827 -0.1831  2.5345
   68CHL1   C16 7459   1.782   3.973   9.286 -0.9403  0.4058 -0.7624
   68CHL1  H16A 7460   1.693   3.955   9.222 -0.8667  0.5838 -0.9146
   68CHL1  H16B 7461   1.849   4.047   9.236  0.1915  0.5769  0.9151
   68CHL1   C17 7462   1.863   3.838   9.312  0.1017 -0.3219 -0.2716
   68CHL1   H17 7463   1.971   3.843   9.335  0.0722 -0.1416 -0.1779
   68CHL1   C13 7464   1.803   3.796   9.451  0.3731 -0.5921  0.8266
   68CHL1   C18 7465   1.661   3.739   9.438  0.6572  0.9089  0.0737
   68CHL1  H18A 7466   1.666   3.631   9.413  1.0089  0.9220  0.0799
   68CHL1  H18B 7467   1.609   3.747   9.536  0.1552 -1.6667  0.1022
   68CHL1  H18C 7468   1.602   3.794   9.362  2.1568  1.6092 -0.6110
   68CHL1   C12 7469   1.887   3.694   9.528 -0.2677 -0.7246  0.5949
   68CHL1  H12A 7470   1.888   3.597   9.473  1.3681  0.9349 -2.6062
   68CHL1  H12B 7471   1.988   3.741   9.531 -0.4533 -0.3342  0.8139
   68CHL1   C11 7472   1.847   3.684   9.673  0.5128 -0.8714 -0.0413
   68CHL1  H11A 7473   1.751   3.627   9.675  0.4775 -0.8753 -1.2184
   68CHL1  H11B 7474   1.911   3.633   9.749 -0.5333 -0.2002  1.3456
   68CHL1    C9 7475   1.826   3.828   9.743 -0.1026  0.7009  0.2860
   68CHL1    H9 7476   1.931   3.863   9.747  0.6255 -1.0231 -1.8002
   68CHL1   C10 7477   1.776   3.810   9.893  0.3847 -0.8949 -0.2715
   68CHL1   C19 7478   1.651   3.709   9.894 -0.6317 -0.0585 -0.9567
   68CHL1  H19A 7479   1.705   3.615   9.866 -0.2904  0.3943 -1.8732
   68CHL1  H19B 7480   1.600   3.704   9.992  0.2570  1.0198 -0.4214
   68CHL1  H19C 7481   1.592   3.723   9.801  2.4519 -0.2578 -3.1101
   68CHL1    C1 7482   1.886   3.751   9.984 -0.7049  0.3221 -0.0529
   68CHL1   H1A 7483   1.905   3.644   9.958  0.5296  0.5565 -0.1566
   68CHL1   H1B 7484   1.977   3.811   9.963 -0.2497 -0.8398 -1.6207
   68CHL1    C2 7485   1.869   3.764  10.139  0.4717  0.7147 -0.0950
   68CHL1   H2A 7486   1.964   3.729  10.185 -0.9590 -2.4647  0.7167
   68CHL1   H2B 7487   1.793   3.689  10.168  0.4450  0.7349 -0.1117
   68CHL1   C20 7488   1.860   3.727   9.200 -0.4416  0.1731 -0.1701
   68CHL1   H20 7489   1.871   3.628   9.249 -0.2564  1.1731  1.9517
   68CHL1   C21 7490   1.990   3.736   9.113  0.3258 -0.6040 -0.0699
   68CHL1  H21A 7491   2.080   3.726   9.178 -1.0283  1.1567  2.2631
   68CHL1  H21B 7492   1.983   3.843   9.082  3.2459 -0.0125  0.9965
   68CHL1  H21C 7493   1.995   3.678   9.019 -0.9305 -0.7314 -0.0814
   68CHL1   C22 7494   1.741   3.735   9.100 -0.1155  0.1718 -0.3020
   68CHL1  H22A 7495   1.652   3.762   9.161  0.1833  0.4076  0.0316
   68CHL1  H22B 7496   1.761   3.816   9.027 -1.1733  1.3505  0.6631
   68CHL1   C23 7497   1.697   3.605   9.036 -0.3834  0.1805  0.1952
   68CHL1  H23A 7498   1.781   3.567   8.973  0.0198 -1.3196  1.5696
   68CHL1  H23B 7499   1.676   3.527   9.112  1.5785 -1.0335 -0.4367
   68CHL1   C24 7500   1.575   3.609   8.942 -0.0346 -0.7996 -0.0101
   68CHL1  H24A 7501   1.577   3.510   8.891 -0.9682 -1.1045  0.5123
   68CHL1  H24B 7502   1.474   3.602   8.988  0.1850 -4.5099  0.1635
   68CHL1   C25 7503   1.581   3.709   8.825 -0.6720 -0.1662 -0.1901
   68CHL1   H25 7504   1.563   3.807   8.874 -3.1754 -1.8649  2.6565
   68CHL1   C26 7505   1.720   3.704   8.757  0.6919  0.6286  0.2181
   68CHL1  H26A 7506   1.711   3.742   8.653 -1.9639 -1.5103 -0.4518
   68CHL1  H26B 7507   1.795   3.753   8.823  1.8086 -0.6402 -0.0611
   68CHL1  H26C 7508   1.756   3.599   8.751 -0.7262 -0.0209  1.9153
   68CHL1   C27 7509   1.461   3.671   8.734  0.1227 -0.5180  0.2738
   68CHL1  H27A 7510   1.461   3.567   8.695 -1.0529 -0.1540 -0.7494
   68CHL1  H27B 7511   1.371   3.691   8.795  1.1922  1.1631  1.3896
   68CHL1  H27C 7512   1.466   3.746   8.652  1.5876 -0.8628  0.0175
   69CHL1    C3 7513   2.579   2.009   6.708 -0.6539 -0.7031 -0.0906
   69CHL1    H3 7514   2.575   2.110   6.753  0.1685 -0.0031 -1.5416
   69CHL1    O3 7515   2.527   2.028   6.579 -0.2765  0.6809  0.2100
   69CHL1   H3' 7516   2.536   1.941   6.541  2.4624  1.6033 -1.5968
   69CHL1    C4 7517   2.724   1.956   6.716 -0.8200  0.1996  0.3624
   69CHL1   H4A 7518   2.718   1.854   6.672  1.1660  0.2854 -0.1939
   69CHL1   H4B 7519   2.794   2.019   6.656 -0.8647  2.3692  2.4388
   69CHL1    C5 7520   2.777   1.935   6.859 -0.0635 -0.9021 -0.1112
   69CHL1    C6 7521   2.892   1.986   6.898  0.6334 -0.0049 -0.1676
   69CHL1    H6 7522   2.954   2.047   6.831  0.6536  1.0650  0.8020
   69CHL1    C7 7523   2.955   1.956   7.029  0.0015  0.3083 -0.1068
   69CHL1   H7A 7524   3.057   1.915   7.013  0.0360  0.8070 -1.2400
   69CHL1   H7B 7525   2.976   2.053   7.078  0.8543  0.5049 -0.8199
   69CHL1    C8 7526   2.877   1.871   7.129  0.2568 -0.0963 -0.2243
   69CHL1    H8 7527   2.906   1.765   7.111  0.1724 -0.3812  1.1969
   69CHL1   C14 7528   2.909   1.912   7.276  0.3935 -0.0207  0.4164
   69CHL1   H14 7529   2.864   2.012   7.296 -3.2024 -1.6187  1.1613
   69CHL1   C15 7530   3.051   1.936   7.313  0.5654 -0.4423 -0.1849
   69CHL1  H15A 7531   3.117   1.852   7.283  1.9258  0.4942  0.1356
   69CHL1  H15B 7532   3.093   2.028   7.267  3.2059 -1.3758  0.1973
   69CHL1   C16 7533   3.054   1.930   7.465  0.3676  0.2689 -0.6301
   69CHL1  H16A 7534   3.125   1.852   7.497 -3.3672 -2.5642  1.5693
   69CHL1  H16B 7535   3.089   2.029   7.502  0.7337  0.8454 -2.4037
   69CHL1   C17 7536   2.909   1.884   7.509 -0.4122 -0.2655  0.1922
   69CHL1   H17 7537   2.852   1.975   7.537  1.9667  0.9213  1.5550
   69CHL1   C13 7538   2.846   1.828   7.382 -0.0935 -0.2011 -0.1257
   69CHL1   C18 7539   2.894   1.676   7.369 -0.6923  0.0222  0.3800
   69CHL1  H18A 7540   2.851   1.619   7.454 -0.7164 -0.5103  0.0125
   69CHL1  H18B 7541   2.868   1.629   7.272 -0.9600 -0.0529  0.4853
   69CHL1  H18C 7542   3.004   1.681   7.388 -0.1886 -0.0048 -2.2462
   69CHL1   C12 7543   2.690   1.855   7.364 -0.3490 -0.3277 -0.5912
   69CHL1  H12A 7544   2.638   1.777   7.423  2.1535 -1.6850 -0.0206
   69CHL1  H12B 7545   2.664   1.953   7.411  2.0414  0.4028 -0.6352
   69CHL1   C11 7546   2.644   1.824   7.218  0.0202 -0.3862 -0.6092
   69CHL1  H11A 7547   2.661   1.716   7.202 -0.8307 -0.5407 -0.4927
   69CHL1  H11B 7548   2.534   1.834   7.222 -0.0202 -1.1902  1.2491
   69CHL1    C9 7549   2.724   1.896   7.109  0.2773 -0.4806  0.5468
   69CHL1    H9 7550   2.704   2.001   7.140 -0.7535 -0.6357  0.4532
   69CHL1   C10 7551   2.682   1.869   6.964  0.3926  0.3734  0.6561
   69CHL1   C19 7552   2.698   1.717   6.932 -0.2698  0.4463  0.2181
   69CHL1  H19A 7553   2.806   1.693   6.933  0.2231  2.1265 -2.6371
   69CHL1  H19B 7554   2.648   1.658   7.012 -0.0898  0.2206  0.1613
   69CHL1  H19C 7555   2.671   1.684   6.829  2.2328  0.2720 -0.4467
   69CHL1    C1 7556   2.534   1.912   6.933 -0.5929  0.4955 -0.2374
   69CHL1   H1A 7557   2.463   1.848   6.989 -0.8251 -1.2983 -2.4283
   69CHL1   H1B 7558   2.518   2.010   6.982 -1.5664  0.6064 -0.7691
   69CHL1    C2 7559   2.501   1.904   6.783  0.5372 -0.6283 -0.7389
   69CHL1   H2A 7560   2.391   1.912   6.774  0.6874 -0.3297 -2.6745
   69CHL1   H2B 7561   2.510   1.800   6.744 -1.6029 -1.4505  0.7647
   69CHL1   C20 7562   2.906   1.793   7.630  0.4025  0.5735  1.1300
   69CHL1   H20 7563   2.959   1.696   7.618 -1.7628 -0.6147  0.7625
   69CHL1   C21 7564   2.756   1.762   7.665  0.3661  0.3302 -0.4166
   69CHL1  H21A 7565   2.719   1.684   7.595  0.7884  0.1936 -0.4891
   69CHL1  H21B 7566   2.697   1.856   7.655  0.2050  0.7613  3.3161
   69CHL1  H21C 7567   2.741   1.735   7.771  1.9305 -2.5833 -0.8455
   69CHL1   C22 7568   2.967   1.862   7.757 -0.3506  0.6511  0.1576
   69CHL1  H22A 7569   3.062   1.904   7.717 -0.7610  0.3398 -1.2024
   69CHL1  H22B 7570   2.904   1.948   7.790 -3.9604 -0.3141 -3.3777
   69CHL1   C23 7571   2.992   1.761   7.870 -0.5873 -0.5404  0.5347
   69CHL1  H23A 7572   2.899   1.716   7.912 -0.7532 -0.1597  0.5835
   69CHL1  H23B 7573   3.059   1.677   7.844  0.4488 -0.0310  1.4713
   69CHL1   C24 7574   3.055   1.818   8.002 -0.4011 -0.1677 -0.6201
   69CHL1  H24A 7575   2.984   1.893   8.045  0.3104  0.4173 -0.4436
   69CHL1  H24B 7576   3.066   1.735   8.076  0.2953 -0.1965 -0.7497
   69CHL1   C25 7577   3.199   1.886   7.988  0.0549 -0.2626  0.0415
   69CHL1   H25 7578   3.184   1.990   7.951 -0.2451  0.0133  0.9194
   69CHL1   C26 7579   3.255   1.913   8.126 -0.0772 -0.2216 -0.8293
   69CHL1  H26A 7580   3.334   1.990   8.114 -0.3941  0.1778 -0.4042
   69CHL1  H26B 7581   3.178   1.956   8.194  0.7567 -0.4469  0.2877
   69CHL1  H26C 7582   3.297   1.818   8.167 -0.5977 -0.0848  0.0565
   69CHL1   C27 7583   3.292   1.814   7.898  0.3828 -0.1984 -0.0247
   69CHL1  H27A 7584   3.308   1.708   7.928  0.1919 -0.0276  0.6855
   69CHL1  H27B 7585   3.259   1.801   7.792 -2.4795 -0.9398  0.8634
   69CHL1  H27C 7586   3.393   1.860   7.898  0.3444  0.0140 -2.4250
   70CHL1    C3 7587   5.790   5.273   6.973 -0.3244 -0.3904 -0.3144
   70CHL1    H3 7588   5.854   5.361   6.997 -2.7713  1.5965 -0.6585
   70CHL1    O3 7589   5.756   5.282   6.839  0.0457  0.4565 -0.3685
   70CHL1   H3' 7590   5.679   5.224   6.834 -0.7596  1.4140  0.5153
   70CHL1    C4 7591   5.867   5.147   7.004 -0.2303  0.3792 -0.2969
   70CHL1   H4A 7592   5.813   5.054   6.976  1.0794 -0.6166  0.3611
   70CHL1   H4B 7593   5.949   5.150   6.929 -0.6107  0.2508 -0.7215
   70CHL1    C5 7594   5.915   5.133   7.147 -0.5127 -0.0109  0.6317
   70CHL1    C6 7595   6.042   5.122   7.181  0.0598  0.1071  0.1253
   70CHL1    H6 7596   6.118   5.127   7.102 -0.5162 -1.2132 -0.5311
   70CHL1    C7 7597   6.094   5.112   7.324  0.1222 -0.6428  0.5809
   70CHL1   H7A 7598   6.176   5.038   7.329  0.6091 -0.1216  0.4009
   70CHL1   H7B 7599   6.135   5.210   7.355 -3.1320  0.9712  0.1556
   70CHL1    C8 7600   5.982   5.066   7.426  0.6278 -0.3811  0.5771
   70CHL1    H8 7601   5.962   4.958   7.409 -1.8847  0.3900 -2.0633
   70CHL1   C14 7602   6.030   5.087   7.564 -0.3081  0.3557 -0.0010
   70CHL1   H14 7603   6.051   5.196   7.579  0.6452 -0.1014  2.3942
   70CHL1   C15 7604   6.162   5.025   7.605 -0.0951 -0.3967 -0.6342
   70CHL1  H15A 7605   6.181   4.928   7.555  0.2067  0.7439 -2.8456
   70CHL1  H15B 7606   6.249   5.087   7.574 -1.6993  1.9422 -0.7244
   70CHL1   C16 7607   6.152   5.016   7.765 -0.4495  0.8362 -0.2785
   70CHL1  H16A 7608   6.135   4.911   7.796  0.2147  0.4801 -1.1063
   70CHL1  H16B 7609   6.237   5.048   7.829 -0.2844 -2.3285  1.2801
   70CHL1   C17 7610   6.016   5.085   7.799 -0.3946  0.4274 -0.8497
   70CHL1   H17 7611   6.042   5.192   7.813  0.2540  0.3276 -1.2726
   70CHL1   C13 7612   5.929   5.063   7.682  0.5404  0.1330  0.0302
   70CHL1   C18 7613   5.893   4.913   7.663 -0.0525 -0.3526  0.2570
   70CHL1  H18A 7614   5.978   4.843   7.646 -0.4209 -0.7980  0.2095
   70CHL1  H18B 7615   5.848   4.875   7.757 -1.9913  1.8600  0.3063
   70CHL1  H18C 7616   5.825   4.893   7.576 -0.0413 -0.0688  0.1829
   70CHL1   C12 7617   5.804   5.146   7.659  0.5279 -0.5684 -0.8547
   70CHL1  H12A 7618   5.719   5.102   7.716  0.1745  0.6666 -0.4060
   70CHL1  H12B 7619   5.831   5.252   7.677  1.2255 -0.7883 -0.5869
   70CHL1   C11 7620   5.748   5.135   7.515  0.1557 -0.2135 -0.0682
   70CHL1  H11A 7621   5.691   5.041   7.501  0.4964 -0.3701 -0.3976
   70CHL1  H11B 7622   5.679   5.222   7.512  0.7764  0.2731 -0.6634
   70CHL1    C9 7623   5.851   5.155   7.397 -0.2923  1.5890 -0.2675
   70CHL1    H9 7624   5.891   5.258   7.412 -2.1367  2.1312  1.2498
   70CHL1   C10 7625   5.804   5.144   7.248  0.3297  0.4431  0.4310
   70CHL1   C19 7626   5.722   5.011   7.242 -0.1036 -0.2990 -0.0662
   70CHL1  H19A 7627   5.786   4.924   7.267  1.9284  0.9592 -0.6698
   70CHL1  H19B 7628   5.637   5.012   7.314 -0.0447  1.6135  0.0206
   70CHL1  H19C 7629   5.664   4.996   7.148 -3.4149  2.1345  1.4039
   70CHL1    C1 7630   5.714   5.268   7.218 -0.5658  0.2040 -0.0724
   70CHL1   H1A 7631   5.618   5.276   7.272 -1.0640 -1.4272 -0.6621
   70CHL1   H1B 7632   5.780   5.352   7.249 -1.2147  1.0774 -1.0210
   70CHL1    C2 7633   5.665   5.280   7.067  0.1692 -0.3832  0.0455
   70CHL1   H2A 7634   5.627   5.384   7.054  0.5813 -0.5099 -2.9761
   70CHL1   H2B 7635   5.583   5.211   7.040  1.1933 -2.5557  2.1482
   70CHL1   C20 7636   5.967   5.040   7.936 -0.0581 -0.6852 -0.1604
   70CHL1   H20 7637   5.945   4.931   7.941  0.3549 -0.7491  0.2553
   70CHL1   C21 7638   5.838   5.110   7.978  0.1657 -0.0605  0.0900
   70CHL1  H21A 7639   5.829   5.213   7.939  2.4773 -0.2562 -1.1645
   70CHL1  H21B 7640   5.832   5.108   8.089 -0.0305 -2.7213  0.1144
   70CHL1  H21C 7641   5.749   5.056   7.940  0.7069  0.2620 -1.7201
   70CHL1   C22 7642   6.070   5.053   8.048 -1.0453  0.0979 -1.0407
   70CHL1  H22A 7643   6.169   5.021   8.010 -0.6098 -0.0893  0.1895
   70CHL1  H22B 7644   6.077   5.160   8.077  0.3366 -0.6996  2.0269
   70CHL1   C23 7645   6.047   4.954   8.163 -0.4557 -0.4411 -0.1469
   70CHL1  H23A 7646   5.950   4.966   8.215 -0.7369 -0.0692 -0.7491
   70CHL1  H23B 7647   6.064   4.850   8.129 -0.2002 -0.2614 -0.5857
   70CHL1   C24 7648   6.154   4.987   8.268 -0.3762 -0.0082 -0.2249
   70CHL1  H24A 7649   6.256   5.007   8.229 -1.1098 -0.5496 -2.6134
   70CHL1  H24B 7650   6.133   5.086   8.314 -1.7016 -0.3347 -0.0745
   70CHL1   C25 7651   6.166   4.880   8.386 -0.6706  0.1762 -0.2515
   70CHL1   H25 7652   6.162   4.779   8.340  1.8915 -1.3735  2.5932
   70CHL1   C26 7653   6.290   4.912   8.458 -0.6698  0.7294 -0.2758
   70CHL1  H26A 7654   6.371   4.882   8.388 -0.5159  2.4139 -0.8839
   70CHL1  H26B 7655   6.307   5.017   8.492  0.6876  0.4220  0.0884
   70CHL1  H26C 7656   6.304   4.852   8.550  1.4941  2.8848  0.9476
   70CHL1   C27 7657   6.042   4.901   8.482 -0.3055 -0.2969  0.5820
   70CHL1  H27A 7658   6.059   4.826   8.562  0.6763 -0.7801 -0.0448
   70CHL1  H27B 7659   6.039   4.999   8.533 -0.4945 -0.2488  0.4792
   70CHL1  H27C 7660   5.950   4.881   8.423  0.4118  1.1244 -1.1110
   71CHL1    C3 7661   0.838   1.149   6.799 -0.0898  0.0630  0.3099
   71CHL1    H3 7662   0.807   1.042   6.801 -0.6438  0.0967 -2.3681
   71CHL1    O3 7663   0.826   1.183   6.663 -0.0160  0.2484  0.0085
   71CHL1   H3' 7664   0.878   1.263   6.656  0.7805 -0.2812 -0.1658
   71CHL1    C4 7665   0.746   1.244   6.884  0.3239  0.7013  0.2722
   71CHL1   H4A 7666   0.771   1.350   6.859 -1.4258  1.5471  1.8838
   71CHL1   H4B 7667   0.641   1.220   6.860  1.0486 -4.8401  1.1814
   71CHL1    C5 7668   0.771   1.226   7.037 -0.0911  0.8719 -0.3333
   71CHL1    C6 7669   0.679   1.180   7.127 -0.0276 -0.4831  0.4568
   71CHL1    H6 7670   0.582   1.145   7.088 -1.8250  3.8686  0.3356
   71CHL1    C7 7671   0.703   1.181   7.280 -0.1675 -0.1239  0.2841
   71CHL1   H7A 7672   0.625   1.243   7.330 -0.1993  1.6279 -1.7907
   71CHL1   H7B 7673   0.700   1.076   7.317  0.8163 -0.4697 -0.5855
   71CHL1    C8 7674   0.834   1.250   7.330 -0.1240  0.5312  0.7149
   71CHL1    H8 7675   0.822   1.360   7.326 -1.3631  0.3847  0.1877
   71CHL1   C14 7676   0.858   1.197   7.469 -0.0584 -0.4973 -0.7768
   71CHL1   H14 7677   0.869   1.088   7.449  0.6188 -0.5056 -0.3963
   71CHL1   C15 7678   0.747   1.218   7.576  0.3035  0.1347  0.0920
   71CHL1  H15A 7679   0.727   1.327   7.584 -0.2516 -0.0262  1.0540
   71CHL1  H15B 7680   0.656   1.160   7.551  0.9441  0.1059 -2.5128
   71CHL1   C16 7681   0.828   1.173   7.700  0.5277  0.4129 -0.2117
   71CHL1  H16A 7682   0.805   1.247   7.779 -0.4981  1.0389 -1.0635
   71CHL1  H16B 7683   0.783   1.075   7.727 -2.1450  0.8310 -2.5434
   71CHL1   C17 7684   0.984   1.172   7.656  0.5591  0.0490 -0.5777
   71CHL1   H17 7685   1.015   1.070   7.625  0.2349 -0.5814  1.0606
   71CHL1   C13 7686   0.987   1.247   7.530  0.0068 -0.3010  0.2332
   71CHL1   C18 7687   0.984   1.401   7.561  0.0730  0.2333 -0.2200
   71CHL1  H18A 7688   1.087   1.438   7.579  0.4751 -0.4163 -1.1251
   71CHL1  H18B 7689   0.949   1.459   7.473  3.3627  1.2262 -1.0374
   71CHL1  H18C 7690   0.922   1.439   7.645  1.1250 -0.0556  0.7102
   71CHL1   C12 7691   1.111   1.228   7.431 -0.4941 -0.6908 -0.0343
   71CHL1  H12A 7692   1.195   1.288   7.471 -0.8181 -2.1439  3.1973
   71CHL1  H12B 7693   1.142   1.122   7.443  0.9912 -0.4020 -1.0018
   71CHL1   C11 7694   1.081   1.266   7.287  0.2153 -0.5890 -0.3256
   71CHL1  H11A 7695   1.077   1.377   7.290 -1.3219 -0.6041 -0.7250
   71CHL1  H11B 7696   1.162   1.232   7.219  1.6386 -0.6145  1.3199
   71CHL1    C9 7697   0.944   1.212   7.230  0.2527  0.2215  0.2091
   71CHL1    H9 7698   0.949   1.101   7.221  0.5974  0.2155  0.4601
   71CHL1   C10 7699   0.919   1.252   7.079 -0.4238 -0.3116  0.5062
   71CHL1   C19 7700   0.948   1.397   7.054  0.1847  0.3631 -0.0046
   71CHL1  H19A 7701   0.951   1.403   6.943  1.8141 -2.0563 -0.1696
   71CHL1  H19B 7702   0.865   1.457   7.096  1.3486  2.1405 -0.1481
   71CHL1  H19C 7703   1.040   1.446   7.093  0.7657 -0.4626 -0.3093
   71CHL1    C1 7704   1.012   1.171   6.989  0.1907 -0.3266  0.4572
   71CHL1   H1A 7705   1.114   1.207   7.015  1.5138 -3.9812  0.8347
   71CHL1   H1B 7706   1.006   1.062   7.011  0.2786 -1.2977 -3.6450
   71CHL1    C2 7707   0.986   1.169   6.835 -0.8918  0.1242  0.4294
   71CHL1   H2A 7708   1.043   1.096   6.774 -1.2912  0.1191  0.0510
   71CHL1   H2B 7709   1.021   1.269   6.803  2.1986 -0.3526  1.9942
   71CHL1   C20 7710   1.076   1.198   7.773  0.4928 -0.0662  1.0145
   71CHL1   H20 7711   1.063   1.298   7.819  1.8414  0.2966  0.6586
   71CHL1   C21 7712   1.225   1.200   7.735 -0.8430 -0.1653 -0.1170
   71CHL1  H21A 7713   1.252   1.284   7.667  0.6185 -0.3615  0.1737
   71CHL1  H21B 7714   1.248   1.103   7.687  1.2518  0.7086 -0.9885
   71CHL1  H21C 7715   1.272   1.204   7.836  0.1765 -4.2822 -0.2652
   71CHL1   C22 7716   1.056   1.094   7.882 -0.4939 -0.1389  0.1025
   71CHL1  H22A 7717   0.950   1.062   7.882 -1.1840  1.6341 -3.3144
   71CHL1  H22B 7718   1.110   1.000   7.862 -0.1190 -0.0807  0.8089
   71CHL1   C23 7719   1.085   1.143   8.026  0.3249  0.5808 -0.4635
   71CHL1  H23A 7720   1.191   1.175   8.037 -0.1019  1.4883  1.3695
   71CHL1  H23B 7721   1.046   1.246   8.038 -0.9467  0.0129  0.5467
   71CHL1   C24 7722   1.034   1.055   8.146 -0.1123  0.2121 -0.7546
   71CHL1  H24A 7723   0.932   1.020   8.120 -0.4695  1.2727 -0.8493
   71CHL1  H24B 7724   1.094   0.962   8.158 -0.1692  0.4014  1.5124
   71CHL1   C25 7725   1.055   1.114   8.293 -1.1227  0.4835  0.4529
   71CHL1   H25 7726   0.986   1.198   8.313 -2.0234 -0.1924  0.2206
   71CHL1   C26 7727   1.024   1.011   8.408  0.0480 -0.1319  0.2051
   71CHL1  H26A 7728   1.090   0.921   8.408 -0.9973 -0.9281  1.4475
   71CHL1  H26B 7729   1.019   1.054   8.510  1.9925  0.5683  0.0521
   71CHL1  H26C 7730   0.920   0.978   8.385  0.5145 -0.0625 -2.3512
   71CHL1   C27 7731   1.192   1.177   8.316 -0.4923  0.5398 -0.7696
   71CHL1  H27A 7732   1.207   1.268   8.254  1.1391  2.1122  1.7539
   71CHL1  H27B 7733   1.207   1.198   8.424 -0.4149 -1.3823 -0.3763
   71CHL1  H27C 7734   1.262   1.096   8.288  1.2090  0.5532  2.8181
   72CHL1    C3 7735   0.268   0.488   7.022  0.4961 -0.3540  0.0126
   72CHL1    H3 7736   0.197   0.573   7.028  0.6701  0.0896 -2.8801
   72CHL1    O3 7737   0.301   0.475   6.887 -0.1853 -0.1796  0.2083
   72CHL1   H3' 7738   0.333   0.562   6.863 -0.9286 -0.8542 -3.9807
   72CHL1    C4 7739   0.395   0.513   7.103  0.2669  0.0235 -0.2178
   72CHL1   H4A 7740   0.470   0.433   7.086  0.3283  0.1133 -0.3674
   72CHL1   H4B 7741   0.436   0.605   7.057 -0.3710  0.1891 -0.4718
   72CHL1    C5 7742   0.367   0.516   7.258 -0.2251  0.4913  0.0914
   72CHL1    C6 7743   0.386   0.614   7.347  0.4206  0.5037 -0.4806
   72CHL1    H6 7744   0.422   0.713   7.314 -0.9691  1.3974  0.5757
   72CHL1    C7 7745   0.383   0.599   7.497  0.0462 -0.0809 -0.1997
   72CHL1   H7A 7746   0.474   0.647   7.540  0.0688  1.0252 -1.4047
   72CHL1   H7B 7747   0.293   0.656   7.526  1.4018  2.4167 -0.6219
   72CHL1    C8 7748   0.361   0.451   7.547 -0.3813 -0.2283 -0.0979
   72CHL1    H8 7749   0.458   0.397   7.551  0.7258  1.7372  1.0491
   72CHL1   C14 7750   0.309   0.449   7.683  1.2887  0.8031 -0.6311
   72CHL1   H14 7751   0.205   0.490   7.677  1.0965  0.8897  1.9050
   72CHL1   C15 7752   0.385   0.521   7.793 -0.3038 -0.1073 -0.4727
   72CHL1  H15A 7753   0.489   0.489   7.770 -0.1207 -0.7993  1.1871
   72CHL1  H15B 7754   0.391   0.632   7.795  0.8341 -0.1683  0.8147
   72CHL1   C16 7755   0.334   0.461   7.917 -0.1523  0.5125 -0.4320
   72CHL1  H16A 7756   0.413   0.424   7.986 -2.6857 -1.8102  1.4475
   72CHL1  H16B 7757   0.268   0.532   7.972 -0.9309 -0.6350  0.1503
   72CHL1   C17 7758   0.251   0.331   7.882  0.5568 -0.3413 -0.1117
   72CHL1   H17 7759   0.146   0.365   7.880  0.2869 -1.0719  1.0596
   72CHL1   C13 7760   0.290   0.308   7.737 -0.3934  0.1680 -0.0140
   72CHL1   C18 7761   0.427   0.232   7.743 -0.0555 -0.6817 -0.6041
   72CHL1  H18A 7762   0.412   0.122   7.745 -1.8741 -0.4531 -0.5438
   72CHL1  H18B 7763   0.493   0.248   7.655 -0.4005  0.4683 -0.6678
   72CHL1  H18C 7764   0.497   0.261   7.825 -0.6844  0.0453 -0.3231
   72CHL1   C12 7765   0.183   0.232   7.648  0.0835 -0.4949 -1.0763
   72CHL1  H12A 7766   0.181   0.124   7.673  1.5478 -0.6130 -1.3789
   72CHL1  H12B 7767   0.086   0.283   7.664  0.5768 -0.2604  1.5623
   72CHL1   C11 7768   0.240   0.233   7.511 -0.2591 -0.5109 -0.6110
   72CHL1  H11A 7769   0.334   0.174   7.511  1.1142  1.5851 -1.6029
   72CHL1  H11B 7770   0.177   0.176   7.440  0.2888 -1.7255 -0.1608
   72CHL1    C9 7771   0.270   0.374   7.451  0.2921 -0.2015  0.4123
   72CHL1    H9 7772   0.174   0.431   7.444 -0.3712 -1.4211 -0.8426
   72CHL1   C10 7773   0.317   0.369   7.301 -0.8769 -0.2367  0.7351
   72CHL1   C19 7774   0.430   0.271   7.294 -0.4805  0.1996  0.0099
   72CHL1  H19A 7775   0.404   0.164   7.310 -0.9792 -0.2013 -2.9004
   72CHL1  H19B 7776   0.478   0.254   7.195 -0.9984 -0.1952 -0.1796
   72CHL1  H19C 7777   0.514   0.302   7.359 -0.1766  0.0735 -0.3191
   72CHL1    C1 7778   0.200   0.334   7.211  0.0496  0.0158 -0.0878
   72CHL1   H1A 7779   0.156   0.236   7.238  1.0614 -0.0828  1.3145
   72CHL1   H1B 7780   0.119   0.405   7.240  0.3659  1.0725 -1.6736
   72CHL1    C2 7781   0.205   0.359   7.061 -0.6459 -0.6284 -0.0239
   72CHL1   H2A 7782   0.099   0.345   7.029 -0.9066  2.7768 -1.0383
   72CHL1   H2B 7783   0.256   0.275   7.010 -0.4911 -0.2144 -0.5553
   72CHL1   C20 7784   0.255   0.220   7.991 -0.1413 -0.1906  0.6162
   72CHL1   H20 7785   0.348   0.159   7.984 -0.7104 -1.3350  2.4397
   72CHL1   C21 7786   0.140   0.122   7.971 -0.2029 -0.1815  0.3428
   72CHL1  H21A 7787   0.045   0.173   7.941  0.1574  0.1760 -0.2159
   72CHL1  H21B 7788   0.128   0.047   8.051 -0.5155  1.7917  2.2387
   72CHL1  H21C 7789   0.177   0.063   7.884  0.6429 -2.0979  1.9402
   72CHL1   C22 7790   0.249   0.269   8.142 -0.5288  0.1536  0.4156
   72CHL1  H22A 7791   0.256   0.179   8.207 -0.3024 -0.2720 -0.1855
   72CHL1  H22B 7792   0.335   0.336   8.161 -0.0704 -0.8579  2.1831
   72CHL1   C23 7793   0.118   0.346   8.180  0.7231  0.4953  0.0023
   72CHL1  H23A 7794   0.114   0.441   8.124 -0.3282  0.7153  0.4162
   72CHL1  H23B 7795   0.020   0.295   8.164 -0.4427  2.4550  0.5224
   72CHL1   C24 7796   0.124   0.385   8.331  0.2759  0.4241  0.1481
   72CHL1  H24A 7797   0.035   0.336   8.377  0.3363 -1.2235 -1.3845
   72CHL1  H24B 7798   0.209   0.328   8.376 -0.3604 -0.0711  0.7562
   72CHL1   C25 7799   0.127   0.535   8.362 -0.0431  0.2495 -0.2080
   72CHL1   H25 7800   0.035   0.572   8.312 -1.9852 -1.3093  1.9861
   72CHL1   C26 7801   0.104   0.577   8.509 -0.1589  0.1038 -0.8374
   72CHL1  H26A 7802   0.114   0.686   8.524  2.1102 -0.1679  0.0428
   72CHL1  H26B 7803   0.006   0.534   8.541 -0.5052  0.2811 -1.6385
   72CHL1  H26C 7804   0.183   0.533   8.574 -0.1917  0.7153 -0.3700
   72CHL1   C27 7805   0.261   0.602   8.315  0.5164 -0.1501  0.1221
   72CHL1  H27A 7806   0.266   0.704   8.359  1.4336 -0.2977  0.3916
   72CHL1  H27B 7807   0.347   0.537   8.343 -0.3242 -1.1398  0.4921
   72CHL1  H27C 7808   0.266   0.618   8.205 -0.0874 -0.2960  0.0727
   73CHL1    C3 7809   2.151   2.151   6.999  0.2017 -0.2908  0.0179
   73CHL1    H3 7810   2.211   2.072   6.949 -1.2120 -0.7888 -0.9604
   73CHL1    O3 7811   2.077   2.220   6.900 -0.1358  0.6884 -0.0157
   73CHL1   H3' 7812   2.000   2.170   6.874 -0.3999  1.8417 -1.5674
   73CHL1    C4 7813   2.047   2.090   7.099 -0.1447 -1.1816 -0.2043
   73CHL1   H4A 7814   1.968   2.166   7.119  0.7508 -0.2413 -0.1623
   73CHL1   H4B 7815   1.997   2.008   7.042 -0.3046 -1.8235  0.8423
   73CHL1    C5 7816   2.100   2.033   7.230 -0.1559 -0.6147 -0.0147
   73CHL1    C6 7817   2.057   1.914   7.278  0.3981 -0.4732  0.1801
   73CHL1    H6 7818   1.973   1.873   7.220  1.0764  0.3184 -1.4321
   73CHL1    C7 7819   2.106   1.850   7.413  0.0155 -0.3744 -0.0649
   73CHL1   H7A 7820   2.034   1.802   7.483  0.8999  0.3763  1.3846
   73CHL1   H7B 7821   2.165   1.758   7.393  0.3439 -0.6403  1.9824
   73CHL1    C8 7822   2.186   1.951   7.504 -0.9108 -0.6830  0.0638
   73CHL1    H8 7823   2.115   2.018   7.557 -1.2677 -0.6973 -0.3822
   73CHL1   C14 7824   2.263   1.877   7.614 -0.4728  0.6997 -0.2561
   73CHL1   H14 7825   2.336   1.816   7.556 -0.9041 -0.8385  0.7464
   73CHL1   C15 7826   2.181   1.782   7.710 -0.6811 -0.6279 -0.7871
   73CHL1  H15A 7827   2.083   1.828   7.734  1.5161  3.7188  0.8497
   73CHL1  H15B 7828   2.168   1.679   7.671 -0.8881 -1.0823  0.4226
   73CHL1   C16 7829   2.267   1.782   7.838 -0.1858 -0.5848 -0.1688
   73CHL1  H16A 7830   2.205   1.831   7.916 -0.2504  1.5055 -1.4272
   73CHL1  H16B 7831   2.295   1.681   7.875 -0.7194 -0.5965  0.2243
   73CHL1   C17 7832   2.391   1.875   7.812 -0.1899 -0.5106 -0.2927
   73CHL1   H17 7833   2.473   1.810   7.775  0.8564 -0.0523  1.1493
   73CHL1   C13 7834   2.344   1.975   7.704 -0.4768 -0.4037  0.4062
   73CHL1   C18 7835   2.245   2.081   7.769  0.1012 -0.2696  0.1765
   73CHL1  H18A 7836   2.170   2.041   7.841 -0.9019 -1.3732 -1.4346
   73CHL1  H18B 7837   2.306   2.153   7.827  0.7480  1.5245 -2.5773
   73CHL1  H18C 7838   2.203   2.148   7.691 -0.2881 -0.7069 -0.0015
   73CHL1   C12 7839   2.452   2.050   7.615 -0.5869 -0.0901  0.9226
   73CHL1  H12A 7840   2.505   2.111   7.691  1.7778 -0.7776 -0.0617
   73CHL1  H12B 7841   2.528   1.973   7.587  1.4738  1.4062  2.0981
   73CHL1   C11 7842   2.389   2.113   7.498 -0.5202 -0.0668 -0.3082
   73CHL1  H11A 7843   2.336   2.206   7.529 -0.0530 -0.3421  1.4096
   73CHL1  H11B 7844   2.469   2.151   7.431 -0.2491 -0.9623 -0.5031
   73CHL1    C9 7845   2.287   2.032   7.413  1.1546  0.1879  0.0583
   73CHL1    H9 7846   2.351   1.956   7.362 -1.0872 -1.0846 -0.9987
   73CHL1   C10 7847   2.210   2.113   7.306  0.8633  0.1755  0.4099
   73CHL1   C19 7848   2.133   2.228   7.370 -0.2927 -0.1196 -0.4645
   73CHL1  H19A 7849   2.093   2.296   7.293  1.1747  1.6481  0.2587
   73CHL1  H19B 7850   2.049   2.185   7.429 -0.8395 -2.0276 -2.4897
   73CHL1  H19C 7851   2.194   2.302   7.426 -0.6109  2.7034 -3.5872
   73CHL1    C1 7852   2.310   2.172   7.198  0.6640 -0.0554 -0.0708
   73CHL1   H1A 7853   2.367   2.254   7.247 -1.4899  1.1836  0.5016
   73CHL1   H1B 7854   2.372   2.082   7.176  1.2572  0.8970 -2.6882
   73CHL1    C2 7855   2.248   2.244   7.075 -0.8825 -0.4128 -0.2531
   73CHL1   H2A 7856   2.336   2.261   7.009 -0.1212 -2.3111  0.1938
   73CHL1   H2B 7857   2.203   2.344   7.092  1.9252  0.9509 -0.3562
   73CHL1   C20 7858   2.454   1.938   7.939  1.0958  0.3234 -0.1130
   73CHL1   H20 7859   2.398   2.032   7.958 -1.2034 -0.5176 -2.2515
   73CHL1   C21 7860   2.602   1.964   7.917  0.9166 -0.6384  0.3675
   73CHL1  H21A 7861   2.660   1.874   7.946  1.4890 -0.4083 -0.0446
   73CHL1  H21B 7862   2.643   2.038   7.989 -0.0879 -2.8312  3.3699
   73CHL1  H21C 7863   2.620   1.999   7.813  0.2722  1.0945  0.8124
   73CHL1   C22 7864   2.437   1.855   8.070  0.0567 -0.8264 -0.4134
   73CHL1  H22A 7865   2.331   1.823   8.077 -0.9006  2.2963  1.4366
   73CHL1  H22B 7866   2.501   1.764   8.071  0.7236 -0.3658  0.6314
   73CHL1   C23 7867   2.458   1.933   8.199 -0.1145 -0.6590  0.1165
   73CHL1  H23A 7868   2.562   1.973   8.204  0.2847 -1.7771  1.5803
   73CHL1  H23B 7869   2.390   2.021   8.191  0.3787 -0.2417  0.4656
   73CHL1   C24 7870   2.408   1.861   8.327  0.0481  0.0431  0.9468
   73CHL1  H24A 7871   2.300   1.849   8.305  0.4951 -0.7609 -0.9912
   73CHL1  H24B 7872   2.455   1.763   8.349 -2.0008 -1.1251  0.4324
   73CHL1   C25 7873   2.436   1.939   8.454 -0.6778 -0.6142 -0.5428
   73CHL1   H25 7874   2.544   1.947   8.476 -0.7332  0.3617 -0.5802
   73CHL1   C26 7875   2.378   2.082   8.445 -0.4973  0.0022 -0.0162
   73CHL1  H26A 7876   2.411   2.131   8.351 -2.1020  0.3218 -0.4506
   73CHL1  H26B 7877   2.269   2.063   8.431 -0.5186 -1.2218  1.5291
   73CHL1  H26C 7878   2.399   2.160   8.521  0.3145  2.1064 -2.2838
   73CHL1   C27 7879   2.373   1.864   8.572 -0.1313  0.0020 -0.8197
   73CHL1  H27A 7880   2.414   1.761   8.577  0.7937  0.2890 -2.0677
   73CHL1  H27B 7881   2.388   1.918   8.668  0.8652 -2.0742  0.2521
   73CHL1  H27C 7882   2.266   1.869   8.541  0.8025  2.6137 -4.2972
   74CHL1    C3 7883   0.462   6.175   6.975  1.0430 -0.3857  0.2532
   74CHL1    H3 7884   0.500   6.073   6.951  2.2693  0.0949  0.0918
   74CHL1    O3 7885   0.462   6.245   6.853 -0.1534 -0.1473  0.3875
   74CHL1   H3' 7886   0.408   6.324   6.865 -0.8948 -0.1444 -2.1900
   74CHL1    C4 7887   0.315   6.164   7.031 -0.1996 -0.2772 -0.3544
   74CHL1   H4A 7888   0.271   6.266   7.018  0.8647  0.1525 -0.6681
   74CHL1   H4B 7889   0.265   6.095   6.960 -1.7151  0.0672  0.3198
   74CHL1    C5 7890   0.307   6.128   7.176 -0.2310 -0.2603  0.0912
   74CHL1    C6 7891   0.223   6.035   7.210  0.1354  0.0448 -0.0148
   74CHL1    H6 7892   0.182   5.979   7.125  1.6903  0.8800 -1.3735
   74CHL1    C7 7893   0.199   5.992   7.351  0.4400  0.2639  0.3970
   74CHL1   H7A 7894   0.090   5.981   7.370  0.0365  0.7010 -1.4822
   74CHL1   H7B 7895   0.232   5.889   7.378 -2.3325 -0.2983  2.0284
   74CHL1    C8 7896   0.254   6.092   7.459  0.3309 -0.0526  0.3141
   74CHL1    H8 7897   0.185   6.179   7.466 -1.1052 -1.0885 -0.4925
   74CHL1   C14 7898   0.260   6.021   7.589  0.0988  0.7768 -0.6051
   74CHL1   H14 7899   0.329   5.935   7.577  1.2305  1.7842 -1.6250
   74CHL1   C15 7900   0.125   5.959   7.637 -0.8315 -0.7767 -0.1746
   74CHL1  H15A 7901   0.042   6.032   7.628  0.0125  0.2967  0.4311
   74CHL1  H15B 7902   0.096   5.868   7.581 -2.6034  0.9343 -2.1863
   74CHL1   C16 7903   0.156   5.936   7.788  0.3184  0.0588 -0.5708
   74CHL1  H16A 7904   0.078   5.978   7.855 -0.1357 -0.7941 -0.5604
   74CHL1  H16B 7905   0.159   5.826   7.802  0.9449  0.1144 -0.2111
   74CHL1   C17 7906   0.294   6.005   7.822 -0.1046  0.4435 -0.8182
   74CHL1   H17 7907   0.368   5.925   7.804 -0.0856  0.3137 -0.1903
   74CHL1   C13 7908   0.324   6.102   7.704 -0.6371  0.3472 -0.6724
   74CHL1   C18 7909   0.237   6.226   7.736 -1.1523 -0.8801  0.7528
   74CHL1  H18A 7910   0.132   6.199   7.760 -1.0970 -1.0959  0.7527
   74CHL1  H18B 7911   0.277   6.283   7.823 -0.5668  0.1657 -0.1803
   74CHL1  H18C 7912   0.240   6.296   7.650 -1.5544 -0.4873  1.0534
   74CHL1   C12 7913   0.472   6.135   7.670 -0.7126 -0.8438 -0.5221
   74CHL1  H12A 7914   0.514   6.205   7.746 -1.6499  1.3160 -1.8903
   74CHL1  H12B 7915   0.529   6.042   7.652 -0.2482 -0.7760  0.5175
   74CHL1   C11 7916   0.467   6.209   7.539  0.7226  0.1569  0.3022
   74CHL1  H11A 7917   0.403   6.299   7.549 -2.7543 -2.1339  0.3745
   74CHL1  H11B 7918   0.567   6.252   7.516  0.2435  0.2541 -1.7455
   74CHL1    C9 7919   0.394   6.129   7.415 -0.4339 -0.8646 -0.6911
   74CHL1    H9 7920   0.439   6.028   7.404 -1.1425 -1.0631 -2.1284
   74CHL1   C10 7921   0.395   6.201   7.274  0.4425 -0.6248  0.1205
   74CHL1   C19 7922   0.353   6.352   7.284 -0.7068  0.2842 -0.1432
   74CHL1  H19A 7923   0.253   6.360   7.333 -0.3515 -0.0455  0.6473
   74CHL1  H19B 7924   0.424   6.416   7.340 -0.8647 -0.2722  0.7129
   74CHL1  H19C 7925   0.351   6.408   7.188  0.1469 -1.2627 -1.0979
   74CHL1    C1 7926   0.544   6.195   7.223  0.1339  0.0090 -0.1903
   74CHL1   H1A 7927   0.613   6.257   7.284 -2.7371  2.1636  1.0483
   74CHL1   H1B 7928   0.582   6.090   7.228  0.9962  0.3216 -0.0069
   74CHL1    C2 7929   0.563   6.238   7.081 -0.3923 -0.2304  0.7219
   74CHL1   H2A 7930   0.664   6.203   7.052 -0.4111 -1.1687  1.7194
   74CHL1   H2B 7931   0.556   6.348   7.067  0.3235 -0.2030  0.5490
   74CHL1   C20 7932   0.308   6.053   7.968 -0.0990 -0.1720 -1.0507
   74CHL1   H20 7933   0.236   6.132   7.997  2.5760  1.7465  0.7918
   74CHL1   C21 7934   0.451   6.116   7.987  0.3708  0.2444 -0.0301
   74CHL1  H21A 7935   0.533   6.055   7.942 -0.4387 -0.5372 -0.4740
   74CHL1  H21B 7936   0.466   6.116   8.097 -4.6165 -1.0752  0.8650
   74CHL1  H21C 7937   0.459   6.221   7.952  0.2866  0.0182 -0.7356
   74CHL1   C22 7938   0.291   5.929   8.061 -0.5455  0.2475 -0.8199
   74CHL1  H22A 7939   0.197   5.875   8.038 -0.9566  0.3867  0.4607
   74CHL1  H22B 7940   0.384   5.874   8.035 -0.1786  0.4911 -0.0441
   74CHL1   C23 7941   0.290   5.951   8.215  0.4471  0.0007 -0.0261
   74CHL1  H23A 7942   0.390   5.994   8.238  0.6596 -0.7487  0.5062
   74CHL1  H23B 7943   0.209   6.020   8.246  0.3131  0.1627 -0.7329
   74CHL1   C24 7944   0.273   5.819   8.287  0.5307 -0.4114  0.7661
   74CHL1  H24A 7945   0.196   5.758   8.235  1.2815 -0.2492 -0.5760
   74CHL1  H24B 7946   0.366   5.759   8.293  1.4715  0.6054 -1.7872
   74CHL1   C25 7947   0.247   5.827   8.437 -0.3097  1.1864  0.7641
   74CHL1   H25 7948   0.235   5.720   8.464 -0.5520  0.5740 -1.5950
   74CHL1   C26 7949   0.367   5.875   8.517 -0.0862  0.2176  0.3727
   74CHL1  H26A 7950   0.390   5.978   8.481 -0.6806 -0.2304 -1.4068
   74CHL1  H26B 7951   0.357   5.875   8.627 -1.5005 -1.0841  0.2769
   74CHL1  H26C 7952   0.457   5.813   8.496  0.9909  1.6673  0.5014
   74CHL1   C27 7953   0.118   5.896   8.473 -0.3615 -0.2341 -0.4827
   74CHL1  H27A 7954   0.075   5.873   8.573 -0.4954  1.2721 -0.1714
   74CHL1  H27B 7955   0.139   6.005   8.476 -1.5202 -0.0133  0.6673
   74CHL1  H27C 7956   0.046   5.872   8.393  2.0535 -0.4136 -2.7375
   75CHL1    C3 7957   3.089   2.594   6.825  0.1589  0.2892  0.3392
   75CHL1    H3 7958   3.001   2.603   6.892 -0.3721  0.0801 -0.3215
   75CHL1    O3 7959   3.071   2.634   6.694 -0.6805  0.3437  0.6133
   75CHL1   H3' 7960   3.160   2.626   6.658 -0.3299  0.5650  1.4101
   75CHL1    C4 7961   3.199   2.676   6.897 -0.1024  0.1127  0.6713
   75CHL1   H4A 7962   3.292   2.692   6.839 -0.6085 -1.5672 -0.6656
   75CHL1   H4B 7963   3.153   2.778   6.898  1.7675  1.0430  2.8036
   75CHL1    C5 7964   3.224   2.635   7.042 -0.1179  0.2947  0.5874
   75CHL1    C6 7965   3.214   2.714   7.145 -0.1780 -0.1583 -0.4940
   75CHL1    H6 7966   3.192   2.822   7.139 -2.4604 -0.4653  1.1503
   75CHL1    C7 7967   3.237   2.678   7.293 -0.4102  0.0839  0.1333
   75CHL1   H7A 7968   3.300   2.753   7.344  0.9104 -1.1186  0.3281
   75CHL1   H7B 7969   3.139   2.666   7.344  0.4710  0.8787  2.1288
   75CHL1    C8 7970   3.309   2.543   7.300  1.0411  0.0228  1.0513
   75CHL1    H8 7971   3.413   2.554   7.263  0.0688 -1.9441 -2.8597
   75CHL1   C14 7972   3.281   2.493   7.441 -0.2317 -0.2418 -0.6670
   75CHL1   H14 7973   3.171   2.498   7.458  0.1130  0.8033  1.4638
   75CHL1   C15 7974   3.327   2.594   7.553  0.7354  0.1401  0.7123
   75CHL1  H15A 7975   3.433   2.623   7.536  0.3762  1.8618  1.2100
   75CHL1  H15B 7976   3.258   2.680   7.564 -2.1530 -1.9056 -0.3040
   75CHL1   C16 7977   3.325   2.507   7.678 -0.0377  0.9179  0.1963
   75CHL1  H16A 7978   3.430   2.509   7.716  0.4286  0.3071 -0.9982
   75CHL1  H16B 7979   3.252   2.548   7.750 -1.0324 -1.4107  0.5803
   75CHL1   C17 7980   3.288   2.360   7.627  0.0699  0.1107 -1.0976
   75CHL1   H17 7981   3.177   2.349   7.622  0.2900 -1.7416 -3.1865
   75CHL1   C13 7982   3.332   2.354   7.481  0.2553  0.5992  0.3813
   75CHL1   C18 7983   3.487   2.349   7.469 -0.6228 -0.1021 -0.1765
   75CHL1  H18A 7984   3.515   2.244   7.491 -1.6370 -0.4256 -0.3787
   75CHL1  H18B 7985   3.511   2.366   7.362 -1.6805 -0.1636 -0.4364
   75CHL1  H18C 7986   3.540   2.428   7.526 -0.8132  1.6687 -2.3274
   75CHL1   C12 7987   3.262   2.255   7.384  0.2871  0.1987 -0.7213
   75CHL1  H12A 7988   3.310   2.155   7.384 -0.6092 -0.2654 -1.6304
   75CHL1  H12B 7989   3.154   2.243   7.408  0.6062 -2.2592 -0.1966
   75CHL1   C11 7990   3.265   2.292   7.238 -0.3389  0.3855  0.3724
   75CHL1  H11A 7991   3.360   2.258   7.190  0.0314  1.3972  0.3587
   75CHL1  H11B 7992   3.194   2.230   7.180 -1.3190  1.7138  0.1210
   75CHL1    C9 7993   3.241   2.443   7.204  0.4715 -0.0092 -0.3760
   75CHL1    H9 7994   3.132   2.450   7.227  0.5441 -2.0700  0.8759
   75CHL1   C10 7995   3.257   2.487   7.053  0.2845  0.2255 -0.6244
   75CHL1   C19 7996   3.396   2.452   6.996  0.5420  0.2568  0.1760
   75CHL1  H19A 7997   3.425   2.348   7.024  0.8837  0.0642 -0.8372
   75CHL1  H19B 7998   3.401   2.460   6.886  1.9998 -1.0138  0.1116
   75CHL1  H19C 7999   3.476   2.519   7.035 -0.6036  2.2032 -0.7408
   75CHL1    C1 8000   3.163   2.400   6.969 -0.3594 -0.1559  0.2117
   75CHL1   H1A 8001   3.185   2.291   6.968 -2.5485 -0.7127 -2.6593
   75CHL1   H1B 8002   3.061   2.399   7.014 -1.1932  1.1349 -1.5387
   75CHL1    C2 8003   3.133   2.440   6.819 -0.4712 -0.3639 -0.3350
   75CHL1   H2A 8004   3.044   2.388   6.778  1.0306 -2.5354 -0.9650
   75CHL1   H2B 8005   3.222   2.420   6.755 -0.5512  1.3018 -1.0339
   75CHL1   C20 8006   3.342   2.254   7.731 -0.7877 -1.0153 -0.6553
   75CHL1   H20 8007   3.453   2.259   7.723 -0.4647 -3.2187  1.3450
   75CHL1   C21 8008   3.294   2.115   7.685  0.0320  0.4769 -0.1291
   75CHL1  H21A 8009   3.188   2.106   7.654  0.4630  1.7223 -2.1974
   75CHL1  H21B 8010   3.318   2.043   7.766  0.3945  1.8286  0.9943
   75CHL1  H21C 8011   3.355   2.090   7.595  1.6221  0.2649  0.9500
   75CHL1   C22 8012   3.311   2.273   7.879  0.1821  0.0129  0.0536
   75CHL1  H22A 8013   3.217   2.330   7.890 -0.4915 -0.1327 -3.6725
   75CHL1  H22B 8014   3.289   2.181   7.937 -2.8622  1.0541  0.7097
   75CHL1   C23 8015   3.428   2.330   7.960  0.4227 -0.2469  0.3391
   75CHL1  H23A 8016   3.469   2.417   7.904  0.7871  0.9978  2.4248
   75CHL1  H23B 8017   3.384   2.370   8.054 -1.1740 -1.4074  0.1167
   75CHL1   C24 8018   3.541   2.230   7.981  0.3255  0.1013 -0.2088
   75CHL1  H24A 8019   3.508   2.150   8.051  1.2415  1.0768  1.3784
   75CHL1  H24B 8020   3.572   2.188   7.883  1.1243  1.8929 -0.7665
   75CHL1   C25 8021   3.663   2.294   8.050  0.0793 -0.0050 -0.3253
   75CHL1   H25 8022   3.669   2.392   7.997  0.4275 -0.7411 -1.6756
   75CHL1   C26 8023   3.616   2.327   8.198  0.9000 -0.9593  0.5790
   75CHL1  H26A 8024   3.549   2.251   8.241  1.7525 -1.7415  0.5445
   75CHL1  H26B 8025   3.708   2.343   8.258 -0.2795  0.3784  2.1111
   75CHL1  H26C 8026   3.563   2.424   8.182  2.4379 -0.4446 -1.9434
   75CHL1   C27 8027   3.790   2.207   8.039  0.5499  0.2147  0.1688
   75CHL1  H27A 8028   3.772   2.112   8.093 -0.8635  1.8006  2.7206
   75CHL1  H27B 8029   3.813   2.187   7.932 -0.6192 -0.3239  0.0052
   75CHL1  H27C 8030   3.877   2.260   8.084 -0.9548  2.1890  0.8930
   76CHL1    C3 8031   5.957   4.676   7.281 -0.5406  0.0261  0.1338
   76CHL1    H3 8032   5.914   4.759   7.340 -0.6088 -0.4406  0.7561
   76CHL1    O3 8033   5.985   4.714   7.145  0.0017 -0.4703 -0.0854
   76CHL1   H3' 8034   5.904   4.702   7.094  0.2883 -0.3254 -0.5827
   76CHL1    C4 8035   6.086   4.626   7.356  0.5009 -0.0067 -1.1039
   76CHL1   H4A 8036   6.142   4.562   7.285 -1.3922 -1.9108 -0.9563
   76CHL1   H4B 8037   6.162   4.707   7.360  0.6742 -0.1231 -1.9935
   76CHL1    C5 8038   6.060   4.577   7.498 -0.3311 -0.4299 -0.7389
   76CHL1    C6 8039   6.128   4.617   7.603 -0.4059  0.0338 -0.1042
   76CHL1    H6 8040   6.207   4.692   7.586  2.1693 -2.5422 -0.4544
   76CHL1    C7 8041   6.120   4.557   7.742  0.2521  0.8088  0.3747
   76CHL1   H7A 8042   6.218   4.540   7.791  0.0605 -1.7984 -0.0092
   76CHL1   H7B 8043   6.060   4.621   7.810 -2.1946 -0.3697 -0.5402
   76CHL1    C8 8044   6.041   4.414   7.740 -0.5710 -0.0735 -0.2449
   76CHL1    H8 8045   6.116   4.335   7.719 -0.8569 -0.2752 -0.5085
   76CHL1   C14 8046   5.988   4.389   7.880  0.7639  0.4673 -0.0278
   76CHL1   H14 8047   5.896   4.449   7.899  0.0369 -1.1649  2.0852
   76CHL1   C15 8048   6.084   4.407   8.002  0.3090  0.6443 -0.0114
   76CHL1  H15A 8049   6.183   4.363   7.981 -0.4697 -2.1932  1.7447
   76CHL1  H15B 8050   6.079   4.518   8.010  0.3555  0.7029 -0.7442
   76CHL1   C16 8051   6.012   4.324   8.109 -0.6056 -0.5243 -0.4675
   76CHL1  H16A 8052   6.090   4.250   8.139  0.1959  0.0129 -1.1691
   76CHL1  H16B 8053   5.978   4.380   8.199  0.3537 -0.4231 -0.1496
   76CHL1   C17 8054   5.899   4.240   8.036  0.5982 -0.4752 -0.4503
   76CHL1   H17 8055   5.806   4.298   8.055 -1.9368 -3.7564 -1.7781
   76CHL1   C13 8056   5.934   4.243   7.887  0.5273 -0.3408  0.4533
   76CHL1   C18 8057   6.041   4.137   7.868 -0.3416 -0.2079  0.0049
   76CHL1  H18A 8058   6.005   4.033   7.881 -2.5153  0.2836 -1.6190
   76CHL1  H18B 8059   6.087   4.138   7.767  0.2469 -1.1967  0.2469
   76CHL1  H18C 8060   6.126   4.159   7.937  0.4165 -0.9406 -0.6738
   76CHL1   C12 8061   5.815   4.230   7.790 -0.0266  0.1602  0.7167
   76CHL1  H12A 8062   5.794   4.121   7.786  0.7676  0.0288 -1.8832
   76CHL1  H12B 8063   5.724   4.288   7.814 -1.1990 -0.1447 -2.4673
   76CHL1   C11 8064   5.851   4.273   7.647  0.1742  1.0157  0.6593
   76CHL1  H11A 8065   5.911   4.189   7.605 -0.2784  0.6038  0.8344
   76CHL1  H11B 8066   5.757   4.275   7.588  0.3175 -0.1830  0.3554
   76CHL1    C9 8067   5.928   4.413   7.647  0.1383  0.7530 -0.4299
   76CHL1    H9 8068   5.849   4.482   7.685 -1.3281  0.2855 -2.4840
   76CHL1   C10 8069   5.956   4.462   7.503 -1.1175 -0.3542  0.2722
   76CHL1   C19 8070   6.029   4.345   7.430  0.0979  1.0621  0.2500
   76CHL1  H19A 8071   5.959   4.259   7.419  2.8784 -1.0084 -2.9313
   76CHL1  H19B 8072   6.061   4.363   7.326 -0.3968  0.5735  0.0082
   76CHL1  H19C 8073   6.112   4.289   7.478 -1.3098 -1.2531  0.1407
   76CHL1    C1 8074   5.826   4.513   7.426 -0.0362  0.5831 -0.1934
   76CHL1   H1A 8075   5.747   4.434   7.423 -0.9012  1.4042  0.5834
   76CHL1   H1B 8076   5.784   4.596   7.486 -1.3977  0.1155 -0.4677
   76CHL1    C2 8077   5.847   4.569   7.284 -0.3888  0.0394 -0.6851
   76CHL1   H2A 8078   5.753   4.625   7.259  0.5177  0.8915 -2.3625
   76CHL1   H2B 8079   5.859   4.492   7.205  0.7193 -0.4320 -0.0672
   76CHL1   C20 8080   5.879   4.106   8.114  0.1142 -0.1784 -0.4239
   76CHL1   H20 8081   5.956   4.031   8.086 -1.1062 -1.1749 -1.2669
   76CHL1   C21 8082   5.743   4.045   8.073  0.3218 -0.4985 -0.1826
   76CHL1  H21A 8083   5.722   3.947   8.120 -1.6880  0.4013  0.9080
   76CHL1  H21B 8084   5.732   4.024   7.964 -0.9637 -0.3329 -0.1076
   76CHL1  H21C 8085   5.666   4.121   8.100  1.3109  0.5826 -0.3594
   76CHL1   C22 8086   5.870   4.128   8.271  0.4169  0.2564  0.1534
   76CHL1  H22A 8087   5.965   4.178   8.301  1.8393  0.5678 -4.1929
   76CHL1  H22B 8088   5.783   4.196   8.281 -1.3467 -1.7187 -1.0025
   76CHL1   C23 8089   5.849   4.008   8.372  0.2497  0.0740 -0.0274
   76CHL1  H23A 8090   5.754   3.952   8.360 -0.0273  0.4811  0.2618
   76CHL1  H23B 8091   5.931   3.937   8.348 -0.7015 -1.5158  1.2994
   76CHL1   C24 8092   5.857   4.044   8.522  0.7084 -0.1253  0.0365
   76CHL1  H24A 8093   5.955   4.089   8.548 -1.0655  3.0213  1.8875
   76CHL1  H24B 8094   5.780   4.123   8.533 -0.4761 -1.2584  0.1283
   76CHL1   C25 8095   5.828   3.933   8.618  0.4803 -0.6009  0.4865
   76CHL1   H25 8096   5.737   3.880   8.584 -2.1161  2.3780  2.3196
   76CHL1   C26 8097   5.939   3.826   8.625 -0.1392 -0.2610 -0.2293
   76CHL1  H26A 8098   6.041   3.870   8.637  0.2906 -0.6321 -2.1858
   76CHL1  H26B 8099   5.927   3.758   8.712  0.2300 -0.4833 -0.3509
   76CHL1  H26C 8100   5.946   3.764   8.533  0.2514 -1.9659  0.9050
   76CHL1   C27 8101   5.813   3.991   8.760  0.3139 -0.2662 -0.5698
   76CHL1  H27A 8102   5.734   4.068   8.758  0.3662 -0.1758  0.4062
   76CHL1  H27B 8103   5.787   3.913   8.834  1.6923 -0.3405 -0.1373
   76CHL1  H27C 8104   5.912   4.027   8.796  0.5016 -1.9519  0.7032
   77CHL1    C3 8105   2.649   3.003   6.911 -0.3594 -0.0098  0.1145
   77CHL1    H3 8106   2.557   3.059   6.940 -0.6050  0.8110 -2.0843
   77CHL1    O3 8107   2.659   3.012   6.773  0.3468  0.0854  0.4037
   77CHL1   H3' 8108   2.733   2.954   6.752  0.9239  0.6860  0.7415
   77CHL1    C4 8109   2.784   3.053   6.964 -0.1178  0.2060  0.4961
   77CHL1   H4A 8110   2.867   3.003   6.910  0.1040  0.0784  0.9524
   77CHL1   H4B 8111   2.786   3.161   6.935 -1.5582  0.4407  1.1883
   77CHL1    C5 8112   2.785   3.023   7.114 -0.1188  0.9457  0.3155
   77CHL1    C6 8113   2.794   3.133   7.188  0.6450 -0.5626 -0.0920
   77CHL1    H6 8114   2.802   3.231   7.139  1.8281 -0.8632 -0.5355
   77CHL1    C7 8115   2.790   3.128   7.340 -0.3807  0.3487  0.2542
   77CHL1   H7A 8116   2.867   3.193   7.387 -0.6274 -0.6644  2.1163
   77CHL1   H7B 8117   2.694   3.159   7.386 -0.3466 -0.2449  0.7389
   77CHL1    C8 8118   2.825   2.985   7.391 -0.0588  0.0499 -0.4683
   77CHL1    H8 8119   2.932   2.963   7.369 -0.1070 -0.4604 -0.2095
   77CHL1   C14 8120   2.804   2.977   7.547  0.2259 -0.2695  0.8877
   77CHL1   H14 8121   2.696   2.996   7.564  0.6292  0.0516  3.3897
   77CHL1   C15 8122   2.872   3.071   7.649 -0.1494 -0.0077  0.1671
   77CHL1  H15A 8123   2.970   3.096   7.603 -0.1962 -1.2490 -0.6687
   77CHL1  H15B 8124   2.805   3.159   7.651 -1.6597 -1.0522 -1.6642
   77CHL1   C16 8125   2.874   3.002   7.788  0.8092 -0.3535 -0.4712
   77CHL1  H16A 8126   2.973   2.986   7.836  0.7750 -0.1309 -0.3249
   77CHL1  H16B 8127   2.804   3.061   7.851 -0.0259 -0.8335 -0.9295
   77CHL1   C17 8128   2.819   2.863   7.749  0.6186  0.1482  0.7214
   77CHL1   H17 8129   2.708   2.873   7.751  0.4797 -1.0417 -0.1533
   77CHL1   C13 8130   2.840   2.843   7.603 -0.0627  0.3557 -0.9330
   77CHL1   C18 8131   2.991   2.798   7.596  0.2029  0.3652 -0.0665
   77CHL1  H18A 8132   3.006   2.692   7.624  0.7415  0.9938  2.2350
   77CHL1  H18B 8133   3.025   2.800   7.491 -2.6837 -0.3486 -1.0975
   77CHL1  H18C 8134   3.051   2.868   7.659  0.1073  0.7886 -0.4400
   77CHL1   C12 8135   2.740   2.740   7.539  0.3031 -0.9043 -0.3401
   77CHL1  H12A 8136   2.747   2.637   7.578  0.0152 -1.6130 -2.0502
   77CHL1  H12B 8137   2.639   2.781   7.563  1.8616  3.1722  0.1626
   77CHL1   C11 8138   2.761   2.738   7.390 -0.5274  0.0349 -0.2349
   77CHL1  H11A 8139   2.864   2.702   7.367  0.5048  0.8162  2.6813
   77CHL1  H11B 8140   2.690   2.664   7.348  0.5005 -0.6474 -0.8338
   77CHL1    C9 8141   2.739   2.875   7.323 -0.0617 -0.0319 -0.7198
   77CHL1    H9 8142   2.639   2.920   7.339 -0.1089 -0.1322 -0.7308
   77CHL1   C10 8143   2.764   2.878   7.170 -0.3624 -0.4181 -0.3589
   77CHL1   C19 8144   2.893   2.802   7.137 -0.0107 -0.0577  0.0385
   77CHL1  H19A 8145   2.866   2.699   7.169 -4.3701  0.6052 -0.8890
   77CHL1  H19B 8146   2.925   2.811   7.031  3.4392  0.5351  0.9900
   77CHL1  H19C 8147   2.980   2.840   7.195 -0.9964 -0.2367  1.6942
   77CHL1    C1 8148   2.649   2.819   7.092  0.3280 -0.6434 -0.4125
   77CHL1   H1A 8149   2.646   2.710   7.113 -1.4367 -0.7482 -1.0424
   77CHL1   H1B 8150   2.557   2.864   7.137  0.6632  1.1634 -1.4346
   77CHL1    C2 8151   2.632   2.854   6.947 -0.1140 -0.0354  0.0732
   77CHL1   H2A 8152   2.537   2.812   6.909 -0.4783  0.1200  0.7923
   77CHL1   H2B 8153   2.719   2.813   6.891  1.3297  2.4987  0.2809
   77CHL1   C20 8154   2.843   2.742   7.847 -0.2392  0.1718  0.5460
   77CHL1   H20 8155   2.820   2.649   7.792 -0.1141  1.9341 -2.7620
   77CHL1   C21 8156   2.722   2.751   7.948 -0.2455 -0.3542 -0.3453
   77CHL1  H21A 8157   2.719   2.675   8.029  1.3751 -0.6771 -0.5584
   77CHL1  H21B 8158   2.626   2.744   7.892  0.9481 -0.8705 -2.4467
   77CHL1  H21C 8159   2.736   2.848   7.999  0.7284  0.0283 -1.3129
   77CHL1   C22 8160   2.980   2.726   7.927 -0.3980  0.0363 -0.4997
   77CHL1  H22A 8161   3.060   2.705   7.853  0.5530 -2.3780  1.0715
   77CHL1  H22B 8162   3.001   2.825   7.974 -0.9471  0.5215 -1.2434
   77CHL1   C23 8163   2.978   2.620   8.037 -0.3970 -0.2020 -0.0522
   77CHL1  H23A 8164   2.913   2.665   8.116 -0.9040  0.8790 -1.0564
   77CHL1  H23B 8165   2.928   2.530   7.996  0.3472 -0.7856  0.3028
   77CHL1   C24 8166   3.110   2.573   8.092 -0.2104 -0.2751  0.9632
   77CHL1  H24A 8167   3.093   2.520   8.188  0.9959  0.2922  1.5208
   77CHL1  H24B 8168   3.167   2.500   8.031  0.5432  1.2932 -0.3074
   77CHL1   C25 8169   3.203   2.695   8.110  0.2043 -0.6269  0.3579
   77CHL1   H25 8170   3.194   2.752   8.015 -2.2107 -0.5155  0.5822
   77CHL1   C26 8171   3.152   2.784   8.228 -0.1240  0.3069  0.0680
   77CHL1  H26A 8172   3.158   2.716   8.316  1.2826 -2.5739 -2.0909
   77CHL1  H26B 8173   3.209   2.878   8.244  0.3693  0.2871 -1.4308
   77CHL1  H26C 8174   3.050   2.812   8.194  0.8383  2.7418 -1.0821
   77CHL1   C27 8175   3.347   2.648   8.138 -0.5228  0.2938  0.6637
   77CHL1  H27A 8176   3.350   2.567   8.215 -2.4428 -2.0296 -1.5142
   77CHL1  H27B 8177   3.396   2.605   8.048  2.2007  0.7082  1.8670
   77CHL1  H27C 8178   3.416   2.728   8.171  0.4069 -0.1673 -0.1091
   78CHL1    C3 8179   1.824   4.688   6.678 -0.4465  0.1696  0.0566
   78CHL1    H3 8180   1.743   4.763   6.689  0.6180  1.3828 -0.1445
   78CHL1    O3 8181   1.839   4.634   6.543 -0.5573 -0.0321 -0.7141
   78CHL1   H3' 8182   1.862   4.707   6.485 -0.5657 -0.0354 -0.7217
   78CHL1    C4 8183   1.960   4.745   6.735 -0.9870 -0.4726 -0.4510
   78CHL1   H4A 8184   2.051   4.683   6.722  0.6063  1.0863  2.1786
   78CHL1   H4B 8185   1.978   4.831   6.667 -1.7953 -0.0366 -0.1254
   78CHL1    C5 8186   1.944   4.789   6.879 -0.6906 -0.0755 -0.6338
   78CHL1    C6 8187   1.970   4.919   6.916  0.7057  0.5592 -0.3921
   78CHL1    H6 8188   2.001   4.995   6.843 -1.7289  2.6365  0.6247
   78CHL1    C7 8189   1.946   4.969   7.059  0.4670 -0.9702  0.7694
   78CHL1   H7A 8190   2.029   5.036   7.091  0.3799 -0.3565 -0.2462
   78CHL1   H7B 8191   1.854   5.031   7.064  1.1918  0.5740 -2.1992
   78CHL1    C8 8192   1.942   4.855   7.168  0.1343 -0.5476  0.4251
   78CHL1    H8 8193   2.046   4.820   7.184  0.4535  0.7395  1.3267
   78CHL1   C14 8194   1.898   4.916   7.299 -0.2447  0.8868  0.5600
   78CHL1   H14 8195   1.789   4.935   7.295 -0.4767 -0.3935  0.3090
   78CHL1   C15 8196   1.967   5.041   7.333 -0.1454 -0.0675 -0.3485
   78CHL1  H15A 8197   2.072   5.018   7.305 -0.4068  0.0334 -1.4529
   78CHL1  H15B 8198   1.940   5.131   7.274 -1.4653 -0.1036  0.1849
   78CHL1   C16 8199   1.957   5.053   7.489 -0.4082 -0.2938 -0.1138
   78CHL1  H16A 8200   2.055   5.067   7.539 -0.9297 -1.6766  1.3693
   78CHL1  H16B 8201   1.891   5.139   7.514 -0.6895 -0.6702  0.4430
   78CHL1   C17 8202   1.881   4.918   7.532  0.8456  0.1666  0.2202
   78CHL1   H17 8203   1.776   4.953   7.535  1.3278  1.6113  1.3323
   78CHL1   C13 8204   1.907   4.821   7.415  0.0771  0.5706 -0.4904
   78CHL1   C18 8205   2.055   4.767   7.428  0.4618  0.6832  0.6486
   78CHL1  H18A 8206   2.056   4.679   7.361 -3.0452  1.1060 -0.1304
   78CHL1  H18B 8207   2.133   4.843   7.402  0.3334  0.8522  0.7549
   78CHL1  H18C 8208   2.070   4.738   7.534 -0.0302  1.2960  0.8929
   78CHL1   C12 8209   1.804   4.711   7.380  0.2870  0.4333 -0.3916
   78CHL1  H12A 8210   1.808   4.630   7.456 -3.1435 -0.2438 -0.7948
   78CHL1  H12B 8211   1.697   4.742   7.376  0.6200  1.6631 -0.1744
   78CHL1   C11 8212   1.835   4.631   7.234  0.2088  0.0008 -0.3031
   78CHL1  H11A 8213   1.919   4.558   7.240 -0.2609 -0.6661 -1.5095
   78CHL1  H11B 8214   1.745   4.573   7.205 -1.2555  1.7508  0.6240
   78CHL1    C9 8215   1.856   4.737   7.122 -0.2134 -0.6002 -0.1051
   78CHL1    H9 8216   1.754   4.782   7.119 -0.7219 -1.6272  0.9496
   78CHL1   C10 8217   1.894   4.683   6.977  0.1820 -0.2052  0.9064
   78CHL1   C19 8218   2.001   4.574   6.990  0.1532  0.1941 -0.4503
   78CHL1  H19A 8219   1.956   4.491   7.049  0.5869  0.6097  0.4900
   78CHL1  H19B 8220   2.039   4.538   6.893 -0.7030 -0.8774 -0.4017
   78CHL1  H19C 8221   2.091   4.611   7.044  0.3569 -0.2076 -0.5146
   78CHL1    C1 8222   1.769   4.618   6.914 -0.4094  0.3125 -0.1390
   78CHL1   H1A 8223   1.747   4.527   6.974  1.9425 -0.0819  0.2229
   78CHL1   H1B 8224   1.687   4.693   6.920  2.1995  3.4472 -0.2474
   78CHL1    C2 8225   1.782   4.571   6.766 -0.1769 -1.0951 -0.5433
   78CHL1   H2A 8226   1.686   4.532   6.728 -1.3125  1.0752 -0.0717
   78CHL1   H2B 8227   1.859   4.492   6.752  0.4442 -0.4172 -1.0665
   78CHL1   C20 8228   1.909   4.879   7.677  0.7242  0.1504 -0.5811
   78CHL1   H20 8229   2.015   4.844   7.685  0.8513  0.7329  0.4879
   78CHL1   C21 8230   1.823   4.750   7.693  0.0791 -1.1390 -0.8596
   78CHL1  H21A 8231   1.858   4.660   7.639  1.3971 -2.2379  1.6649
   78CHL1  H21B 8232   1.719   4.771   7.659 -0.4771  0.6160  1.6384
   78CHL1  H21C 8233   1.813   4.723   7.800  1.3731  0.1325 -0.3784
   78CHL1   C22 8234   1.892   5.001   7.776 -0.3045 -0.6636 -0.1938
   78CHL1  H22A 8235   1.965   5.077   7.744  0.4203 -1.0861  0.4262
   78CHL1  H22B 8236   1.788   5.038   7.759 -0.7516 -1.4198  0.7704
   78CHL1   C23 8237   1.901   4.965   7.920  0.2161  0.5565 -0.2586
   78CHL1  H23A 8238   1.812   4.914   7.963  0.7695  1.0720  1.5715
   78CHL1  H23B 8239   1.981   4.890   7.934 -0.6918 -0.5969 -0.9990
   78CHL1   C24 8240   1.937   5.083   8.013  0.7073  0.0726  0.0570
   78CHL1  H24A 8241   2.003   5.157   7.962 -0.0273 -0.5623 -1.9331
   78CHL1  H24B 8242   1.848   5.140   8.048  1.2924  0.0502  1.6694
   78CHL1   C25 8243   2.009   5.038   8.134  0.2837  0.0742  0.1150
   78CHL1   H25 8244   2.084   4.962   8.106 -0.1720 -0.2652 -0.1874
   78CHL1   C26 8245   2.075   5.162   8.198 -0.0842  0.4137  1.0541
   78CHL1  H26A 8246   2.011   5.253   8.212  0.0508  1.6741 -4.3735
   78CHL1  H26B 8247   2.133   5.141   8.290  0.6690  1.9375  0.9620
   78CHL1  H26C 8248   2.149   5.208   8.130 -0.2972  2.1407  1.9331
   78CHL1   C27 8249   1.920   4.963   8.241  0.6704  0.4319  0.5900
   78CHL1  H27A 8250   1.984   4.911   8.315  1.3220  0.7057  0.2218
   78CHL1  H27B 8251   1.845   5.024   8.295  0.8076  0.8982  0.2542
   78CHL1  H27C 8252   1.857   4.883   8.195 -1.0790  1.0743  1.7587
   79CHL1    C3 8253   0.569   4.705   7.177 -0.2592  0.2855  0.3314
   79CHL1    H3 8254   0.669   4.657   7.176  0.7022  2.1360  1.6880
   79CHL1    O3 8255   0.528   4.724   7.046 -1.0349  0.6144  0.1035
   79CHL1   H3' 8256   0.564   4.810   7.024 -1.2574  0.5584 -0.4807
   79CHL1    C4 8257   0.480   4.607   7.254  0.6698 -0.6828 -0.8827
   79CHL1   H4A 8258   0.374   4.636   7.236  0.3861 -2.6455 -2.7912
   79CHL1   H4B 8259   0.488   4.515   7.192  2.7984 -0.3381 -1.1775
   79CHL1    C5 8260   0.514   4.586   7.400  0.3947  0.6140 -0.4896
   79CHL1    C6 8261   0.528   4.461   7.448 -0.1253  0.3041  0.1323
   79CHL1    H6 8262   0.503   4.379   7.379 -2.5146 -0.0375  1.3013
   79CHL1    C7 8263   0.546   4.433   7.592  0.1102  0.8517  0.1263
   79CHL1   H7A 8264   0.469   4.367   7.638  0.4126 -0.1971 -0.8197
   79CHL1   H7B 8265   0.641   4.375   7.599  1.6110  3.1667  0.0721
   79CHL1    C8 8266   0.543   4.556   7.689  0.3866 -0.0794 -0.1111
   79CHL1    H8 8267   0.436   4.573   7.709  0.8839  0.1134  2.7587
   79CHL1   C14 8268   0.622   4.525   7.813  0.3473  0.8391 -0.0138
   79CHL1   H14 8269   0.726   4.503   7.782  0.4445 -0.1049  0.9345
   79CHL1   C15 8270   0.580   4.410   7.910  0.4107  0.2395 -0.0371
   79CHL1  H15A 8271   0.472   4.399   7.890  0.6160  0.5679 -1.4743
   79CHL1  H15B 8272   0.632   4.317   7.878 -3.7042 -1.6257 -2.0064
   79CHL1   C16 8273   0.629   4.449   8.050 -0.0662  0.1541 -0.1469
   79CHL1  H16A 8274   0.540   4.456   8.116 -2.3197  0.2967 -2.9963
   79CHL1  H16B 8275   0.686   4.363   8.091 -1.3570 -0.5883  0.1330
   79CHL1   C17 8276   0.698   4.586   8.038 -0.1023 -0.8325 -0.0879
   79CHL1   H17 8277   0.803   4.565   8.009  0.3569 -3.5680  2.9846
   79CHL1   C13 8278   0.632   4.644   7.908 -0.1353  0.5182  0.4587
   79CHL1   C18 8279   0.490   4.698   7.950  0.4996 -0.3913 -0.4412
   79CHL1  H18A 8280   0.494   4.781   8.023  0.5850  1.4486 -2.4291
   79CHL1  H18B 8281   0.434   4.736   7.861  1.5718 -2.4284 -2.0704
   79CHL1  H18C 8282   0.418   4.624   7.992  1.0768 -1.1610 -0.7799
   79CHL1   C12 8283   0.713   4.753   7.845  0.8012  0.1830 -0.1596
   79CHL1  H12A 8284   0.700   4.840   7.913  0.5204 -0.2563  0.3672
   79CHL1  H12B 8285   0.821   4.728   7.841  1.0240  1.1928 -0.6478
   79CHL1   C11 8286   0.659   4.796   7.709  0.5085 -0.6545  0.0930
   79CHL1  H11A 8287   0.572   4.864   7.719  0.7172 -0.5434  1.2850
   79CHL1  H11B 8288   0.747   4.855   7.676  1.7874 -1.5631  1.6786
   79CHL1    C9 8289   0.611   4.675   7.617  0.5219  0.6105  0.2655
   79CHL1    H9 8290   0.708   4.625   7.594  1.5877  1.3741  2.7812
   79CHL1   C10 8291   0.544   4.712   7.480 -0.2640 -0.3558  0.3447
   79CHL1   C19 8292   0.420   4.788   7.511 -0.1473  0.8850 -0.3640
   79CHL1  H19A 8293   0.354   4.788   7.422 -0.4893 -0.6115 -0.1414
   79CHL1  H19B 8294   0.364   4.725   7.583 -2.2668  1.9445 -1.0235
   79CHL1  H19C 8295   0.440   4.887   7.555 -0.2430  0.2820  1.0815
   79CHL1    C1 8296   0.639   4.800   7.399 -0.4421 -0.6613  0.8171
   79CHL1   H1A 8297   0.656   4.893   7.457  0.9083  0.3861 -1.1602
   79CHL1   H1B 8298   0.733   4.742   7.387  0.1962  0.0073  2.3184
   79CHL1    C2 8299   0.590   4.836   7.252  0.4582  0.2123  0.3840
   79CHL1   H2A 8300   0.666   4.892   7.193 -0.0335  0.1206 -0.3467
   79CHL1   H2B 8301   0.497   4.895   7.260 -1.3371 -1.7359 -3.6129
   79CHL1   C20 8302   0.691   4.670   8.179 -0.4106 -0.4334 -0.0740
   79CHL1   H20 8303   0.582   4.686   8.192 -0.3221 -0.2228  0.4645
   79CHL1   C21 8304   0.756   4.811   8.178  0.0889 -1.0194 -0.0339
   79CHL1  H21A 8305   0.859   4.801   8.139 -0.1284  2.7094 -1.9877
   79CHL1  H21B 8306   0.757   4.865   8.275 -0.2608 -0.2888 -0.4306
   79CHL1  H21C 8307   0.714   4.884   8.105 -1.5828 -1.3121  0.5732
   79CHL1   C22 8308   0.747   4.585   8.289  0.0524 -0.4749  0.5011
   79CHL1  H22A 8309   0.728   4.476   8.278 -2.7733 -0.1242  0.9607
   79CHL1  H22B 8310   0.858   4.582   8.291  0.0751 -3.3060 -0.7067
   79CHL1   C23 8311   0.708   4.632   8.427 -0.1373 -0.4131 -0.4355
   79CHL1  H23A 8312   0.753   4.732   8.446 -0.3744 -0.4331  0.2300
   79CHL1  H23B 8313   0.600   4.653   8.439 -0.1032 -0.6968  0.3751
   79CHL1   C24 8314   0.746   4.550   8.556 -0.4079  0.2695  0.5022
   79CHL1  H24A 8315   0.691   4.598   8.640  0.6589  1.7269  0.4096
   79CHL1  H24B 8316   0.707   4.448   8.540 -0.4596 -0.0396  2.3174
   79CHL1   C25 8317   0.893   4.539   8.592 -0.2164 -0.1521  0.0424
   79CHL1   H25 8318   0.951   4.509   8.502  0.9616  0.6502  0.5222
   79CHL1   C26 8319   0.954   4.673   8.649 -0.3466  0.1730 -1.1895
   79CHL1  H26A 8320   0.921   4.766   8.600  0.8768  1.3519  0.1383
   79CHL1  H26B 8321   0.947   4.685   8.759  0.1960 -0.9273 -1.0203
   79CHL1  H26C 8322   1.062   4.659   8.630 -0.0990  0.2336  0.0750
   79CHL1   C27 8323   0.922   4.434   8.697  0.9137  0.8916 -0.1942
   79CHL1  H27A 8324   1.022   4.447   8.745  1.0732 -0.5751 -0.0851
   79CHL1  H27B 8325   0.838   4.429   8.769 -1.5227 -1.8340 -2.9504
   79CHL1  H27C 8326   0.916   4.334   8.648 -0.4287 -1.0225  3.4703
   80CHL1    C3 8327   6.720   1.456   6.924  0.0546 -0.1041  0.2829
   80CHL1    H3 8328   6.828   1.443   6.945  0.0157  0.1040  0.6136
   80CHL1    O3 8329   6.686   1.394   6.802  0.6106 -0.7360 -0.2719
   80CHL1   H3' 8330   6.625   1.455   6.761 -0.2799 -1.0858  0.5013
   80CHL1    C4 8331   6.633   1.401   7.038  0.0246 -0.5196 -0.3290
   80CHL1   H4A 8332   6.530   1.430   7.010  0.1676 -0.3512 -0.6853
   80CHL1   H4B 8333   6.640   1.290   7.033  1.1790 -0.4018 -2.0424
   80CHL1    C5 8334   6.675   1.470   7.170  0.0604 -0.0042 -0.0248
   80CHL1    C6 8335   6.730   1.403   7.275 -0.2327  1.0357  0.0132
   80CHL1    H6 8336   6.739   1.294   7.264 -0.0265  1.0049  0.4741
   80CHL1    C7 8337   6.779   1.461   7.401  0.4318  0.4898 -0.6039
   80CHL1   H7A 8338   6.739   1.404   7.487 -0.3268 -1.0597 -1.9224
   80CHL1   H7B 8339   6.890   1.459   7.404  0.4100 -2.0018  0.5983
   80CHL1    C8 8340   6.732   1.607   7.421  0.6503 -0.0305  0.3951
   80CHL1    H8 8341   6.623   1.594   7.436  0.1127  1.4605 -1.6720
   80CHL1   C14 8342   6.817   1.665   7.526  0.8488 -0.1682 -0.3397
   80CHL1   H14 8343   6.924   1.648   7.498  0.9110 -1.4844  0.6132
   80CHL1   C15 8344   6.818   1.588   7.657 -0.6057  0.0450 -0.2155
   80CHL1  H15A 8345   6.712   1.560   7.679 -0.7826  0.6657 -0.2344
   80CHL1  H15B 8346   6.880   1.497   7.669 -1.2161 -0.1672  1.7179
   80CHL1   C16 8347   6.860   1.700   7.761  0.8074  0.3395  0.3456
   80CHL1  H16A 8348   6.780   1.709   7.838 -0.3689 -1.0464 -0.6698
   80CHL1  H16B 8349   6.960   1.667   7.797  1.3971  0.3457 -1.2491
   80CHL1   C17 8350   6.873   1.831   7.682  0.4215  1.0699  0.4353
   80CHL1   H17 8351   6.979   1.835   7.648 -0.1457  0.1237 -1.6086
   80CHL1   C13 8352   6.787   1.809   7.553  0.5199  0.3697  0.2440
   80CHL1   C18 8353   6.634   1.828   7.588  0.1203 -0.3067 -0.4107
   80CHL1  H18A 8354   6.572   1.773   7.514  0.0250 -1.0902  0.2319
   80CHL1  H18B 8355   6.610   1.777   7.684  0.9061  0.9469  0.4814
   80CHL1  H18C 8356   6.604   1.933   7.604 -0.8944 -0.5119 -0.8994
   80CHL1   C12 8357   6.832   1.882   7.428  1.0583 -0.0352  0.2044
   80CHL1  H12A 8358   6.822   1.992   7.443 -3.9421 -0.2304 -0.0114
   80CHL1  H12B 8359   6.937   1.851   7.409  0.2518 -1.8909 -1.5676
   80CHL1   C11 8360   6.747   1.843   7.306  0.2227  0.3129  0.0591
   80CHL1  H11A 8361   6.641   1.875   7.319  0.2938  1.3646 -1.6182
   80CHL1  H11B 8362   6.772   1.893   7.210 -1.3514 -1.9345 -1.6053
   80CHL1    C9 8363   6.752   1.686   7.287 -0.4178  0.2209 -0.6881
   80CHL1    H9 8364   6.860   1.674   7.266 -0.1939 -3.3353  1.5469
   80CHL1   C10 8365   6.670   1.627   7.169  0.3970  0.3201  0.2889
   80CHL1   C19 8366   6.522   1.669   7.189  0.1855 -0.3794  1.2306
   80CHL1  H19A 8367   6.485   1.626   7.285  1.6742 -2.7544  0.8067
   80CHL1  H19B 8368   6.504   1.778   7.172  0.6336 -0.3767  0.7443
   80CHL1  H19C 8369   6.453   1.638   7.109 -0.6445  1.6072  1.1123
   80CHL1    C1 8370   6.731   1.673   7.029  0.0998  0.5883  0.4558
   80CHL1   H1A 8371   6.698   1.778   7.021  0.1328  0.7174  1.7847
   80CHL1   H1B 8372   6.842   1.679   7.035  0.0200  0.7859  2.5169
   80CHL1    C2 8373   6.691   1.601   6.911 -0.5585  0.4625  0.6437
   80CHL1   H2A 8374   6.745   1.643   6.824 -2.8729  0.3096 -0.9504
   80CHL1   H2B 8375   6.585   1.625   6.886 -0.4537  0.1392 -0.1486
   80CHL1   C20 8376   6.856   1.953   7.765  0.3268 -0.4274  0.1217
   80CHL1   H20 8377   6.757   1.945   7.815 -1.0242  0.7538 -2.1942
   80CHL1   C21 8378   6.868   2.078   7.675  0.1662  0.5950 -0.2726
   80CHL1  H21A 8379   6.886   2.172   7.732  0.4668  0.7985 -0.6994
   80CHL1  H21B 8380   6.770   2.099   7.627 -0.5774  0.4385  1.1388
   80CHL1  H21C 8381   6.954   2.051   7.611  0.2772  2.6244 -1.0451
   80CHL1   C22 8382   6.969   1.957   7.884  0.4820  0.3366 -0.3810
   80CHL1  H22A 8383   6.977   1.855   7.928  3.1443  1.9152  3.2462
   80CHL1  H22B 8384   7.062   1.988   7.833  0.4846  0.6349 -0.1946
   80CHL1   C23 8385   6.933   2.049   8.001 -0.1051 -0.4061 -0.0659
   80CHL1  H23A 8386   6.905   2.150   7.965  0.7534 -0.0992  0.1022
   80CHL1  H23B 8387   6.848   2.000   8.054 -2.0678 -0.1176 -2.7524
   80CHL1   C24 8388   7.050   2.063   8.103 -0.1915 -0.4082 -0.6545
   80CHL1  H24A 8389   7.064   1.968   8.159 -0.6299 -0.9019 -1.3587
   80CHL1  H24B 8390   7.140   2.067   8.038 -1.7024 -1.9277 -2.9995
   80CHL1   C25 8391   7.047   2.180   8.195  0.0747  0.1126  0.1266
   80CHL1   H25 8392   7.073   2.270   8.135  1.8923 -0.4540  0.0328
   80CHL1   C26 8393   6.910   2.204   8.264 -0.6871  0.5696  0.4601
   80CHL1  H26A 8394   6.922   2.297   8.325 -1.0461  1.7725 -1.2301
   80CHL1  H26B 8395   6.834   2.234   8.190 -1.5386 -0.3441  0.9419
   80CHL1  H26C 8396   6.879   2.106   8.305  0.5498 -1.2890 -2.7127
   80CHL1   C27 8397   7.156   2.169   8.303 -0.8474 -0.1658 -0.7135
   80CHL1  H27A 8398   7.248   2.136   8.250 -1.1455  1.3060 -2.2213
   80CHL1  H27B 8399   7.179   2.264   8.357 -0.9218 -0.8883  0.6414
   80CHL1  H27C 8400   7.115   2.095   8.376 -3.2736  1.9868  0.2871
   81CHL1    C3 8401   5.062   2.443   6.875 -1.6060 -0.0652 -0.2848
   81CHL1    H3 8402   5.172   2.460   6.884 -1.6203 -0.2469  0.3173
   81CHL1    O3 8403   5.027   2.432   6.742  0.1657 -0.2841 -0.2125
   81CHL1   H3' 8404   5.042   2.343   6.711 -0.7034 -1.1180  1.6315
   81CHL1    C4 8405   5.034   2.313   6.956  0.3234 -0.4895 -0.0246
   81CHL1   H4A 8406   4.925   2.292   6.947  0.0807  0.8829 -0.5793
   81CHL1   H4B 8407   5.084   2.225   6.910  0.0301 -0.9394  0.5085
   81CHL1    C5 8408   5.041   2.333   7.104 -0.2057  0.9784  0.4996
   81CHL1    C6 8409   5.101   2.237   7.179  0.3474 -0.4809  0.1249
   81CHL1    H6 8410   5.149   2.155   7.124 -0.4681 -0.4303 -0.6946
   81CHL1    C7 8411   5.096   2.235   7.324 -0.1047 -0.3949 -0.4548
   81CHL1   H7A 8412   5.069   2.134   7.362 -0.5892  0.5226  1.8206
   81CHL1   H7B 8413   5.200   2.262   7.352 -0.6223  1.7793 -0.4299
   81CHL1    C8 8414   4.988   2.332   7.382 -0.3370  0.0511  0.4482
   81CHL1    H8 8415   4.895   2.273   7.378 -1.0484  1.1705  0.0722
   81CHL1   C14 8416   5.005   2.353   7.531 -0.5552 -0.1991 -0.3147
   81CHL1   H14 8417   5.102   2.406   7.533 -0.6043 -0.0173 -1.7149
   81CHL1   C15 8418   5.027   2.230   7.626  0.2976  0.1163 -0.3058
   81CHL1  H15A 8419   4.960   2.144   7.602 -0.7127  1.2161 -1.6076
   81CHL1  H15B 8420   5.127   2.189   7.600  0.5240 -1.1754  2.3402
   81CHL1   C16 8421   5.005   2.291   7.766 -0.4912 -0.0146 -0.3687
   81CHL1  H16A 8422   4.929   2.222   7.810  0.6017  0.0033  1.6952
   81CHL1  H16B 8423   5.091   2.291   7.837  0.1438  0.1223 -1.1284
   81CHL1   C17 8424   4.960   2.437   7.750 -0.1938 -0.5701  1.3412
   81CHL1   H17 8425   5.049   2.503   7.759 -0.8997  0.6397 -0.1814
   81CHL1   C13 8426   4.910   2.445   7.600  0.5665  0.5325  0.1285
   81CHL1   C18 8427   4.773   2.384   7.603  0.6063 -0.4997 -0.4355
   81CHL1  H18A 8428   4.768   2.291   7.664  0.5952 -2.1908 -2.8459
   81CHL1  H18B 8429   4.695   2.462   7.620  0.8977 -0.3099  0.0407
   81CHL1  H18C 8430   4.736   2.344   7.506  2.0976 -2.2855 -0.3276
   81CHL1   C12 8431   4.923   2.583   7.531  0.4845  0.0923  0.3076
   81CHL1  H12A 8432   4.841   2.645   7.572 -0.8302 -1.0625 -0.4487
   81CHL1  H12B 8433   5.028   2.613   7.549  1.0850  0.8418 -3.4975
   81CHL1   C11 8434   4.894   2.574   7.382  0.0731 -0.2497 -0.2251
   81CHL1  H11A 8435   4.785   2.553   7.382  0.2410 -1.2739 -1.6541
   81CHL1  H11B 8436   4.911   2.667   7.324  0.7076  0.5860  1.2405
   81CHL1    C9 8437   4.983   2.469   7.308  0.3966  0.4372  0.4381
   81CHL1    H9 8438   5.086   2.506   7.325 -0.2629  1.0214  4.0191
   81CHL1   C10 8439   4.963   2.461   7.153 -0.5826  0.2489  0.8826
   81CHL1   C19 8440   4.809   2.458   7.130 -0.0883 -1.0826  0.3331
   81CHL1  H19A 8441   4.782   2.426   7.027  3.2401 -1.0714 -0.6653
   81CHL1  H19B 8442   4.765   2.398   7.212  0.3001  0.7383  1.9518
   81CHL1  H19C 8443   4.757   2.555   7.143 -0.5609 -1.2382 -0.3455
   81CHL1    C1 8444   5.018   2.584   7.075  0.1139  0.3842 -0.0652
   81CHL1   H1A 8445   4.975   2.679   7.114  0.7338  0.5842  0.1314
   81CHL1   H1B 8446   5.128   2.598   7.079  0.0142  3.1296 -3.0479
   81CHL1    C2 8447   4.992   2.564   6.924 -0.0367 -0.6649 -0.3606
   81CHL1   H2A 8448   5.036   2.658   6.883 -1.1826  0.0926  0.0689
   81CHL1   H2B 8449   4.885   2.558   6.893  0.0580 -1.4597 -0.5537
   81CHL1   C20 8450   4.869   2.487   7.870  0.2359 -0.2823 -0.3235
   81CHL1   H20 8451   4.791   2.407   7.872 -0.5767  0.5057  0.4934
   81CHL1   C21 8452   4.798   2.616   7.851  0.1327  0.3235 -0.1833
   81CHL1  H21A 8453   4.727   2.648   7.930 -1.6411  0.8279 -1.8928
   81CHL1  H21B 8454   4.747   2.617   7.752  0.0133 -0.4458 -0.1283
   81CHL1  H21C 8455   4.867   2.702   7.835  1.0980 -0.3463  0.2583
   81CHL1   C22 8456   4.942   2.489   8.005  0.0248  0.7746  0.2589
   81CHL1  H22A 8457   4.999   2.395   8.015 -1.7662 -0.2357  1.4823
   81CHL1  H22B 8458   5.003   2.582   8.005  0.9604  0.1761  0.5564
   81CHL1   C23 8459   4.855   2.493   8.135  0.3946 -0.6120  0.1190
   81CHL1  H23A 8460   4.789   2.582   8.142  2.8532  1.2165  2.1048
   81CHL1  H23B 8461   4.797   2.399   8.146  3.1283 -2.4990 -0.5437
   81CHL1   C24 8462   4.944   2.493   8.263  0.2689  0.6151  0.1972
   81CHL1  H24A 8463   4.877   2.477   8.350 -0.9044 -0.1642 -0.8108
   81CHL1  H24B 8464   4.994   2.393   8.258  0.2031  0.6505 -2.2498
   81CHL1   C25 8465   5.041   2.613   8.276  0.3550  0.3310  1.3062
   81CHL1   H25 8466   5.106   2.608   8.186 -3.3096  1.0553 -1.6460
   81CHL1   C26 8467   4.968   2.752   8.269 -0.0013  0.0283  0.4307
   81CHL1  H26A 8468   4.873   2.759   8.326  0.2319  0.1044  0.8097
   81CHL1  H26B 8469   5.018   2.851   8.269 -1.3096  0.7344 -0.8066
   81CHL1  H26C 8470   4.926   2.754   8.166  2.0699  2.7450 -0.4921
   81CHL1   C27 8471   5.110   2.592   8.410 -0.4289  0.3836 -0.1893
   81CHL1  H27A 8472   5.161   2.494   8.394  0.4047  0.7668  0.0590
   81CHL1  H27B 8473   5.178   2.669   8.452  1.1670 -1.9893  1.8217
   81CHL1  H27C 8474   5.028   2.577   8.483 -1.2561 -0.5964 -1.2677
   82CHL1    C3 8475   5.599   2.681   6.963  0.4010 -0.3323 -0.2224
   82CHL1    H3 8476   5.649   2.780   6.954  0.4663 -0.5055 -2.0873
   82CHL1    O3 8477   5.610   2.625   6.833 -0.2810  0.1844  0.8339
   82CHL1   H3' 8478   5.541   2.665   6.779  1.7820  1.2357 -1.1988
   82CHL1    C4 8479   5.674   2.599   7.066  0.1126  0.1128 -0.1536
   82CHL1   H4A 8480   5.638   2.494   7.051 -0.9653  0.1195  1.9007
   82CHL1   H4B 8481   5.776   2.617   7.028  0.4255  1.9062  1.3619
   82CHL1    C5 8482   5.651   2.633   7.210 -0.0311  0.3740 -0.0167
   82CHL1    C6 8483   5.747   2.668   7.299  0.3074 -0.3427 -0.5891
   82CHL1    H6 8484   5.848   2.670   7.255  1.2044 -1.5973  1.2639
   82CHL1    C7 8485   5.727   2.712   7.444 -0.2523  0.0309  0.2724
   82CHL1   H7A 8486   5.800   2.665   7.513  1.9293  2.3683 -0.2670
   82CHL1   H7B 8487   5.749   2.820   7.458  0.6313 -0.0212 -0.5492
   82CHL1    C8 8488   5.589   2.675   7.495  0.0284 -0.0117 -0.6025
   82CHL1    H8 8489   5.574   2.566   7.506  0.4695 -0.0132 -0.0098
   82CHL1   C14 8490   5.567   2.732   7.637 -0.1394 -0.2993  0.1389
   82CHL1   H14 8491   5.579   2.842   7.628  2.9176 -0.5887 -0.3611
   82CHL1   C15 8492   5.665   2.695   7.751  0.2073  0.3157  0.3438
   82CHL1  H15A 8493   5.690   2.587   7.755  0.1730  0.2168 -1.3357
   82CHL1  H15B 8494   5.763   2.746   7.739  0.5358 -0.1008  1.2034
   82CHL1   C16 8495   5.585   2.751   7.873  0.2409  0.3319  0.5516
   82CHL1  H16A 8496   5.579   2.658   7.934  0.2438  1.3252  2.1440
   82CHL1  H16B 8497   5.652   2.813   7.937  2.6831 -0.2031 -1.3324
   82CHL1   C17 8498   5.440   2.787   7.823 -0.1633 -0.1659 -0.1905
   82CHL1   H17 8499   5.437   2.896   7.800 -3.0739 -0.4214 -1.4661
   82CHL1   C13 8500   5.421   2.719   7.686 -0.8857 -0.4100  0.2155
   82CHL1   C18 8501   5.379   2.570   7.709  0.8391  0.1469 -0.3728
   82CHL1  H18A 8502   5.447   2.529   7.788  1.1421 -0.8571 -1.1369
   82CHL1  H18B 8503   5.271   2.563   7.732  0.6418  0.6254 -1.1492
   82CHL1  H18C 8504   5.401   2.508   7.620 -0.5718 -2.7482  1.1688
   82CHL1   C12 8505   5.332   2.790   7.578  0.0549 -0.7969 -0.4478
   82CHL1  H12A 8506   5.225   2.773   7.604 -0.4126  0.4240 -1.4570
   82CHL1  H12B 8507   5.341   2.901   7.578 -0.4376 -0.6520  2.8596
   82CHL1   C11 8508   5.343   2.725   7.443 -0.5833  0.0706 -0.0566
   82CHL1  H11A 8509   5.310   2.619   7.445  2.2293 -0.8998 -0.1626
   82CHL1  H11B 8510   5.283   2.770   7.361 -1.3257  0.8451  0.8862
   82CHL1    C9 8511   5.487   2.722   7.386  0.2617  0.4229  0.5341
   82CHL1    H9 8512   5.502   2.830   7.366 -0.0520  0.0476 -2.0761
   82CHL1   C10 8513   5.506   2.649   7.254  1.1578 -0.1960 -0.1404
   82CHL1   C19 8514   5.451   2.509   7.265  0.1241 -0.4233  0.2642
   82CHL1  H19A 8515   5.344   2.512   7.295  0.1021  0.3640  0.1409
   82CHL1  H19B 8516   5.465   2.453   7.171 -0.3794 -0.5994  0.2943
   82CHL1  H19C 8517   5.508   2.456   7.345  2.3323 -1.5698 -1.9278
   82CHL1    C1 8518   5.436   2.739   7.149 -0.0172 -0.8410  0.2079
   82CHL1   H1A 8519   5.326   2.741   7.163 -0.0522  1.8773  0.1956
   82CHL1   H1B 8520   5.476   2.843   7.139 -0.0150 -0.9332 -0.8392
   82CHL1    C2 8521   5.451   2.692   7.003  0.2641  0.2634  0.0783
   82CHL1   H2A 8522   5.396   2.751   6.927  0.5411  0.5530  0.0963
   82CHL1   H2B 8523   5.406   2.591   6.998 -1.0157  0.7056  1.6149
   82CHL1   C20 8524   5.341   2.754   7.939 -0.2340 -0.2640 -0.8591
   82CHL1   H20 8525   5.335   2.645   7.958 -1.6546  0.0325  0.6146
   82CHL1   C21 8526   5.197   2.805   7.899  0.1005 -0.2602 -0.4587
   82CHL1  H21A 8527   5.104   2.777   7.952  0.7346 -0.1731  0.7436
   82CHL1  H21B 8528   5.179   2.770   7.796  2.6511 -2.1404 -0.3738
   82CHL1  H21C 8529   5.203   2.916   7.890 -1.4132  0.3917  3.9303
   82CHL1   C22 8530   5.388   2.799   8.077 -0.5719 -0.3029 -0.0499
   82CHL1  H22A 8531   5.299   2.781   8.141 -0.1064 -1.1496  0.3721
   82CHL1  H22B 8532   5.474   2.740   8.114  0.3806 -1.3253 -3.5345
   82CHL1   C23 8533   5.428   2.943   8.080 -0.0323 -0.4267  0.0088
   82CHL1  H23A 8534   5.513   2.955   8.010  0.7177 -0.7883  0.8313
   82CHL1  H23B 8535   5.354   3.020   8.053  1.9910  1.2661 -0.9924
   82CHL1   C24 8536   5.477   2.981   8.224 -0.3263  0.4459  0.7318
   82CHL1  H24A 8537   5.402   2.950   8.301 -0.0179 -0.8302  0.5367
   82CHL1  H24B 8538   5.569   2.929   8.258 -0.5444  0.1311  0.8425
   82CHL1   C25 8539   5.486   3.129   8.235  0.2213 -0.0174 -0.9429
   82CHL1   H25 8540   5.401   3.177   8.183 -1.5285 -2.7591 -0.7957
   82CHL1   C26 8541   5.482   3.172   8.380  0.0516 -0.4132  0.3524
   82CHL1  H26A 8542   5.576   3.136   8.427 -0.1600 -2.0301 -0.4102
   82CHL1  H26B 8543   5.475   3.283   8.392 -0.8526 -0.4315  0.1067
   82CHL1  H26C 8544   5.391   3.129   8.428 -0.3609 -1.2163 -1.0898
   82CHL1   C27 8545   5.605   3.190   8.162  0.0905  0.2412 -0.4340
   82CHL1  H27A 8546   5.609   3.301   8.161  4.7628  0.3282  1.3939
   82CHL1  H27B 8547   5.703   3.173   8.212 -1.3309 -1.1629  2.0716
   82CHL1  H27C 8548   5.602   3.157   8.056 -0.2622 -0.5452 -0.1876
   83CHL1    C3 8549   1.058   4.976   6.859  0.3342  0.3502  0.4748
   83CHL1    H3 8550   1.142   5.045   6.838  0.7837 -0.4201 -0.2705
   83CHL1    O3 8551   1.006   4.938   6.733 -0.1145 -0.3049 -0.2245
   83CHL1   H3' 8552   0.974   5.021   6.698 -0.3379 -0.7653 -1.1184
   83CHL1    C4 8553   1.120   4.853   6.925  0.1621 -0.2798 -0.3266
   83CHL1   H4A 8554   1.048   4.768   6.925 -1.2520  0.8642 -1.8906
   83CHL1   H4B 8555   1.202   4.821   6.858  0.3750  0.8450 -0.6194
   83CHL1    C5 8556   1.163   4.862   7.075  0.2212  0.1946  0.4763
   83CHL1    C6 8557   1.285   4.815   7.106 -0.1927  0.0265 -0.8214
   83CHL1    H6 8558   1.350   4.772   7.029  2.8800  2.1532  0.3727
   83CHL1    C7 8559   1.348   4.830   7.244  0.3023  0.2556 -0.6438
   83CHL1   H7A 8560   1.396   4.740   7.289 -0.9058  0.2298  0.6869
   83CHL1   H7B 8561   1.426   4.908   7.234 -0.9408  1.5938 -0.2518
   83CHL1    C8 8562   1.244   4.871   7.357 -0.2910 -0.3720  0.3526
   83CHL1    H8 8563   1.179   4.786   7.389 -1.3842  0.5533  0.6851
   83CHL1   C14 8564   1.317   4.925   7.480 -0.4834  0.1712  0.7245
   83CHL1   H14 8565   1.359   5.021   7.444  0.6834 -1.5820 -3.0398
   83CHL1   C15 8566   1.432   4.847   7.551 -0.1509 -0.5206 -0.0812
   83CHL1  H15A 8567   1.398   4.741   7.561  0.4071 -0.8149 -1.1320
   83CHL1  H15B 8568   1.529   4.853   7.499  1.7414  0.5997  3.2698
   83CHL1   C16 8569   1.445   4.918   7.690  0.1331 -0.8419  0.7356
   83CHL1  H16A 8570   1.424   4.841   7.768  2.8808 -2.4163  0.0660
   83CHL1  H16B 8571   1.544   4.967   7.707 -0.6649  1.5188 -0.8786
   83CHL1   C17 8572   1.329   5.026   7.700  0.9414 -0.4819 -0.5437
   83CHL1   H17 8573   1.366   5.115   7.645 -0.1980  1.3089  1.4183
   83CHL1   C13 8574   1.225   4.970   7.593 -0.3263 -0.0351 -0.4822
   83CHL1   C18 8575   1.140   4.855   7.648 -0.8417  0.6642 -0.4164
   83CHL1  H18A 8576   1.077   4.808   7.569  1.9642  0.2266 -2.6074
   83CHL1  H18B 8577   1.208   4.789   7.706  2.7488  2.7989 -1.7913
   83CHL1  H18C 8578   1.062   4.893   7.717 -2.4577  1.5805 -2.6253
   83CHL1   C12 8579   1.130   5.076   7.537 -0.0533 -0.5829  0.5336
   83CHL1  H12A 8580   1.062   5.108   7.618  2.4586  1.9426  1.8072
   83CHL1  H12B 8581   1.188   5.166   7.508 -0.6333 -0.2111  0.5058
   83CHL1   C11 8582   1.059   5.032   7.406 -0.5874  0.4835  0.3844
   83CHL1  H11A 8583   0.974   4.965   7.432 -1.3831  0.9649 -0.8899
   83CHL1  H11B 8584   1.001   5.115   7.360 -1.2795  1.2792  2.5523
   83CHL1    C9 8585   1.148   4.976   7.302 -0.1265  0.0568  0.8515
   83CHL1    H9 8586   1.212   5.058   7.264  0.7730 -1.7112 -1.7456
   83CHL1   C10 8587   1.068   4.932   7.169  0.1204  0.3136 -0.4080
   83CHL1   C19 8588   0.952   4.832   7.200 -0.4188 -0.8363  0.2082
   83CHL1  H19A 8589   0.995   4.739   7.242 -1.5905 -2.0719 -1.2198
   83CHL1  H19B 8590   0.875   4.862   7.276  1.6883  0.4542  1.9508
   83CHL1  H19C 8591   0.894   4.810   7.108 -2.0275  0.3361  0.8674
   83CHL1    C1 8592   1.010   5.066   7.100 -0.4181  0.4106  0.2757
   83CHL1   H1A 8593   0.929   5.107   7.164 -1.5207  1.3787 -1.6270
   83CHL1   H1B 8594   1.084   5.148   7.094 -0.4337  0.4255  0.2792
   83CHL1    C2 8595   0.955   5.048   6.951  0.0505 -0.3592 -0.3818
   83CHL1   H2A 8596   0.930   5.145   6.903  2.3216 -0.3156 -1.6291
   83CHL1   H2B 8597   0.860   4.991   6.950  0.1423 -0.5264  0.0073
   83CHL1   C20 8598   1.277   5.060   7.844 -0.1757  0.5919 -0.2853
   83CHL1   H20 8599   1.197   4.986   7.867 -0.2574  0.7370 -0.0917
   83CHL1   C21 8600   1.224   5.206   7.839  0.4489 -0.1537  0.1622
   83CHL1  H21A 8601   1.298   5.286   7.817  2.8156 -2.4496 -0.9348
   83CHL1  H21B 8602   1.179   5.218   7.940 -0.2990  1.7159 -0.3707
   83CHL1  H21C 8603   1.146   5.208   7.760 -2.1475 -2.0060  2.4851
   83CHL1   C22 8604   1.387   5.067   7.948 -0.8571 -0.3396 -0.4271
   83CHL1  H22A 8605   1.455   4.984   7.920 -0.3527  0.4536 -1.6197
   83CHL1  H22B 8606   1.452   5.156   7.933 -0.1722 -1.1001 -2.1538
   83CHL1   C23 8607   1.333   5.055   8.092 -0.7400  0.2685 -0.0295
   83CHL1  H23A 8608   1.421   5.074   8.158  0.9114 -2.4446 -1.2710
   83CHL1  H23B 8609   1.264   5.138   8.120 -0.9201 -0.0041  0.3345
   83CHL1   C24 8610   1.284   4.911   8.119 -0.6056  0.2488 -0.4802
   83CHL1  H24A 8611   1.190   4.898   8.061 -0.0932  2.5488 -1.9579
   83CHL1  H24B 8612   1.354   4.836   8.076  0.0527  0.8720 -0.5071
   83CHL1   C25 8613   1.259   4.884   8.265 -0.1956 -0.1237  0.4985
   83CHL1   H25 8614   1.349   4.897   8.329  0.4032  0.1903 -0.3870
   83CHL1   C26 8615   1.147   4.978   8.313 -0.2451  0.4775  0.0247
   83CHL1  H26A 8616   1.188   5.073   8.354 -1.6619  1.6463 -1.1404
   83CHL1  H26B 8617   1.085   5.012   8.227  2.1429  1.0229 -1.5615
   83CHL1  H26C 8618   1.080   4.932   8.389 -0.1539  0.1844 -0.0727
   83CHL1   C27 8619   1.222   4.731   8.276 -0.4802 -0.2446 -0.5746
   83CHL1  H27A 8620   1.162   4.706   8.186  0.6775  2.4912 -2.2456
   83CHL1  H27B 8621   1.316   4.673   8.285  0.8350  1.5264 -2.0734
   83CHL1  H27C 8622   1.160   4.710   8.366 -0.0075  3.1920  0.7178
   84CHL1    C3 8623   4.302   6.490   6.920 -0.6435  0.1168 -0.3683
   84CHL1    H3 8624   4.205   6.542   6.934 -2.4173 -2.7637 -1.0240
   84CHL1    O3 8625   4.318   6.496   6.779 -0.1688 -0.3588  0.0602
   84CHL1   H3' 8626   4.398   6.445   6.765 -0.1535 -0.4416  0.4360
   84CHL1    C4 8627   4.417   6.571   6.983  0.5592  0.6908  0.0113
   84CHL1   H4A 8628   4.521   6.539   6.963  0.6080  0.6333  0.3452
   84CHL1   H4B 8629   4.410   6.673   6.939  2.6437  2.1633  2.7769
   84CHL1    C5 8630   4.393   6.558   7.133 -0.9008 -1.3136 -0.5589
   84CHL1    C6 8631   4.383   6.679   7.206 -0.6165 -0.6258  0.2095
   84CHL1    H6 8632   4.378   6.777   7.156  0.1833 -1.2338 -1.1175
   84CHL1    C7 8633   4.367   6.669   7.355 -0.1179 -0.4636  0.9783
   84CHL1   H7A 8634   4.419   6.758   7.398 -2.8023  1.5927  0.2649
   84CHL1   H7B 8635   4.259   6.686   7.377 -0.9031 -1.6792 -1.5506
   84CHL1    C8 8636   4.411   6.534   7.415  0.1443  0.2195  0.0416
   84CHL1    H8 8637   4.522   6.540   7.413  0.1483  0.2613  0.3455
   84CHL1   C14 8638   4.358   6.535   7.554  0.0039  0.3945 -0.1967
   84CHL1   H14 8639   4.247   6.524   7.543 -0.1168  0.3964  0.9045
   84CHL1   C15 8640   4.375   6.655   7.645 -0.1958 -0.0651  0.4386
   84CHL1  H15A 8641   4.481   6.687   7.653 -0.4102  0.7669  0.0309
   84CHL1  H15B 8642   4.304   6.738   7.626  0.9727  1.4156  2.2085
   84CHL1   C16 8643   4.342   6.602   7.781 -0.1275 -0.0314 -0.3060
   84CHL1  H16A 8644   4.426   6.628   7.850 -0.7473 -0.7035  0.7206
   84CHL1  H16B 8645   4.246   6.641   7.820 -2.5421 -0.2495 -5.3420
   84CHL1   C17 8646   4.348   6.447   7.772  0.2497 -0.2589 -0.0940
   84CHL1   H17 8647   4.239   6.425   7.773  0.7024 -3.0505  2.2909
   84CHL1   C13 8648   4.395   6.408   7.633 -0.1482 -0.6414  0.1339
   84CHL1   C18 8649   4.551   6.401   7.645 -0.3015 -0.6110  0.1216
   84CHL1  H18A 8650   4.588   6.299   7.669 -0.5315 -0.4097  1.4339
   84CHL1  H18B 8651   4.593   6.418   7.544  1.1170  0.1675  0.8176
   84CHL1  H18C 8652   4.590   6.480   7.713  0.5585  0.9097 -2.0358
   84CHL1   C12 8653   4.321   6.295   7.564  0.5091  0.8880 -0.4706
   84CHL1  H12A 8654   4.342   6.197   7.611 -2.5187  0.3564  0.0070
   84CHL1  H12B 8655   4.211   6.300   7.584  0.4500 -1.6693  0.1932
   84CHL1   C11 8656   4.370   6.284   7.422 -0.5649  0.6691  0.4399
   84CHL1  H11A 8657   4.477   6.256   7.429 -0.0303  2.3002 -0.6999
   84CHL1  H11B 8658   4.320   6.206   7.361  2.7468 -1.1359 -0.1658
   84CHL1    C9 8659   4.353   6.415   7.343 -0.1439 -0.1891  0.7006
   84CHL1    H9 8660   4.243   6.425   7.338 -0.4275 -2.2529  1.8366
   84CHL1   C10 8661   4.394   6.419   7.195  0.4038  0.0926  0.1473
   84CHL1   C19 8662   4.537   6.357   7.184  0.0878  0.0345 -0.5393
   84CHL1  H19A 8663   4.601   6.416   7.254 -1.5485  2.5321 -1.0141
   84CHL1  H19B 8664   4.546   6.249   7.207 -2.1195 -0.4000 -1.4844
   84CHL1  H19C 8665   4.582   6.368   7.083  0.6765 -1.5663 -0.4826
   84CHL1    C1 8666   4.281   6.343   7.111  0.2976 -0.3910  0.1400
   84CHL1   H1A 8667   4.285   6.238   7.147  0.8950 -0.4151  0.0128
   84CHL1   H1B 8668   4.189   6.401   7.134  1.1201  2.1379 -2.2791
   84CHL1    C2 8669   4.289   6.348   6.963  0.3432  0.7418 -0.3909
   84CHL1   H2A 8670   4.196   6.312   6.914 -0.4423  1.5680  0.4671
   84CHL1   H2B 8671   4.374   6.285   6.929 -1.7325 -2.1236 -0.6090
   84CHL1   C20 8672   4.396   6.384   7.900  0.0841  0.3174 -0.3883
   84CHL1   H20 8673   4.506   6.391   7.908 -0.1486  3.8263  2.7637
   84CHL1   C21 8674   4.363   6.234   7.907 -0.3700  0.7724 -0.0983
   84CHL1  H21A 8675   4.405   6.184   7.818  0.8153  2.9323 -0.8212
   84CHL1  H21B 8676   4.253   6.224   7.893 -0.5893 -0.1484  1.8773
   84CHL1  H21C 8677   4.391   6.191   8.006 -3.1851  0.8025  0.7961
   84CHL1   C22 8678   4.325   6.454   8.030 -0.0222  0.0137  0.4340
   84CHL1  H22A 8679   4.320   6.565   8.028 -1.6720 -0.0291 -2.0009
   84CHL1  H22B 8680   4.220   6.419   8.014 -0.5667  1.5074  0.6376
   84CHL1   C23 8681   4.373   6.402   8.170 -0.7665 -0.1545  0.2531
   84CHL1  H23A 8682   4.293   6.445   8.233 -0.8252  2.0224 -1.1909
   84CHL1  H23B 8683   4.386   6.292   8.181 -2.8768 -0.2829  1.9844
   84CHL1   C24 8684   4.506   6.467   8.214  0.6365  0.2244  0.0101
   84CHL1  H24A 8685   4.578   6.422   8.143  0.0660 -1.7424  0.6091
   84CHL1  H24B 8686   4.501   6.577   8.208  1.6058  0.3237  0.7729
   84CHL1   C25 8687   4.534   6.450   8.364  0.4404 -0.2977  0.0581
   84CHL1   H25 8688   4.453   6.487   8.430 -1.0534 -2.6708 -0.3157
   84CHL1   C26 8689   4.555   6.309   8.401  0.8766  0.2922 -0.4051
   84CHL1  H26A 8690   4.593   6.298   8.505 -0.2726  0.4687  0.0540
   84CHL1  H26B 8691   4.463   6.249   8.383  1.0308 -0.1457  0.2243
   84CHL1  H26C 8692   4.628   6.273   8.326 -1.3187  0.7268 -2.9369
   84CHL1   C27 8693   4.653   6.540   8.416  0.1197 -0.2626  0.1199
   84CHL1  H27A 8694   4.667   6.527   8.525 -2.2169 -1.8491  0.3059
   84CHL1  H27B 8695   4.747   6.529   8.359 -1.3694 -2.1884 -2.1881
   84CHL1  H27C 8696   4.613   6.644   8.406 -1.5076 -0.6385  2.0478
   85CHL1    C3 8697   1.669   3.944   6.763 -0.5869 -0.1047 -0.2202
   85CHL1    H3 8698   1.770   3.987   6.748 -1.5559  2.3549 -0.1869
   85CHL1    O3 8699   1.599   3.962   6.645  0.0815 -0.0618  0.4234
   85CHL1   H3' 8700   1.514   3.995   6.675  0.2833 -0.0449  0.9892
   85CHL1    C4 8701   1.673   3.787   6.792 -0.1710 -0.5731  0.4814
   85CHL1   H4A 8702   1.569   3.748   6.785 -0.2690 -0.5298  1.5494
   85CHL1   H4B 8703   1.725   3.741   6.705  0.1384  1.8318 -0.6746
   85CHL1    C5 8704   1.733   3.757   6.929 -0.2103  0.4505  0.7199
   85CHL1    C6 8705   1.843   3.678   6.941 -0.5753  0.2546 -0.2543
   85CHL1    H6 8706   1.887   3.634   6.850 -0.1026 -0.1342  0.1551
   85CHL1    C7 8707   1.900   3.628   7.065  0.6459 -0.1808  0.6936
   85CHL1   H7A 8708   1.903   3.517   7.070 -1.4402 -0.2797  0.6186
   85CHL1   H7B 8709   2.003   3.670   7.076  0.6815  0.0489 -0.4259
   85CHL1    C8 8710   1.820   3.669   7.188 -0.2677 -0.5173 -0.2841
   85CHL1    H8 8711   1.733   3.600   7.192 -0.9673  0.4045  2.5017
   85CHL1   C14 8712   1.906   3.652   7.314 -0.0970 -0.5577  0.3464
   85CHL1   H14 8713   1.982   3.732   7.306 -0.0762 -0.5193  0.9016
   85CHL1   C15 8714   1.983   3.521   7.336 -0.3955 -0.2664 -0.3008
   85CHL1  H15A 8715   1.910   3.439   7.323 -1.0327  0.2635 -0.1647
   85CHL1  H15B 8716   2.059   3.507   7.257  0.9408  0.5922  0.7925
   85CHL1   C16 8717   2.026   3.539   7.482 -0.7934  0.4484 -0.1831
   85CHL1  H16A 8718   2.013   3.443   7.536  0.6971 -0.3663 -1.1906
   85CHL1  H16B 8719   2.134   3.563   7.493 -0.8609 -0.1593  2.3305
   85CHL1   C17 8720   1.948   3.652   7.548 -0.3323  0.1483 -0.5181
   85CHL1   H17 8721   2.011   3.743   7.557 -0.2698 -0.0966  3.1135
   85CHL1   C13 8722   1.836   3.681   7.448 -0.2301  0.1121 -0.4630
   85CHL1   C18 8723   1.718   3.581   7.464  0.3998  0.8059  0.3067
   85CHL1  H18A 8724   1.646   3.599   7.381 -0.1671 -1.2194  0.3088
   85CHL1  H18B 8725   1.745   3.473   7.455 -0.0228  0.8111 -1.4733
   85CHL1  H18C 8726   1.663   3.602   7.558 -0.1377 -1.6064  0.6004
   85CHL1   C12 8727   1.782   3.832   7.442 -0.2951  0.4286 -0.2012
   85CHL1  H12A 8728   1.727   3.867   7.532 -1.4328  0.5758 -0.9338
   85CHL1  H12B 8729   1.872   3.896   7.424 -1.3327  2.4640  1.4047
   85CHL1   C11 8730   1.701   3.870   7.314  0.2925  0.5225  0.0320
   85CHL1  H11A 8731   1.610   3.809   7.330  0.6887  0.0983  0.7055
   85CHL1  H11B 8732   1.682   3.979   7.310  0.1675  0.4766 -0.8353
   85CHL1    C9 8733   1.761   3.810   7.180 -0.3541  0.3713  0.6298
   85CHL1    H9 8734   1.849   3.875   7.159  1.4172 -1.9807  0.3515
   85CHL1   C10 8735   1.671   3.823   7.046 -0.2017  0.2704  0.0811
   85CHL1   C19 8736   1.535   3.756   7.064  0.0987 -0.0455 -0.1851
   85CHL1  H19A 8737   1.481   3.796   7.153 -0.2743 -1.2324  0.1352
   85CHL1  H19B 8738   1.472   3.776   6.974 -2.3960  0.0680  1.4723
   85CHL1  H19C 8739   1.552   3.648   7.082  0.7592  0.0644 -0.1340
   85CHL1    C1 8740   1.656   3.975   7.019 -0.0689  1.0123  0.5611
   85CHL1   H1A 8741   1.573   4.008   7.084 -1.0421 -0.5918  0.1763
   85CHL1   H1B 8742   1.757   4.015   7.042  0.6914  0.1451 -1.1030
   85CHL1    C2 8743   1.598   4.016   6.879 -0.3451  0.1977  0.2440
   85CHL1   H2A 8744   1.614   4.126   6.869  2.0482 -0.0710  0.4890
   85CHL1   H2B 8745   1.490   3.993   6.878 -0.3188  0.0578  0.5624
   85CHL1   C20 8746   1.913   3.621   7.697  0.0891  0.0006  0.2088
   85CHL1   H20 8747   1.858   3.525   7.691  1.4739 -0.7567 -1.1690
   85CHL1   C21 8748   1.825   3.724   7.766  0.0564 -0.0259 -0.2219
   85CHL1  H21A 8749   1.884   3.809   7.806 -0.5289 -0.0948  0.8240
   85CHL1  H21B 8750   1.775   3.680   7.855 -0.8912  2.7277  0.7122
   85CHL1  H21C 8751   1.748   3.777   7.706 -0.1571  1.1517  1.0322
   85CHL1   C22 8752   2.047   3.606   7.784  0.0339 -0.3894 -0.4949
   85CHL1  H22A 8753   2.121   3.557   7.717  0.3598  0.7969 -1.0080
   85CHL1  H22B 8754   2.076   3.712   7.799 -1.7800  0.1812 -0.8545
   85CHL1   C23 8755   2.043   3.537   7.922 -0.1442  0.4119 -0.5820
   85CHL1  H23A 8756   1.963   3.590   7.979 -2.7426 -1.3105 -2.3596
   85CHL1  H23B 8757   2.002   3.435   7.908 -1.3535  0.7582  0.2747
   85CHL1   C24 8758   2.171   3.551   7.998  0.0444 -0.2960  0.0173
   85CHL1  H24A 8759   2.254   3.498   7.949 -1.1302 -2.8045  0.5943
   85CHL1  H24B 8760   2.197   3.659   7.995 -0.5759 -0.1556 -1.9537
   85CHL1   C25 8761   2.154   3.498   8.144 -0.4666  0.0277 -0.0600
   85CHL1   H25 8762   2.053   3.525   8.180  0.6814  2.1605  1.8175
   85CHL1   C26 8763   2.178   3.347   8.157  0.2464  0.0234  0.2722
   85CHL1  H26A 8764   2.136   3.307   8.252  3.3445 -3.0692  0.5672
   85CHL1  H26B 8765   2.143   3.294   8.066  1.1434 -2.9812  1.5383
   85CHL1  H26C 8766   2.288   3.327   8.159  0.1019 -1.0100 -0.5963
   85CHL1   C27 8767   2.257   3.563   8.240  0.0346 -0.3410  0.4942
   85CHL1  H27A 8768   2.251   3.674   8.237  0.4836 -0.3058  0.8433
   85CHL1  H27B 8769   2.242   3.527   8.343  0.5029 -0.1370  0.6360
   85CHL1  H27C 8770   2.359   3.532   8.207 -0.2020 -0.6538  0.0415
   86CHL1    C3 8771   6.068   0.615   6.897  0.7948 -0.1871 -0.2790
   86CHL1    H3 8772   6.094   0.723   6.889  0.7921 -0.2948 -1.8962
   86CHL1    O3 8773   6.066   0.563   6.769  0.4344 -0.3722  1.0701
   86CHL1   H3' 8774   6.150   0.520   6.753 -0.9420 -2.2295 -2.0740
   86CHL1    C4 8775   6.184   0.550   6.973  0.5255  0.0596  0.3490
   86CHL1   H4A 8776   6.174   0.440   6.961  0.6375 -0.0207  0.9580
   86CHL1   H4B 8777   6.278   0.570   6.917  0.1903 -0.7576 -0.5398
   86CHL1    C5 8778   6.180   0.590   7.118  0.0165  0.1738  0.7694
   86CHL1    C6 8779   6.302   0.628   7.168  0.1517 -0.6718 -0.0751
   86CHL1    H6 8780   6.393   0.629   7.106  1.4828  0.9351  1.7899
   86CHL1    C7 8781   6.321   0.659   7.309  0.1812 -0.3338 -0.3196
   86CHL1   H7A 8782   6.406   0.603   7.352 -0.1400 -1.2322 -0.8426
   86CHL1   H7B 8783   6.343   0.768   7.320  0.0866 -0.1666 -1.6159
   86CHL1    C8 8784   6.200   0.618   7.400  0.1733  0.3595  0.1287
   86CHL1    H8 8785   6.212   0.508   7.413 -0.0762  0.5116  1.8722
   86CHL1   C14 8786   6.214   0.694   7.530 -0.0525 -0.4848  0.0066
   86CHL1   H14 8787   6.206   0.802   7.505 -0.3079 -0.5809 -0.3381
   86CHL1   C15 8788   6.341   0.678   7.608 -0.1663 -0.1841  0.2343
   86CHL1  H15A 8789   6.361   0.570   7.626 -1.3046 -0.3914  0.3222
   86CHL1  H15B 8790   6.432   0.729   7.570 -1.9337  1.1571 -2.5344
   86CHL1   C16 8791   6.303   0.740   7.745  0.3165 -0.6663  0.3513
   86CHL1  H16A 8792   6.348   0.677   7.824  2.0898  0.7329  0.5270
   86CHL1  H16B 8793   6.344   0.843   7.739 -1.4996  0.0986  0.3299
   86CHL1   C17 8794   6.148   0.755   7.753  0.5599 -0.2574  0.1223
   86CHL1   H17 8795   6.106   0.856   7.733 -2.1732 -1.3861 -0.2847
   86CHL1   C13 8796   6.105   0.667   7.629  0.4069  0.2118 -0.0072
   86CHL1   C18 8797   6.112   0.516   7.682 -0.1661  0.7706  0.3376
   86CHL1  H18A 8798   6.122   0.442   7.600 -1.5476  1.7359 -0.7459
   86CHL1  H18B 8799   6.194   0.500   7.755 -0.6536 -2.1009  0.3624
   86CHL1  H18C 8800   6.017   0.497   7.736 -0.6595  0.2898 -0.6879
   86CHL1   C12 8801   5.962   0.705   7.569  0.1937  0.3752 -0.2341
   86CHL1  H12A 8802   5.879   0.665   7.632  1.1772 -0.0811  0.8098
   86CHL1  H12B 8803   5.945   0.814   7.561 -0.8101  0.1448 -1.3956
   86CHL1   C11 8804   5.939   0.640   7.427  0.1369 -0.4816 -0.0807
   86CHL1  H11A 8805   5.929   0.532   7.451 -0.2560 -0.2910  0.6311
   86CHL1  H11B 8806   5.841   0.663   7.379 -0.5113 -0.9161  0.9861
   86CHL1    C9 8807   6.060   0.651   7.331 -0.1690  0.4889 -0.2440
   86CHL1    H9 8808   6.064   0.760   7.311  0.8840  0.3118 -1.0502
   86CHL1   C10 8809   6.048   0.584   7.199 -0.4118  0.5858  0.3287
   86CHL1   C19 8810   6.017   0.434   7.219  0.2563  0.6210 -0.0227
   86CHL1  H19A 8811   6.090   0.382   7.284  2.2404  2.5239 -0.5801
   86CHL1  H19B 8812   5.918   0.420   7.267  1.1988 -0.8985  1.6102
   86CHL1  H19C 8813   6.018   0.376   7.124  2.5108  0.7192 -0.1242
   86CHL1    C1 8814   5.937   0.654   7.107 -0.7405 -0.4808  0.5033
   86CHL1   H1A 8815   5.836   0.644   7.152 -0.9610  0.0945  0.1389
   86CHL1   H1B 8816   5.967   0.760   7.098  0.4649 -0.8492 -0.0893
   86CHL1    C2 8817   5.930   0.600   6.966 -0.2851  0.1566  0.3564
   86CHL1   H2A 8818   5.848   0.647   6.907 -0.6779 -0.2710  0.5585
   86CHL1   H2B 8819   5.910   0.491   6.974  1.2271 -0.1292  0.5095
   86CHL1   C20 8820   6.076   0.719   7.887  0.7487  0.1451 -0.0463
   86CHL1   H20 8821   6.092   0.611   7.907  1.6867 -0.1653 -2.2012
   86CHL1   C21 8822   5.926   0.759   7.888 -0.4486 -0.2238  0.9198
   86CHL1  H21A 8823   5.871   0.679   7.834  0.7712 -0.4087 -0.1017
   86CHL1  H21B 8824   5.912   0.859   7.841 -1.5012 -0.0922  1.4643
   86CHL1  H21C 8825   5.890   0.762   7.993 -1.7500  0.7103  0.4802
   86CHL1   C22 8826   6.139   0.792   8.013  0.2030  0.7177  0.1058
   86CHL1  H22A 8827   6.249   0.784   8.009  0.0760 -2.1863  0.4355
   86CHL1  H22B 8828   6.106   0.898   8.008  1.7884  1.2424  0.4791
   86CHL1   C23 8829   6.090   0.740   8.148  0.6065  0.2015 -0.2971
   86CHL1  H23A 8830   5.984   0.709   8.147  0.4697  0.2884  2.8625
   86CHL1  H23B 8831   6.139   0.646   8.183 -0.1306  0.1872  0.7412
   86CHL1   C24 8832   6.094   0.839   8.263 -0.4415 -0.4564  0.3695
   86CHL1  H24A 8833   6.202   0.854   8.284 -0.0514  0.1755 -1.8492
   86CHL1  H24B 8834   6.055   0.933   8.219  0.6487 -0.3808 -0.4858
   86CHL1   C25 8835   6.020   0.811   8.398 -0.6070  0.4155  0.7615
   86CHL1   H25 8836   6.058   0.713   8.433  1.7843  0.8467 -0.4002
   86CHL1   C26 8837   6.062   0.919   8.502 -0.0834  0.6642 -0.8116
   86CHL1  H26A 8838   6.083   1.013   8.447 -0.1605  2.4119  1.9577
   86CHL1  H26B 8839   5.991   0.947   8.584  0.7271  1.5934 -0.4100
   86CHL1  H26C 8840   6.155   0.883   8.551 -0.4982  0.6253 -0.0242
   86CHL1   C27 8841   5.875   0.826   8.368 -0.0910  0.5710 -0.0268
   86CHL1  H27A 8842   5.849   0.927   8.329  2.0045  1.3396  0.4163
   86CHL1  H27B 8843   5.840   0.755   8.291  1.3783  2.7305 -2.8946
   86CHL1  H27C 8844   5.816   0.811   8.461 -3.0362  1.9169 -1.5497
   87CHL1    C3 8845   6.218   6.653   6.995  0.7337 -0.1873 -0.2455
   87CHL1    H3 8846   6.108   6.644   7.014  0.7298 -0.1314 -0.2431
   87CHL1    O3 8847   6.256   6.651   6.860  0.7104 -0.1641 -0.1896
   87CHL1   H3' 8848   6.196   6.704   6.807  1.1171 -0.3637 -0.8639
   87CHL1    C4 8849   6.266   6.782   7.067 -0.0325 -0.2866 -0.2943
   87CHL1   H4A 8850   6.375   6.778   7.044  0.2555 -3.1322  1.1227
   87CHL1   H4B 8851   6.216   6.860   7.006 -1.6421 -0.7402  0.4038
   87CHL1    C5 8852   6.241   6.775   7.217  0.6150  1.2180 -0.3942
   87CHL1    C6 8853   6.150   6.855   7.267  0.2206  0.0885 -0.2992
   87CHL1    H6 8854   6.103   6.932   7.205 -0.9047 -0.2295  0.1331
   87CHL1    C7 8855   6.128   6.873   7.413  0.7021  0.0280 -1.0173
   87CHL1   H7A 8856   6.129   6.978   7.448  1.7003 -0.4548  0.5184
   87CHL1   H7B 8857   6.035   6.820   7.444  0.8940 -0.2389 -0.8866
   87CHL1    C8 8858   6.232   6.791   7.494  0.4097  1.1594 -0.8427
   87CHL1    H8 8859   6.334   6.836   7.492  1.7448 -1.6541 -0.3793
   87CHL1   C14 8860   6.192   6.783   7.643 -0.3721 -0.2894 -0.0132
   87CHL1   H14 8861   6.086   6.749   7.649 -0.2580 -0.8115 -0.7590
   87CHL1   C15 8862   6.178   6.926   7.713 -0.1930 -0.7180  0.2653
   87CHL1  H15A 8863   6.256   6.995   7.675 -0.1824  0.1149  1.7532
   87CHL1  H15B 8864   6.075   6.960   7.687  0.6467  2.1388  0.3788
   87CHL1   C16 8865   6.191   6.883   7.859 -0.2595 -0.0232  0.5161
   87CHL1  H16A 8866   6.282   6.937   7.894 -0.8532  0.2052  1.7498
   87CHL1  H16B 8867   6.101   6.903   7.920 -0.7487  0.7172 -0.4122
   87CHL1   C17 8868   6.219   6.725   7.867  0.7349 -0.7059  0.0114
   87CHL1   H17 8869   6.113   6.690   7.862 -0.6309  2.9583  0.4660
   87CHL1   C13 8870   6.286   6.693   7.733  0.5188 -0.4254  1.5650
   87CHL1   C18 8871   6.431   6.754   7.726  0.2716  0.1977  0.1886
   87CHL1  H18A 8872   6.432   6.861   7.757  1.9698 -0.4823  2.8161
   87CHL1  H18B 8873   6.492   6.698   7.800 -0.8293 -2.9551 -1.1481
   87CHL1  H18C 8874   6.482   6.750   7.628  0.1970 -0.3111  0.1705
   87CHL1   C12 8875   6.278   6.546   7.686 -0.3810 -0.8025 -0.3879
   87CHL1  H12A 8876   6.348   6.484   7.747 -1.1382  0.1289  1.5241
   87CHL1  H12B 8877   6.180   6.495   7.688 -0.5404 -0.4940  0.3253
   87CHL1   C11 8878   6.313   6.537   7.535  0.3921 -0.0601  0.7179
   87CHL1  H11A 8879   6.422   6.528   7.520  0.0990 -2.7565 -0.5316
   87CHL1  H11B 8880   6.282   6.442   7.486 -2.8539  2.1225 -1.8735
   87CHL1    C9 8881   6.255   6.649   7.441  0.7326 -0.1044  1.1333
   87CHL1    H9 8882   6.148   6.620   7.440  0.0695  2.1205  0.9661
   87CHL1   C10 8883   6.306   6.661   7.294 -0.0197  0.9499 -0.6217
   87CHL1   C19 8884   6.454   6.684   7.294 -0.1636  0.0451 -0.0066
   87CHL1  H19A 8885   6.462   6.781   7.348 -0.9459 -0.1163  0.4167
   87CHL1  H19B 8886   6.505   6.606   7.354  0.6146  0.9559  0.5536
   87CHL1  H19C 8887   6.497   6.696   7.192 -0.4109  1.5857  0.0334
   87CHL1    C1 8888   6.270   6.530   7.213  0.7040 -0.4969 -0.7368
   87CHL1   H1A 8889   6.329   6.444   7.252  0.5362 -0.2838  0.0008
   87CHL1   H1B 8890   6.163   6.510   7.235  0.3067 -2.0273 -3.6226
   87CHL1    C2 8891   6.294   6.538   7.063  0.6762  0.4633  0.1330
   87CHL1   H2A 8892   6.264   6.437   7.028  1.9383 -0.2895  1.1350
   87CHL1   H2B 8893   6.399   6.548   7.029  0.6880 -1.2719 -0.4287
   87CHL1   C20 8894   6.290   6.675   7.991 -0.4846 -0.5240 -0.5369
   87CHL1   H20 8895   6.344   6.584   7.957 -1.9883 -0.8701 -2.1646
   87CHL1   C21 8896   6.187   6.629   8.095 -0.3988 -0.5774 -0.0242
   87CHL1  H21A 8897   6.104   6.564   8.061  0.5193 -0.9728 -1.6197
   87CHL1  H21B 8898   6.150   6.714   8.157 -0.7603  0.5148 -1.6877
   87CHL1  H21C 8899   6.239   6.555   8.161 -3.5086 -1.3513  1.7492
   87CHL1   C22 8900   6.383   6.782   8.052  0.2365 -0.1458 -0.1758
   87CHL1  H22A 8901   6.464   6.817   7.984  0.3597 -0.6078 -0.2690
   87CHL1  H22B 8902   6.335   6.880   8.077  2.1840  1.1613 -1.2606
   87CHL1   C23 8903   6.447   6.745   8.191  0.2852 -0.2029  0.1930
   87CHL1  H23A 8904   6.366   6.766   8.264 -0.7229  2.0755 -1.4309
   87CHL1  H23B 8905   6.484   6.641   8.183 -1.5231 -0.7842 -1.6701
   87CHL1   C24 8906   6.574   6.826   8.218  0.2173 -0.1798  0.3342
   87CHL1  H24A 8907   6.644   6.819   8.131 -1.6900 -0.5119 -1.2375
   87CHL1  H24B 8908   6.543   6.931   8.236 -1.6160 -0.9317  1.9024
   87CHL1   C25 8909   6.659   6.766   8.338 -0.9969 -0.1027  0.1526
   87CHL1   H25 8910   6.644   6.657   8.325 -3.3917  0.3008 -1.0905
   87CHL1   C26 8911   6.806   6.807   8.347 -0.5685 -0.4209  0.2115
   87CHL1  H26A 8912   6.852   6.751   8.431 -0.9684  0.7276  1.2200
   87CHL1  H26B 8913   6.874   6.767   8.268  0.6914 -3.5220  2.6490
   87CHL1  H26C 8914   6.831   6.915   8.342  1.9446 -0.9395 -4.2266
   87CHL1   C27 8915   6.594   6.805   8.475 -0.2391  0.5885  0.3504
   87CHL1  H27A 8916   6.494   6.757   8.476 -0.1670  0.4195 -0.0534
   87CHL1  H27B 8917   6.650   6.764   8.562 -0.0105 -0.6400 -0.3476
   87CHL1  H27C 8918   6.576   6.914   8.484  0.2508  0.7587 -0.6228
   88CHL1    C3 8919   2.340   4.875   6.846 -0.0461 -0.5631 -0.2331
   88CHL1    H3 8920   2.243   4.927   6.860  0.3138 -0.1366  0.7717
   88CHL1    O3 8921   2.352   4.821   6.718 -0.5310  0.3416 -0.4218
   88CHL1   H3' 8922   2.437   4.777   6.715 -0.3256  0.7719 -1.1730
   88CHL1    C4 8923   2.455   4.970   6.878 -0.1007 -0.1417 -0.7153
   88CHL1   H4A 8924   2.546   4.912   6.852  0.2850  0.3789 -0.5269
   88CHL1   H4B 8925   2.453   5.050   6.801 -1.9439 -0.4453 -1.0289
   88CHL1    C5 8926   2.461   5.019   7.017 -0.0782 -0.9138  0.2959
   88CHL1    C6 8927   2.464   5.147   7.054 -0.1766 -0.1949  0.4314
   88CHL1    H6 8928   2.460   5.222   6.973 -0.4174 -0.4366  0.2175
   88CHL1    C7 8929   2.479   5.196   7.200  0.4033  0.5612 -0.2095
   88CHL1   H7A 8930   2.557   5.275   7.208 -0.4759  1.4705 -0.3708
   88CHL1   H7B 8931   2.382   5.248   7.215  0.6094  0.8131  0.2842
   88CHL1    C8 8932   2.499   5.087   7.309  0.4434  0.9519  0.3821
   88CHL1    H8 8933   2.605   5.053   7.309  0.3898  0.7755 -0.2535
   88CHL1   C14 8934   2.464   5.125   7.446 -0.1221  0.2736 -0.5376
   88CHL1   H14 8935   2.355   5.145   7.443  0.1910  2.0992 -0.6036
   88CHL1   C15 8936   2.527   5.262   7.496 -0.0545  0.0441 -0.0902
   88CHL1  H15A 8937   2.632   5.284   7.470  0.3144 -0.0829  1.2352
   88CHL1  H15B 8938   2.461   5.342   7.457 -0.3703 -1.5798 -3.1345
   88CHL1   C16 8939   2.514   5.249   7.647 -0.2472  0.2255 -0.1586
   88CHL1  H16A 8940   2.612   5.259   7.697  0.2578  1.4273 -1.3264
   88CHL1  H16B 8941   2.442   5.326   7.683 -4.3494 -2.2728 -2.1826
   88CHL1   C17 8942   2.455   5.110   7.679  0.3075  0.0407  0.5577
   88CHL1   H17 8943   2.344   5.116   7.681  0.1306 -1.3026 -1.6086
   88CHL1   C13 8944   2.487   5.024   7.552  0.2999  0.5032 -0.5228
   88CHL1   C18 8945   2.642   4.982   7.554 -1.0234 -0.5465  0.0779
   88CHL1  H18A 8946   2.657   4.904   7.631  1.6348  0.8868  1.1526
   88CHL1  H18B 8947   2.674   4.937   7.458 -0.5856  0.7748 -0.4144
   88CHL1  H18C 8948   2.710   5.066   7.580  1.4240 -3.1431  2.7209
   88CHL1   C12 8949   2.397   4.907   7.519  0.4868  1.4384 -0.3547
   88CHL1  H12A 8950   2.421   4.827   7.592  2.2809  1.7463 -0.5531
   88CHL1  H12B 8951   2.293   4.938   7.542  0.2104  0.7045 -0.5689
   88CHL1   C11 8952   2.425   4.849   7.377 -0.2638 -0.0531  0.3225
   88CHL1  H11A 8953   2.524   4.801   7.389 -0.2921 -0.1987 -0.0133
   88CHL1  H11B 8954   2.354   4.765   7.367 -0.5272  0.0611  1.1988
   88CHL1    C9 8955   2.418   4.960   7.268  0.5739 -0.3769 -0.2252
   88CHL1    H9 8956   2.313   4.996   7.274 -1.2571 -5.0078 -0.3690
   88CHL1   C10 8957   2.453   4.918   7.124  0.0615 -0.0548 -0.0655
   88CHL1   C19 8958   2.592   4.847   7.125 -0.2757  0.0492 -0.2730
   88CHL1  H19A 8959   2.591   4.772   7.207  1.1226  0.8440  0.5072
   88CHL1  H19B 8960   2.626   4.796   7.032 -1.2261 -1.2616  0.0682
   88CHL1  H19C 8961   2.669   4.916   7.164  0.6605 -2.4128  2.6664
   88CHL1    C1 8962   2.328   4.826   7.090 -0.1613 -0.7508  0.0061
   88CHL1   H1A 8963   2.322   4.740   7.160 -2.6507 -0.1439  0.6158
   88CHL1   H1B 8964   2.232   4.878   7.110  0.8503  0.8300  0.9928
   88CHL1    C2 8965   2.337   4.763   6.950  0.9969  0.3076 -0.5554
   88CHL1   H2A 8966   2.244   4.704   6.939 -0.1866  1.8239  0.7184
   88CHL1   H2B 8967   2.422   4.692   6.944 -0.3197 -1.5471  1.2326
   88CHL1   C20 8968   2.476   5.055   7.813  0.7342 -0.1693 -0.5086
   88CHL1   H20 8969   2.567   4.994   7.832 -1.1908 -2.4498  2.1465
   88CHL1   C21 8970   2.366   4.954   7.850  0.2050 -0.0870 -0.5372
   88CHL1  H21A 8971   2.371   4.916   7.954 -0.2862 -1.5375 -1.0172
   88CHL1  H21B 8972   2.362   4.869   7.779  1.8277  0.9003 -1.8967
   88CHL1  H21C 8973   2.268   5.005   7.836 -0.3866 -1.1364 -0.3188
   88CHL1   C22 8974   2.472   5.161   7.931  0.3134 -0.6893  1.1599
   88CHL1  H22A 8975   2.552   5.233   7.903 -0.5565 -0.3210 -0.4945
   88CHL1  H22B 8976   2.373   5.210   7.942  0.7478 -0.0990  2.7212
   88CHL1   C23 8977   2.515   5.116   8.069 -0.2384 -0.3009 -0.3070
   88CHL1  H23A 8978   2.448   5.036   8.107 -1.3768  1.1853  0.9459
   88CHL1  H23B 8979   2.622   5.088   8.066 -0.2317 -0.5522  1.5774
   88CHL1   C24 8980   2.501   5.239   8.161 -0.7019 -0.4069 -0.6255
   88CHL1  H24A 8981   2.540   5.331   8.113  0.5232  0.1664  1.3489
   88CHL1  H24B 8982   2.391   5.247   8.177 -0.7662 -2.9661  0.7800
   88CHL1   C25 8983   2.554   5.218   8.309  0.7711 -0.4659  0.2701
   88CHL1   H25 8984   2.663   5.201   8.296  0.6035 -0.9548 -0.6013
   88CHL1   C26 8985   2.536   5.349   8.385  0.0535 -0.0140 -0.0201
   88CHL1  H26A 8986   2.576   5.435   8.327 -0.7595 -1.0820 -2.2889
   88CHL1  H26B 8987   2.431   5.369   8.414  0.0020  2.0879 -1.4844
   88CHL1  H26C 8988   2.580   5.338   8.486 -2.7484 -0.4460  1.2239
   88CHL1   C27 8989   2.483   5.110   8.390 -1.0085  0.1621  0.1372
   88CHL1  H27A 8990   2.535   5.072   8.481 -1.1659 -1.7391 -0.5126
   88CHL1  H27B 8991   2.375   5.128   8.409 -0.9424 -0.6983  1.4415
   88CHL1  H27C 8992   2.476   5.018   8.327 -0.0784 -1.7603  2.6585
   89CHL1    C3 8993   6.101   1.646   6.912 -0.4247 -0.5446 -0.1908
   89CHL1    H3 8994   6.212   1.656   6.918 -0.3527 -1.8754  1.7982
   89CHL1    O3 8995   6.058   1.614   6.780  0.4212 -0.1388 -0.2534
   89CHL1   H3' 8996   6.066   1.696   6.732  1.6965 -0.0558  0.0730
   89CHL1    C4 8997   6.060   1.542   7.017 -0.4866 -0.3722 -0.9407
   89CHL1   H4A 8998   5.949   1.543   7.004 -0.3385 -1.6541 -2.5348
   89CHL1   H4B 8999   6.098   1.444   6.983 -0.4702 -0.5758 -0.3455
   89CHL1    C5 9000   6.109   1.578   7.157  0.6787 -0.5748 -0.3807
   89CHL1    C6 9001   6.174   1.497   7.237 -0.1166 -0.5555 -0.3411
   89CHL1    H6 9002   6.191   1.392   7.208  0.7752  0.0156 -2.0789
   89CHL1    C7 9003   6.213   1.529   7.379  0.1547 -0.4891 -0.3651
   89CHL1   H7A 9004   6.174   1.448   7.444  0.2909  1.5722  2.4966
   89CHL1   H7B 9005   6.323   1.539   7.391  0.0642 -0.8209  0.9366
   89CHL1    C8 9006   6.145   1.657   7.444 -0.2784  0.3929  0.3387
   89CHL1    H8 9007   6.039   1.637   7.471 -0.3442 -2.5938 -1.6706
   89CHL1   C14 9008   6.226   1.709   7.567 -0.3445 -1.0255  0.2251
   89CHL1   H14 9009   6.327   1.737   7.531 -0.8424 -0.0972 -0.4877
   89CHL1   C15 9010   6.242   1.606   7.678 -0.0575 -0.6102 -0.5665
   89CHL1  H15A 9011   6.166   1.529   7.700 -0.3996 -0.5951 -1.6243
   89CHL1  H15B 9012   6.331   1.540   7.668  0.9174  0.5365  0.2708
   89CHL1   C16 9013   6.274   1.703   7.794 -0.1976  0.9268 -0.4033
   89CHL1  H16A 9014   6.207   1.659   7.870 -0.3704  0.3293 -0.8891
   89CHL1  H16B 9015   6.376   1.676   7.829 -0.3493 -0.7702 -1.1160
   89CHL1   C17 9016   6.251   1.851   7.751 -0.9222  0.4105 -0.1515
   89CHL1   H17 9017   6.349   1.884   7.711 -0.9684 -1.1048 -1.6361
   89CHL1   C13 9018   6.165   1.837   7.626  0.3937  0.0871  0.3560
   89CHL1   C18 9019   6.014   1.810   7.677  0.2143 -0.4503 -0.4000
   89CHL1  H18A 9020   5.969   1.909   7.701  0.3647  0.1397 -2.3763
   89CHL1  H18B 9021   5.951   1.772   7.593  0.0515  0.5036 -0.7236
   89CHL1  H18C 9022   6.015   1.728   7.753  4.2593 -0.9443 -0.7880
   89CHL1   C12 9023   6.173   1.950   7.521 -0.4172 -0.1522 -0.6929
   89CHL1  H12A 9024   6.122   2.042   7.555  1.1013  0.2641  0.6243
   89CHL1  H12B 9025   6.278   1.986   7.510 -0.0158 -0.7733  0.8019
   89CHL1   C11 9026   6.096   1.907   7.395  0.9222 -0.4692  0.8414
   89CHL1  H11A 9027   5.989   1.891   7.420  0.2437  2.7816  0.4777
   89CHL1  H11B 9028   6.093   1.988   7.318  1.8740 -0.5947  0.6561
   89CHL1    C9 9029   6.143   1.770   7.338  0.1527  0.4174  0.7011
   89CHL1    H9 9030   6.246   1.792   7.306 -0.4721  2.2584 -0.1402
   89CHL1   C10 9031   6.071   1.724   7.207 -0.2435  0.0563  0.7315
   89CHL1   C19 9032   5.917   1.731   7.241  0.0875 -0.8273  0.6131
   89CHL1  H19A 9033   5.853   1.682   7.165 -0.9331  1.6448 -0.2092
   89CHL1  H19B 9034   5.907   1.673   7.335  0.6612  0.5793  1.5771
   89CHL1  H19C 9035   5.883   1.836   7.246  4.0926  0.6831 -0.0864
   89CHL1    C1 9036   6.103   1.827   7.095 -0.3851 -0.4404  0.5628
   89CHL1   H1A 9037   6.054   1.926   7.110 -2.1555 -0.6956 -2.5741
   89CHL1   H1B 9038   6.213   1.839   7.103 -0.3296 -1.1823  1.0135
   89CHL1    C2 9039   6.056   1.782   6.947  0.2527  0.4145 -0.5216
   89CHL1   H2A 9040   6.111   1.848   6.876 -0.1024  2.7844  1.2458
   89CHL1   H2B 9041   5.948   1.783   6.923 -0.0955 -2.8735  0.4905
   89CHL1   C20 9042   6.201   1.933   7.865  0.3701 -0.5053 -0.2636
   89CHL1   H20 9043   6.098   1.898   7.888  0.4253 -0.0155  0.7588
   89CHL1   C21 9044   6.192   2.087   7.835 -0.4164 -0.2582 -0.1716
   89CHL1  H21A 9045   6.143   2.130   7.925  0.6642  1.9266 -0.5365
   89CHL1  H21B 9046   6.141   2.123   7.743 -0.7483  1.8624  0.7760
   89CHL1  H21C 9047   6.296   2.127   7.837 -0.5689  0.2068 -0.8837
   89CHL1   C22 9048   6.274   1.914   7.996 -0.2761 -0.3046 -0.1556
   89CHL1  H22A 9049   6.237   1.992   8.067  0.1942  0.8640 -1.1568
   89CHL1  H22B 9050   6.257   1.812   8.036  0.2437  0.3662  1.9008
   89CHL1   C23 9051   6.433   1.929   7.991  0.2398 -0.1661 -0.5799
   89CHL1  H23A 9052   6.478   1.851   7.925  0.7053  0.8950 -1.5475
   89CHL1  H23B 9053   6.444   2.034   7.957 -1.7068  0.2781  0.0594
   89CHL1   C24 9054   6.504   1.923   8.124 -0.3021 -0.1464  0.2543
   89CHL1  H24A 9055   6.613   1.932   8.102 -0.2562  0.5958  0.7717
   89CHL1  H24B 9056   6.471   2.005   8.191 -0.0666 -0.0828  0.2938
   89CHL1   C25 9057   6.489   1.785   8.196  0.2013 -0.1538  0.5856
   89CHL1   H25 9058   6.382   1.755   8.194  1.1237 -3.8702  0.0686
   89CHL1   C26 9059   6.560   1.674   8.126  0.1242  0.5126 -0.0085
   89CHL1  H26A 9060   6.524   1.575   8.160  1.7436 -0.6963 -1.6292
   89CHL1  H26B 9061   6.545   1.678   8.016 -0.0895 -0.7194 -0.0421
   89CHL1  H26C 9062   6.669   1.680   8.147  0.2257 -0.2881 -0.2706
   89CHL1   C27 9063   6.544   1.787   8.341  0.3119  0.2991 -0.1279
   89CHL1  H27A 9064   6.506   1.711   8.412 -1.6361  0.5900 -0.7796
   89CHL1  H27B 9065   6.655   1.796   8.341  0.3455 -0.1020  0.2954
   89CHL1  H27C 9066   6.507   1.884   8.382 -0.0912 -0.4834  1.4409
   90CHL1    C3 9067   6.416   3.231   6.810 -1.0539 -0.6692  1.4336
   90CHL1    H3 9068   6.322   3.290   6.819 -1.4502 -1.0767  0.1973
   90CHL1    O3 9069   6.418   3.190   6.674 -0.1750 -0.1986  0.1704
   90CHL1   H3' 9070   6.443   3.099   6.685 -0.6374 -0.1208  2.1195
   90CHL1    C4 9071   6.530   3.327   6.851 -0.1454  0.2659 -0.3075
   90CHL1   H4A 9072   6.623   3.272   6.826 -1.2398 -1.1260 -1.5133
   90CHL1   H4B 9073   6.526   3.420   6.790  0.8388  0.6676  0.2255
   90CHL1    C5 9074   6.541   3.374   6.993  0.3978  0.3413  0.0244
   90CHL1    C6 9075   6.555   3.504   7.031 -0.7238  1.0832  1.5139
   90CHL1    H6 9076   6.557   3.581   6.952 -1.0896 -0.1650  0.2519
   90CHL1    C7 9077   6.562   3.550   7.168  0.2625 -0.4193  0.1536
   90CHL1   H7A 9078   6.648   3.619   7.182 -1.5080  2.3642 -1.7282
   90CHL1   H7B 9079   6.466   3.600   7.191 -1.1109 -1.3562 -3.0473
   90CHL1    C8 9080   6.581   3.436   7.264  0.3224  0.3049  0.0049
   90CHL1    H8 9081   6.686   3.401   7.264  0.6168  1.1640 -0.8587
   90CHL1   C14 9082   6.545   3.477   7.401 -0.3934  0.8938  0.1704
   90CHL1   H14 9083   6.436   3.495   7.400 -0.3405  1.2896  0.6673
   90CHL1   C15 9084   6.611   3.615   7.449  0.6622 -0.0912  0.5192
   90CHL1  H15A 9085   6.718   3.627   7.422  0.1704  0.6227 -1.2332
   90CHL1  H15B 9086   6.555   3.701   7.407  1.3704 -0.2020 -0.6974
   90CHL1   C16 9087   6.612   3.606   7.603  0.6862  0.1620  1.1281
   90CHL1  H16A 9088   6.720   3.602   7.629  1.1303 -1.5580 -0.7335
   90CHL1  H16B 9089   6.552   3.690   7.644 -0.9788  0.0298 -0.8865
   90CHL1   C17 9090   6.542   3.472   7.636 -0.4380  0.1222 -0.7357
   90CHL1   H17 9091   6.432   3.488   7.629 -0.7336 -1.6253 -0.4580
   90CHL1   C13 9092   6.568   3.381   7.510 -0.0990  0.4367 -0.7439
   90CHL1   C18 9093   6.711   3.333   7.514  0.9677  0.0994 -0.5809
   90CHL1  H18A 9094   6.786   3.414   7.523  1.0297 -0.0499  0.3066
   90CHL1  H18B 9095   6.719   3.266   7.602 -0.8872 -0.0402 -0.4762
   90CHL1  H18C 9096   6.744   3.273   7.426  2.9274 -0.1419  0.2587
   90CHL1   C12 9097   6.467   3.267   7.487  0.8784  0.3380  0.6259
   90CHL1  H12A 9098   6.488   3.191   7.566  1.0574  1.0883  1.3106
   90CHL1  H12B 9099   6.359   3.290   7.494  0.4675 -0.4003 -2.2176
   90CHL1   C11 9100   6.496   3.209   7.347  0.7701  0.0664  0.2817
   90CHL1  H11A 9101   6.592   3.153   7.345  0.4534 -0.4849 -1.5170
   90CHL1  H11B 9102   6.420   3.131   7.325 -0.8113  1.8194 -0.7443
   90CHL1    C9 9103   6.492   3.314   7.235  0.1471 -0.3185  0.0252
   90CHL1    H9 9104   6.388   3.352   7.237  0.0351 -0.6377  0.5568
   90CHL1   C10 9105   6.524   3.262   7.092  0.3119  0.0121 -0.2782
   90CHL1   C19 9106   6.655   3.175   7.095  0.4108 -0.2645  0.4606
   90CHL1  H19A 9107   6.634   3.076   7.141  1.2700  0.7980  3.4024
   90CHL1  H19B 9108   6.702   3.143   7.000 -1.0299  0.1400 -0.4097
   90CHL1  H19C 9109   6.739   3.217   7.154  0.0790 -1.7915  2.1129
   90CHL1    C1 9110   6.407   3.157   7.047 -0.0117  0.2167 -0.1583
   90CHL1   H1A 9111   6.416   3.074   7.120 -0.1815 -0.6903 -1.1440
   90CHL1   H1B 9112   6.312   3.211   7.068 -1.1301 -1.6086 -0.2803
   90CHL1    C2 9113   6.410   3.111   6.902  0.1163 -0.2089  0.2545
   90CHL1   H2A 9114   6.321   3.052   6.872 -0.3012  0.7624 -0.4852
   90CHL1   H2B 9115   6.499   3.047   6.885  0.2114  0.1469 -0.6750
   90CHL1   C20 9116   6.558   3.424   7.778 -0.3642 -0.0677 -0.1331
   90CHL1   H20 9117   6.654   3.368   7.775  1.2771  2.5631 -0.0852
   90CHL1   C21 9118   6.438   3.335   7.818 -1.2823 -0.1536  0.2593
   90CHL1  H21A 9119   6.445   3.308   7.925  3.7107 -1.3496 -0.1262
   90CHL1  H21B 9120   6.442   3.250   7.747  2.0238  2.1565 -2.7222
   90CHL1  H21C 9121   6.345   3.392   7.798  0.0283  1.5798 -1.2605
   90CHL1   C22 9122   6.582   3.534   7.886 -0.1355  0.9076  0.1440
   90CHL1  H22A 9123   6.653   3.608   7.842 -2.0120  1.9347 -1.3312
   90CHL1  H22B 9124   6.489   3.585   7.920  0.6596  1.0983  2.1428
   90CHL1   C23 9125   6.642   3.474   8.015  0.1838  0.2307  0.8182
   90CHL1  H23A 9126   6.575   3.394   8.052  1.1797 -1.3710 -0.6661
   90CHL1  H23B 9127   6.737   3.421   7.990 -0.4660 -0.4225 -0.3589
   90CHL1   C24 9128   6.679   3.575   8.130  0.6644 -0.7079 -0.0809
   90CHL1  H24A 9129   6.763   3.644   8.107  0.7165 -0.3788  1.0597
   90CHL1  H24B 9130   6.593   3.645   8.141 -0.1876 -1.4886 -1.4075
   90CHL1   C25 9131   6.696   3.499   8.263  0.1750 -0.9905 -0.1239
   90CHL1   H25 9132   6.631   3.410   8.269  0.3685 -1.0919  0.6462
   90CHL1   C26 9133   6.841   3.456   8.290 -0.5932  0.0657 -0.4744
   90CHL1  H26A 9134   6.891   3.416   8.199 -1.1371  0.4022 -0.9269
   90CHL1  H26B 9135   6.897   3.539   8.338 -0.5418 -0.3637  0.2102
   90CHL1  H26C 9136   6.846   3.382   8.373  1.5499  2.3635  1.6217
   90CHL1   C27 9137   6.658   3.603   8.367 -0.6971 -0.2793  0.5582
   90CHL1  H27A 9138   6.551   3.630   8.353 -1.0508 -0.0062  3.2339
   90CHL1  H27B 9139   6.677   3.562   8.469  0.8738 -1.7080 -0.2596
   90CHL1  H27C 9140   6.713   3.697   8.347  0.6012 -1.0205  0.5245
   91CHL1    C3 9141   0.560   4.056   7.427 -0.7091  0.5267  0.0028
   91CHL1    H3 9142   0.548   4.151   7.483  2.6471  0.4073  1.1893
   91CHL1    O3 9143   0.558   4.074   7.287 -0.0188 -0.1569 -0.0132
   91CHL1   H3' 9144   0.532   3.991   7.247 -0.0495  0.5484 -1.5262
   91CHL1    C4 9145   0.703   4.010   7.456 -0.4321 -0.0888 -0.6275
   91CHL1   H4A 9146   0.723   3.915   7.402 -1.0770 -0.8236  0.3860
   91CHL1   H4B 9147   0.777   4.080   7.413 -1.0190  0.8400 -0.1883
   91CHL1    C5 9148   0.722   3.997   7.611  0.0619  0.4787  0.3601
   91CHL1    C6 9149   0.819   4.062   7.675 -0.5130  0.3765  0.1826
   91CHL1    H6 9150   0.890   4.129   7.624  1.6434 -1.6124  0.4038
   91CHL1    C7 9151   0.843   4.071   7.827  0.0830  0.7879  0.4582
   91CHL1   H7A 9152   0.945   4.045   7.860 -0.2470  2.0429  2.6036
   91CHL1   H7B 9153   0.820   4.172   7.866  2.5519  1.2990  0.7022
   91CHL1    C8 9154   0.748   3.958   7.888 -0.1932  0.2667 -0.9182
   91CHL1    H8 9155   0.803   3.862   7.880 -0.8367 -0.0854 -1.1585
   91CHL1   C14 9156   0.731   3.994   8.035  0.2060 -0.0877 -0.5756
   91CHL1   H14 9157   0.678   4.092   8.048 -3.0194 -1.8911  1.4159
   91CHL1   C15 9158   0.858   4.027   8.109  0.5412 -0.7846 -0.8630
   91CHL1  H15A 9159   0.919   3.934   8.098  0.0562 -2.0593  4.5217
   91CHL1  H15B 9160   0.904   4.125   8.087 -0.9282 -0.0069 -0.5414
   91CHL1   C16 9161   0.817   4.018   8.260 -0.3107  0.6701 -0.2401
   91CHL1  H16A 9162   0.885   3.947   8.313  0.0201 -0.7462 -2.4573
   91CHL1  H16B 9163   0.801   4.113   8.316 -0.2162  0.9205 -0.6286
   91CHL1   C17 9164   0.669   3.956   8.258 -0.4859 -0.0010  0.6899
   91CHL1   H17 9165   0.599   4.042   8.267  2.8263  2.8608  1.7481
   91CHL1   C13 9166   0.651   3.896   8.116  0.4338 -0.1758 -0.3550
   91CHL1   C18 9167   0.725   3.757   8.121 -0.2708 -0.1417 -0.0625
   91CHL1  H18A 9168   0.667   3.688   8.186  0.4212 -0.1823  0.5268
   91CHL1  H18B 9169   0.720   3.704   8.024 -0.6060 -0.1523 -0.0435
   91CHL1  H18C 9170   0.828   3.769   8.160  0.5534  0.5350 -2.2680
   91CHL1   C12 9171   0.510   3.897   8.055  0.3999  0.3301  0.4156
   91CHL1  H12A 9172   0.447   3.828   8.115  1.4226 -2.0049 -1.0889
   91CHL1  H12B 9173   0.462   3.996   8.067  1.5021  1.0612 -0.8471
   91CHL1   C11 9174   0.520   3.863   7.912  0.3794  0.3086 -0.3595
   91CHL1  H11A 9175   0.561   3.760   7.910  1.3346  0.6672 -2.8878
   91CHL1  H11B 9176   0.416   3.844   7.877  0.9969 -1.1642 -1.5032
   91CHL1    C9 9177   0.608   3.947   7.823 -0.2126 -0.4944 -0.6667
   91CHL1    H9 9178   0.563   4.049   7.821  0.1284 -0.3374 -0.4556
   91CHL1   C10 9179   0.616   3.916   7.678  0.5036 -0.2546 -0.1352
   91CHL1   C19 9180   0.635   3.764   7.663 -0.0932  0.4891 -0.1331
   91CHL1  H19A 9181   0.552   3.706   7.708  0.7962 -1.0685 -0.4273
   91CHL1  H19B 9182   0.634   3.731   7.556 -0.4795 -0.9586  0.2937
   91CHL1  H19C 9183   0.723   3.724   7.718 -1.3250 -0.5601  1.1243
   91CHL1    C1 9184   0.467   3.941   7.624 -0.5799  0.1344  0.4679
   91CHL1   H1A 9185   0.403   3.854   7.650 -0.7659  0.2043  0.2468
   91CHL1   H1B 9186   0.439   4.041   7.664  1.8129  2.0234 -2.1609
   91CHL1    C2 9187   0.454   3.952   7.469 -0.4036  0.3233 -0.1219
   91CHL1   H2A 9188   0.351   3.984   7.440 -0.2722  0.2543 -0.6728
   91CHL1   H2B 9189   0.465   3.850   7.428  0.9106  0.0036  0.9400
   91CHL1   C20 9190   0.645   3.866   8.382 -0.1975  0.5979 -0.6725
   91CHL1   H20 9191   0.725   3.790   8.392 -3.2417 -2.7987 -0.0536
   91CHL1   C21 9192   0.505   3.797   8.379  0.0819 -0.0989  0.0038
   91CHL1  H21A 9193   0.492   3.728   8.464 -1.8564 -0.1513 -0.2936
   91CHL1  H21B 9194   0.498   3.725   8.294  0.9182  0.1614 -0.2942
   91CHL1  H21C 9195   0.422   3.869   8.364  1.6976  1.7697 -0.2751
   91CHL1   C22 9196   0.656   3.943   8.514  0.3401  0.4892 -0.3980
   91CHL1  H22A 9197   0.681   3.874   8.598  0.6327 -0.8720 -1.5608
   91CHL1  H22B 9198   0.735   4.021   8.517  2.0837 -1.1916 -0.7339
   91CHL1   C23 9199   0.536   4.034   8.561  0.4017  0.3241  0.4140
   91CHL1  H23A 9200   0.495   4.091   8.475  0.6740 -0.8245 -0.4996
   91CHL1  H23B 9201   0.456   3.964   8.592  1.2111 -0.8099 -0.0080
   91CHL1   C24 9202   0.559   4.130   8.681 -0.0322  0.4647  0.1544
   91CHL1  H24A 9203   0.661   4.110   8.720  0.0357 -0.2536 -0.3800
   91CHL1  H24B 9204   0.566   4.235   8.646 -1.4513 -0.0202 -1.7590
   91CHL1   C25 9205   0.449   4.136   8.790  0.1809  0.1872 -0.2295
   91CHL1   H25 9206   0.426   4.039   8.839 -0.8653  0.2153 -0.6536
   91CHL1   C26 9207   0.494   4.222   8.907  0.1580 -0.0747 -0.2422
   91CHL1  H26A 9208   0.403   4.254   8.962  1.1120  1.6514  0.4354
   91CHL1  H26B 9209   0.569   4.185   8.980 -0.2387  0.4058  0.4231
   91CHL1  H26C 9210   0.527   4.317   8.859  0.6205  0.5831  1.2909
   91CHL1   C27 9211   0.319   4.193   8.729  0.6226  0.0261 -0.1099
   91CHL1  H27A 9212   0.234   4.200   8.800  0.1985  2.7847 -0.7803
   91CHL1  H27B 9213   0.327   4.294   8.684  1.1280 -0.3184 -0.8146
   91CHL1  H27C 9214   0.285   4.142   8.636 -0.0666 -1.0746  0.7157
   92CHL1    C3 9215   2.800   5.975   6.936 -0.2729 -0.2387  0.0461
   92CHL1    H3 9216   2.732   5.887   6.944  1.5656 -1.8234 -1.0835
   92CHL1    O3 9217   2.809   5.994   6.797  0.1505 -0.1623 -0.4764
   92CHL1   H3' 9218   2.867   6.071   6.793 -1.1398  0.8486 -0.6120
   92CHL1    C4 9219   2.757   6.107   6.997 -0.5586 -0.0119 -0.3353
   92CHL1   H4A 9220   2.834   6.180   6.963 -1.3196  0.4628 -1.0470
   92CHL1   H4B 9221   2.657   6.125   6.954 -0.5166  1.0265 -0.0182
   92CHL1    C5 9222   2.759   6.096   7.153  0.6476  0.5916 -0.4750
   92CHL1    C6 9223   2.647   6.119   7.225 -0.8135  0.6843  0.1965
   92CHL1    H6 9224   2.557   6.158   7.174  0.1821  1.1050 -1.2854
   92CHL1    C7 9225   2.631   6.120   7.377 -0.6514 -0.0689 -0.1868
   92CHL1   H7A 9226   2.579   6.211   7.413  0.1500  0.2680  0.1424
   92CHL1   H7B 9227   2.587   6.022   7.404 -0.7406 -0.4185 -1.5448
   92CHL1    C8 9228   2.774   6.121   7.442 -0.4184 -0.2348  0.5521
   92CHL1    H8 9229   2.807   6.227   7.437 -2.8133  0.5829  0.9126
   92CHL1   C14 9230   2.757   6.071   7.584  0.4782 -0.1734  0.0002
   92CHL1   H14 9231   2.714   5.968   7.588  0.0473 -0.2017 -2.9134
   92CHL1   C15 9232   2.655   6.144   7.673  0.2231  0.3908  0.6616
   92CHL1  H15A 9233   2.668   6.254   7.662 -4.2830  1.0424 -0.2729
   92CHL1  H15B 9234   2.551   6.117   7.645  1.3216 -2.3145 -1.2156
   92CHL1   C16 9235   2.697   6.098   7.816  0.3227 -0.7379 -0.1813
   92CHL1  H16A 9236   2.722   6.193   7.866  1.3669 -1.5540  0.8949
   92CHL1  H16B 9237   2.622   6.034   7.868  0.5795  0.7202  2.1452
   92CHL1   C17 9238   2.840   6.036   7.798  0.2661  0.4680 -0.0949
   92CHL1   H17 9239   2.821   5.927   7.786  1.5101  0.4455 -2.3750
   92CHL1   C13 9240   2.888   6.070   7.660  0.4595 -0.8200  0.1144
   92CHL1   C18 9241   2.959   6.212   7.670  0.2352 -0.0208  0.1726
   92CHL1  H18A 9242   3.048   6.201   7.735 -1.6615 -0.1426  2.9214
   92CHL1  H18B 9243   2.996   6.238   7.568  0.8376 -1.2042  0.0733
   92CHL1  H18C 9244   2.890   6.289   7.712  1.0771  0.9546 -0.1739
   92CHL1   C12 9245   2.980   5.969   7.593 -0.0768 -0.0384  0.3731
   92CHL1  H12A 9246   3.073   5.982   7.653 -0.2637  2.1796  0.2396
   92CHL1  H12B 9247   2.940   5.866   7.609  0.8951 -0.3134  1.1529
   92CHL1   C11 9248   2.996   6.003   7.444 -0.3241 -0.0922 -0.7710
   92CHL1  H11A 9249   3.060   6.093   7.433 -2.4756  1.7157  0.7830
   92CHL1  H11B 9250   3.047   5.917   7.395 -0.1731 -0.7210  0.4562
   92CHL1    C9 9251   2.863   6.024   7.369  0.6012 -0.3645  0.1546
   92CHL1    H9 9252   2.807   5.927   7.370  0.8893 -0.5588 -1.2596
   92CHL1   C10 9253   2.891   6.052   7.215  0.9391 -0.4093 -0.7309
   92CHL1   C19 9254   2.990   6.166   7.198 -0.1844 -0.0536 -0.0958
   92CHL1  H19A 9255   3.097   6.139   7.212 -0.3019  0.1298  1.2592
   92CHL1  H19B 9256   2.985   6.226   7.105  2.8331  2.0686  0.9394
   92CHL1  H19C 9257   2.967   6.243   7.274  2.4118  1.9811 -1.2259
   92CHL1    C1 9258   2.932   5.913   7.148 -0.1099 -0.0463  0.1008
   92CHL1   H1A 9259   3.032   5.880   7.181 -1.4232 -1.8084  2.6371
   92CHL1   H1B 9260   2.863   5.830   7.174 -1.1185  0.0026 -2.0926
   92CHL1    C2 9261   2.938   5.923   6.997 -0.2287 -0.4019  0.2443
   92CHL1   H2A 9262   2.959   5.824   6.952  0.5532  0.8025 -2.2737
   92CHL1   H2B 9263   3.008   6.005   6.969 -0.8242  0.8953  2.2873
   92CHL1   C20 9264   2.935   6.043   7.925 -0.2331  0.9210  0.8555
   92CHL1   H20 9265   2.996   6.135   7.930  1.7822 -0.3901  1.5123
   92CHL1   C21 9266   3.037   5.928   7.923 -0.6100  0.2686 -0.9002
   92CHL1  H21A 9267   3.108   5.936   8.008 -0.7061 -0.0598 -0.7865
   92CHL1  H21B 9268   3.110   5.940   7.839 -0.1882 -1.3331 -0.7950
   92CHL1  H21C 9269   2.990   5.829   7.908  1.1937 -0.5127 -1.7456
   92CHL1   C22 9270   2.848   6.026   8.051 -0.1196  0.5604  0.3655
   92CHL1  H22A 9271   2.774   6.108   8.066 -1.2272 -0.6237  1.6987
   92CHL1  H22B 9272   2.794   5.928   8.058 -0.7087  0.8792  0.3475
   92CHL1   C23 9273   2.931   6.040   8.180 -0.8203  0.2686 -0.8460
   92CHL1  H23A 9274   2.997   5.952   8.193 -2.2868 -0.6484  0.7907
   92CHL1  H23B 9275   2.993   6.133   8.178 -1.4610  0.6969 -1.2043
   92CHL1   C24 9276   2.844   6.061   8.311  0.3474 -0.9808 -0.1153
   92CHL1  H24A 9277   2.795   6.161   8.312  1.2902 -0.4875 -0.9453
   92CHL1  H24B 9278   2.761   5.987   8.305 -1.2001  0.7475 -1.5289
   92CHL1   C25 9279   2.922   6.057   8.443 -0.4231  0.5240 -0.7279
   92CHL1   H25 9280   2.993   6.142   8.434 -2.0417  1.8471 -1.7030
   92CHL1   C26 9281   2.825   6.100   8.564 -0.1136 -0.5403  0.2163
   92CHL1  H26A 9282   2.872   6.109   8.664  1.7345  1.9270 -0.7532
   92CHL1  H26B 9283   2.790   6.204   8.544  1.6442  0.1305  0.4728
   92CHL1  H26C 9284   2.736   6.034   8.567 -2.4071  2.3663  2.0147
   92CHL1   C27 9285   2.992   5.927   8.478 -0.2351 -0.2204  0.0081
   92CHL1  H27A 9286   2.916   5.846   8.488 -0.3644 -0.0800  0.1577
   92CHL1  H27B 9287   3.069   5.899   8.402 -0.1534  0.8341 -0.3063
   92CHL1  H27C 9288   3.060   5.932   8.566 -1.3795  0.6535  0.8568
   93CHL1    C3 9289   1.097   3.843   7.029 -0.3660 -0.2171 -0.1070
   93CHL1    H3 9290   1.194   3.883   6.994 -0.9105  1.2225 -0.0220
   93CHL1    O3 9291   1.014   3.838   6.915  0.1599  0.6194  0.0046
   93CHL1   H3' 9292   0.926   3.807   6.939 -0.8435  0.5172 -3.2475
   93CHL1    C4 9293   1.120   3.704   7.094 -0.3009  0.5246  0.2701
   93CHL1   H4A 9294   1.027   3.643   7.091  0.6123 -0.8588 -1.5081
   93CHL1   H4B 9295   1.173   3.656   7.010 -1.3373  0.8231 -0.5844
   93CHL1    C5 9296   1.182   3.704   7.228  0.2156 -0.0582  0.6228
   93CHL1    C6 9297   1.283   3.628   7.264  1.0170 -0.1287  0.1054
   93CHL1    H6 9298   1.329   3.567   7.184 -0.0545 -1.1584  0.2463
   93CHL1    C7 9299   1.345   3.616   7.401 -0.2964 -0.0523 -0.1930
   93CHL1   H7A 9300   1.360   3.507   7.415 -0.1696 -0.1009 -0.6708
   93CHL1   H7B 9301   1.448   3.659   7.399  0.8401 -2.5994 -0.0376
   93CHL1    C8 9302   1.258   3.684   7.506  0.6168 -0.2205 -0.1790
   93CHL1    H8 9303   1.169   3.620   7.523  1.8592 -1.6906  1.1176
   93CHL1   C14 9304   1.330   3.713   7.637  0.1117 -0.4958 -0.2738
   93CHL1   H14 9305   1.411   3.785   7.611 -0.9014  0.4799 -0.7967
   93CHL1   C15 9306   1.398   3.589   7.706  0.6853 -0.5297 -0.2210
   93CHL1  H15A 9307   1.331   3.501   7.693  0.7104 -0.4772 -0.7568
   93CHL1  H15B 9308   1.500   3.556   7.674  0.5648 -3.4535  1.9648
   93CHL1   C16 9309   1.415   3.646   7.854 -0.0977 -0.1470 -0.1239
   93CHL1  H16A 9310   1.383   3.572   7.930  1.4805 -1.7375 -0.9258
   93CHL1  H16B 9311   1.522   3.669   7.874 -0.4117  3.4274 -1.6582
   93CHL1   C17 9312   1.341   3.781   7.866  0.1402  0.0408 -0.3433
   93CHL1   H17 9313   1.417   3.858   7.839  1.0272 -0.8364 -0.3950
   93CHL1   C13 9314   1.243   3.784   7.748 -0.3535 -0.7013 -0.7875
   93CHL1   C18 9315   1.117   3.700   7.799  0.5487 -0.0206  0.9195
   93CHL1  H18A 9316   1.150   3.598   7.828 -0.0813  0.0697  2.0161
   93CHL1  H18B 9317   1.075   3.750   7.888 -2.7508  0.6483 -0.8486
   93CHL1  H18C 9318   1.038   3.703   7.721  1.0220  2.3568  0.4323
   93CHL1   C12 9319   1.205   3.923   7.694 -0.5247  0.5090 -0.1389
   93CHL1  H12A 9320   1.132   3.968   7.764 -1.2241  0.3191 -0.7391
   93CHL1  H12B 9321   1.299   3.983   7.694 -0.9238  1.2193  2.4261
   93CHL1   C11 9322   1.130   3.906   7.561  0.0586 -0.1169 -0.2795
   93CHL1  H11A 9323   1.030   3.868   7.592 -0.3887  2.2635  1.5011
   93CHL1  H11B 9324   1.111   4.006   7.517 -0.2585  0.4799  1.1526
   93CHL1    C9 9325   1.204   3.820   7.454  0.1912 -0.2486  0.0586
   93CHL1    H9 9326   1.292   3.884   7.433 -0.8887  1.1574 -0.3718
   93CHL1   C10 9327   1.114   3.809   7.323 -0.6669  0.1997  0.2912
   93CHL1   C19 9328   0.970   3.753   7.356 -0.1467  0.1235 -0.0711
   93CHL1  H19A 9329   0.901   3.726   7.273  0.6730 -1.5584 -0.2498
   93CHL1  H19B 9330   0.974   3.662   7.418 -1.9336 -0.0066 -0.1023
   93CHL1  H19C 9331   0.916   3.827   7.419  2.4355  2.2654 -0.1721
   93CHL1    C1 9332   1.115   3.947   7.254  0.6497 -0.5210 -0.0650
   93CHL1   H1A 9333   1.061   4.014   7.323 -1.6514 -1.8414 -0.4665
   93CHL1   H1B 9334   1.221   3.977   7.238  0.9230 -1.7978 -0.8217
   93CHL1    C2 9335   1.039   3.947   7.128  0.4734  0.1853  0.0564
   93CHL1   H2A 9336   1.032   4.045   7.076 -0.3814  0.4082  0.5721
   93CHL1   H2B 9337   0.934   3.915   7.144  0.6890 -0.9711 -0.7136
   93CHL1   C20 9338   1.306   3.808   8.012 -0.2324 -0.0163 -0.1287
   93CHL1   H20 9339   1.219   3.748   8.046  0.5750 -0.0982  1.9173
   93CHL1   C21 9340   1.265   3.962   8.018  0.8350 -0.4175 -0.8955
   93CHL1  H21A 9341   1.265   3.998   8.124 -1.9396 -0.1879 -0.8868
   93CHL1  H21B 9342   1.161   3.984   7.986  0.4922  0.1999  0.5297
   93CHL1  H21C 9343   1.334   4.027   7.961  0.6544 -0.8303 -1.5909
   93CHL1   C22 9344   1.417   3.779   8.118  0.4607  0.7035 -0.3566
   93CHL1  H22A 9345   1.377   3.828   8.209  1.3797  2.7924 -1.0296
   93CHL1  H22B 9346   1.436   3.674   8.150 -1.1644  0.1388 -1.1406
   93CHL1   C23 9347   1.554   3.850   8.091 -0.1118  0.0474 -0.6957
   93CHL1  H23A 9348   1.610   3.785   8.020 -1.8666 -2.5254  0.1460
   93CHL1  H23B 9349   1.548   3.946   8.034 -2.5811  0.6438  0.4487
   93CHL1   C24 9350   1.634   3.878   8.219  0.4104  0.4844 -0.1356
   93CHL1  H24A 9351   1.573   3.958   8.266 -0.3252  1.1609 -2.0994
   93CHL1  H24B 9352   1.640   3.789   8.285  1.5399  1.4546  1.1145
   93CHL1   C25 9353   1.774   3.923   8.198  0.3895  0.2616  0.4189
   93CHL1   H25 9354   1.820   3.944   8.297  2.0655 -4.4355  0.8549
   93CHL1   C26 9355   1.865   3.809   8.150 -0.7609 -0.0161  0.0788
   93CHL1  H26A 9356   1.968   3.851   8.154  0.4703 -2.8099 -0.1017
   93CHL1  H26B 9357   1.857   3.715   8.210 -0.4751 -0.8134 -1.1014
   93CHL1  H26C 9358   1.853   3.773   8.046  1.8757 -2.5765  0.5341
   93CHL1   C27 9359   1.778   4.048   8.114 -0.7308  1.1646  0.0128
   93CHL1  H27A 9360   1.758   4.021   8.009  1.7926 -0.7118 -0.0810
   93CHL1  H27B 9361   1.705   4.127   8.141 -0.4838  2.3337 -2.5122
   93CHL1  H27C 9362   1.880   4.092   8.120  0.9785 -2.4434 -0.0655
   94CHL1    C3 9363   5.055   5.816   6.895  1.2744 -0.2949  0.1712
   94CHL1    H3 9364   5.081   5.914   6.940 -1.2847  0.2977  0.5250
   94CHL1    O3 9365   5.097   5.821   6.756  0.7867  0.1526  0.1974
   94CHL1   H3' 9366   5.063   5.741   6.716 -1.3639  1.8095 -1.5280
   94CHL1    C4 9367   5.131   5.700   6.968 -0.4883 -1.1546 -0.0033
   94CHL1   H4A 9368   5.116   5.600   6.924 -1.2131 -0.3172 -1.7601
   94CHL1   H4B 9369   5.236   5.731   6.951 -0.8359  0.0660 -0.0623
   94CHL1    C5 9370   5.084   5.693   7.115  0.1139 -0.2010  0.0957
   94CHL1    C6 9371   5.168   5.705   7.222 -0.2850  0.4017  0.4493
   94CHL1    H6 9372   5.273   5.729   7.200 -0.2050 -1.1000 -0.9979
   94CHL1    C7 9373   5.125   5.684   7.366 -0.1948  0.0365  0.2673
   94CHL1   H7A 9374   5.203   5.644   7.434 -0.7371 -0.3874  0.6541
   94CHL1   H7B 9375   5.113   5.785   7.412  0.3740  0.7739 -1.1278
   94CHL1    C8 9376   4.991   5.615   7.373 -0.0579 -0.0273  0.5797
   94CHL1    H8 9377   5.002   5.507   7.350 -0.8764  0.3508 -1.8093
   94CHL1   C14 9378   4.941   5.625   7.522 -0.2215  1.1923 -0.3707
   94CHL1   H14 9379   4.925   5.732   7.547 -1.9074  1.1455 -1.1123
   94CHL1   C15 9380   5.039   5.570   7.629  1.5980 -0.7861  0.4097
   94CHL1  H15A 9381   5.082   5.476   7.590 -0.7881 -1.1606 -1.5720
   94CHL1  H15B 9382   5.116   5.648   7.648 -1.9456  2.6676  2.1878
   94CHL1   C16 9383   4.944   5.526   7.743 -0.4304 -0.2634 -0.0089
   94CHL1  H16A 9384   4.952   5.415   7.742  0.6691 -0.2228  1.2592
   94CHL1  H16B 9385   4.977   5.566   7.841 -0.4965  1.0957 -0.5196
   94CHL1   C17 9386   4.799   5.565   7.698 -0.0120  0.4995  0.3269
   94CHL1   H17 9387   4.790   5.675   7.712 -1.1140  0.4658  0.0186
   94CHL1   C13 9388   4.804   5.555   7.542  0.0094  0.1375 -0.0573
   94CHL1   C18 9389   4.807   5.401   7.502  0.5073 -0.5583  0.7639
   94CHL1  H18A 9390   4.844   5.385   7.398 -3.0258 -0.1976 -0.6823
   94CHL1  H18B 9391   4.883   5.341   7.557  1.0669  0.2207  0.8472
   94CHL1  H18C 9392   4.703   5.362   7.514 -0.4081  1.9875  1.6546
   94CHL1   C12 9393   4.702   5.629   7.464  0.5103 -0.6577 -0.2497
   94CHL1  H12A 9394   4.606   5.575   7.478  1.1251 -2.0013 -1.0416
   94CHL1  H12B 9395   4.701   5.734   7.501  0.2920 -1.1490  1.2267
   94CHL1   C11 9396   4.742   5.631   7.315  0.0025  1.2026  0.1615
   94CHL1  H11A 9397   4.739   5.526   7.277  2.7969  1.5723 -1.2974
   94CHL1  H11B 9398   4.671   5.690   7.253 -1.6298 -0.3416  0.4495
   94CHL1    C9 9399   4.888   5.676   7.277 -0.0292 -0.1331 -0.7162
   94CHL1    H9 9400   4.875   5.782   7.308 -1.7173 -0.1854 -1.1283
   94CHL1   C10 9401   4.935   5.668   7.127  0.2659 -0.5601  0.8614
   94CHL1   C19 9402   4.895   5.526   7.078  0.2424  0.2017 -0.8331
   94CHL1  H19A 9403   4.926   5.445   7.148  0.3794 -0.0146 -1.1429
   94CHL1  H19B 9404   4.784   5.531   7.076  0.2456 -0.0084 -1.8355
   94CHL1  H19C 9405   4.917   5.506   6.971  0.2950  1.1370 -1.0018
   94CHL1    C1 9406   4.856   5.777   7.043 -0.1271  0.0419  0.1736
   94CHL1   H1A 9407   4.749   5.747   7.039  0.2493 -1.2777 -1.9782
   94CHL1   H1B 9408   4.868   5.875   7.094  0.1029  1.3278 -2.1975
   94CHL1    C2 9409   4.905   5.791   6.899  0.3664 -0.4997  1.4774
   94CHL1   H2A 9410   4.845   5.863   6.839  3.4141  0.3838 -0.7660
   94CHL1   H2B 9411   4.907   5.693   6.847  2.3237  0.1673  0.1957
   94CHL1   C20 9412   4.686   5.498   7.776 -0.3364  0.4316  0.0949
   94CHL1   H20 9413   4.643   5.420   7.710 -2.7340  1.3534  0.4585
   94CHL1   C21 9414   4.570   5.596   7.802  0.3421 -0.3794  0.2985
   94CHL1  H21A 9415   4.539   5.641   7.705  2.5539  2.0305  0.6085
   94CHL1  H21B 9416   4.604   5.674   7.873 -1.7786  2.1026 -1.1913
   94CHL1  H21C 9417   4.483   5.543   7.847  0.2551 -2.3908 -1.9985
   94CHL1   C22 9418   4.722   5.421   7.903 -0.8661 -0.4473  0.7504
   94CHL1  H22A 9419   4.794   5.347   7.860 -2.3327 -1.6820  0.3175
   94CHL1  H22B 9420   4.776   5.478   7.981 -1.6958  1.5850 -0.1043
   94CHL1   C23 9421   4.606   5.347   7.972 -0.5264 -0.2785 -0.2447
   94CHL1  H23A 9422   4.531   5.412   8.023  1.0915  0.4492  1.3373
   94CHL1  H23B 9423   4.556   5.284   7.896  2.8746 -1.7327 -1.4656
   94CHL1   C24 9424   4.666   5.244   8.073 -0.0268  0.3387 -0.0672
   94CHL1  H24A 9425   4.596   5.160   8.088  1.0644 -1.3180 -3.3340
   94CHL1  H24B 9426   4.761   5.198   8.040 -0.9372 -2.8640  1.4269
   94CHL1   C25 9427   4.698   5.309   8.209 -0.0297  0.4492 -0.2857
   94CHL1   H25 9428   4.730   5.415   8.201  0.0529  0.3348 -1.6406
   94CHL1   C26 9429   4.571   5.325   8.292  0.0156  0.1287 -0.2026
   94CHL1  H26A 9430   4.520   5.417   8.257  0.2558 -0.2029 -1.4673
   94CHL1  H26B 9431   4.503   5.240   8.272 -0.6941  0.7919 -0.6607
   94CHL1  H26C 9432   4.590   5.329   8.402 -2.7574  1.0485  0.3090
   94CHL1   C27 9433   4.805   5.236   8.290 -0.2110 -0.1139  0.5601
   94CHL1  H27A 9434   4.825   5.307   8.374 -3.1877  3.0680 -1.1691
   94CHL1  H27B 9435   4.780   5.134   8.324  2.1987 -1.1535 -0.5807
   94CHL1  H27C 9436   4.893   5.227   8.224  0.3303  0.3647  1.1988
   95CHL1    C3 9437   3.333   6.187   6.676  0.0930  0.1468  0.4089
   95CHL1    H3 9438   3.232   6.156   6.712 -0.2669  0.4831 -0.2868
   95CHL1    O3 9439   3.330   6.204   6.537  0.1462  0.4087  0.6159
   95CHL1   H3' 9440   3.425   6.202   6.524  0.1828 -2.5710  0.6225
   95CHL1    C4 9441   3.387   6.317   6.743 -0.1626  0.1747 -0.5394
   95CHL1   H4A 9442   3.492   6.339   6.711  0.3494 -2.3443 -0.8280
   95CHL1   H4B 9443   3.315   6.395   6.710  0.2541  1.1720  0.7925
   95CHL1    C5 9444   3.381   6.282   6.892  0.6975 -0.1373 -0.0164
   95CHL1    C6 9445   3.309   6.365   6.977  0.2922 -0.0790 -0.0131
   95CHL1    H6 9446   3.251   6.448   6.935 -0.9747 -0.7388  0.3972
   95CHL1    C7 9447   3.317   6.358   7.128 -0.2803 -0.1929  0.7738
   95CHL1   H7A 9448   3.346   6.458   7.167 -0.6668  0.4931 -0.6480
   95CHL1   H7B 9449   3.221   6.324   7.171  0.4625  0.0397  2.7160
   95CHL1    C8 9450   3.425   6.260   7.175 -0.1282  0.7006 -0.3039
   95CHL1    H8 9451   3.524   6.309   7.163  1.2562 -1.4810  1.4584
   95CHL1   C14 9452   3.390   6.236   7.324  0.3770  0.0465 -0.5755
   95CHL1   H14 9453   3.297   6.176   7.307  1.3987 -1.2128 -2.0341
   95CHL1   C15 9454   3.354   6.348   7.413  0.5897  0.2599 -1.2913
   95CHL1  H15A 9455   3.414   6.441   7.409 -3.1626  3.1918  2.1100
   95CHL1  H15B 9456   3.251   6.388   7.397  1.6096  3.6323 -0.1852
   95CHL1   C16 9457   3.367   6.280   7.552 -0.0265  0.1463  0.1830
   95CHL1  H16A 9458   3.450   6.330   7.605  3.3735 -2.3070 -2.4065
   95CHL1  H16B 9459   3.275   6.284   7.615  0.3251  0.8394  0.6700
   95CHL1   C17 9460   3.411   6.137   7.530  0.5611  0.1092  0.2758
   95CHL1   H17 9461   3.317   6.080   7.510  1.2412 -1.1043  0.4565
   95CHL1   C13 9462   3.485   6.138   7.394 -0.9136  0.4106  0.1810
   95CHL1   C18 9463   3.631   6.194   7.413  0.2407  0.8842 -0.3534
   95CHL1  H18A 9464   3.637   6.290   7.468  3.1854  0.5852  0.0238
   95CHL1  H18B 9465   3.697   6.120   7.463  0.2912  1.8731  1.1106
   95CHL1  H18C 9466   3.672   6.204   7.310  0.5169  1.0975 -0.2249
   95CHL1   C12 9467   3.488   6.006   7.309 -0.3520  0.4296  0.4861
   95CHL1  H12A 9468   3.556   5.929   7.350 -2.0055 -1.7100 -0.6265
   95CHL1  H12B 9469   3.386   5.965   7.324 -0.6622  1.2171  0.5741
   95CHL1   C11 9470   3.520   6.026   7.161 -0.0096  0.3791 -0.4625
   95CHL1  H11A 9471   3.624   6.064   7.156 -0.4820  2.1743  1.6146
   95CHL1  H11B 9472   3.510   5.928   7.110  0.0372 -1.3729  2.6778
   95CHL1    C9 9473   3.439   6.137   7.088 -0.4301 -0.3689 -0.3263
   95CHL1    H9 9474   3.338   6.091   7.091 -0.6408  0.1738  1.8553
   95CHL1   C10 9475   3.467   6.158   6.936  0.1273 -0.1517 -0.5100
   95CHL1   C19 9476   3.623   6.176   6.913  0.3584 -0.0301  0.4115
   95CHL1  H19A 9477   3.655   6.281   6.929 -0.1217 -0.0011  1.2406
   95CHL1  H19B 9478   3.687   6.112   6.976  0.2150  0.3704  0.9710
   95CHL1  H19C 9479   3.635   6.138   6.809  1.1816 -1.1488  0.9064
   95CHL1    C1 9480   3.412   6.037   6.853 -0.6103 -0.2099 -0.4630
   95CHL1   H1A 9481   3.478   5.954   6.886 -0.8152 -0.3924 -0.5088
   95CHL1   H1B 9482   3.311   6.008   6.890 -0.5655 -1.0041 -0.9433
   95CHL1    C2 9483   3.415   6.059   6.703  0.1381 -0.7599 -0.0829
   95CHL1   H2A 9484   3.361   5.973   6.658  0.0169 -0.1062 -1.2295
   95CHL1   H2B 9485   3.516   6.065   6.658  0.7874  2.2625  1.4704
   95CHL1   C20 9486   3.482   6.052   7.636  0.0685 -0.3686 -0.8078
   95CHL1   H20 9487   3.533   5.968   7.585 -0.9462 -1.0297 -0.7626
   95CHL1   C21 9488   3.383   5.984   7.722  0.4052  0.0610  0.2999
   95CHL1  H21A 9489   3.432   5.911   7.790 -1.6163 -1.6322  0.0382
   95CHL1  H21B 9490   3.310   5.927   7.662 -0.6452  0.0101  1.5765
   95CHL1  H21C 9491   3.311   6.047   7.778 -1.7783 -2.4589  0.5283
   95CHL1   C22 9492   3.576   6.125   7.724 -0.4767  0.4995 -0.6363
   95CHL1  H22A 9493   3.642   6.180   7.653  0.9962 -2.9288 -2.1432
   95CHL1  H22B 9494   3.528   6.200   7.792 -2.4665 -1.4531  0.2386
   95CHL1   C23 9495   3.671   6.032   7.809  0.6479 -0.7403 -0.1804
   95CHL1  H23A 9496   3.606   5.982   7.883 -0.0805 -0.5588 -0.6910
   95CHL1  H23B 9497   3.711   5.955   7.739 -0.3847  0.0603 -1.7243
   95CHL1   C24 9498   3.791   6.104   7.872 -0.0695  0.1553  0.8412
   95CHL1  H24A 9499   3.840   6.165   7.793  3.6776 -1.7985  1.4058
   95CHL1  H24B 9500   3.748   6.172   7.949  1.0792 -0.0137  1.6622
   95CHL1   C25 9501   3.889   6.014   7.947  0.2728 -0.2677 -0.4045
   95CHL1   H25 9502   3.937   5.955   7.866 -2.6085 -1.4637 -1.3969
   95CHL1   C26 9503   3.999   6.110   8.007  0.4657 -0.1894 -0.5751
   95CHL1  H26A 9504   4.033   6.184   7.931 -2.4573  0.1974 -1.6334
   95CHL1  H26B 9505   3.946   6.172   8.082 -0.2165 -0.8306 -0.5079
   95CHL1  H26C 9506   4.079   6.044   8.046  0.3595  0.7962  1.4115
   95CHL1   C27 9507   3.835   5.921   8.055  0.0615  0.2002 -0.2375
   95CHL1  H27A 9508   3.920   5.878   8.111 -0.2232 -0.5709 -0.3912
   95CHL1  H27B 9509   3.772   5.977   8.127 -3.9210  0.3628 -3.4859
   95CHL1  H27C 9510   3.770   5.835   8.030 -0.8610  0.9583 -0.4932
   96CHL1    C3 9511   3.838   6.061   6.531  0.4234  1.0533 -0.5023
   96CHL1    H3 9512   3.758   6.118   6.584 -0.5642 -1.4483  0.9046
   96CHL1    O3 9513   3.872   6.106   6.400  0.0738 -0.6451 -0.1541
   96CHL1   H3' 9514   3.804   6.064   6.348  0.0114 -0.1896 -0.4428
   96CHL1    C4 9515   3.970   6.053   6.612 -0.8213 -0.2574 -0.3243
   96CHL1   H4A 9516   4.042   5.991   6.555 -0.3655  0.3827 -0.4528
   96CHL1   H4B 9517   4.003   6.159   6.611 -0.4743 -0.3458 -2.0297
   96CHL1    C5 9518   3.952   6.005   6.755  0.2504  0.2468  0.4904
   96CHL1    C6 9519   3.988   6.083   6.858  0.3022 -0.3842  0.1558
   96CHL1    H6 9520   4.024   6.184   6.832  1.7493 -0.5119  1.5268
   96CHL1    C7 9521   3.974   6.039   7.004 -0.0839 -0.3933  0.4786
   96CHL1   H7A 9522   4.062   6.053   7.071 -0.9738 -1.1079  1.8643
   96CHL1   H7B 9523   3.886   6.092   7.046 -0.9794 -0.8175 -0.8259
   96CHL1    C8 9524   3.947   5.886   7.011  0.1978  0.0944 -0.0458
   96CHL1    H8 9525   4.050   5.844   7.006  0.7458  1.5180 -2.2903
   96CHL1   C14 9526   3.890   5.858   7.152 -0.0608  0.2195  0.0429
   96CHL1   H14 9527   3.785   5.893   7.158 -0.7217 -1.6948  0.6596
   96CHL1   C15 9528   3.957   5.920   7.272 -0.4482  0.4528  0.2236
   96CHL1  H15A 9529   4.063   5.896   7.249 -1.0032 -0.8637 -1.2250
   96CHL1  H15B 9530   3.934   6.028   7.272  0.6072  0.7228 -1.6712
   96CHL1   C16 9531   3.908   5.842   7.396 -0.0596  0.5072  0.7811
   96CHL1  H16A 9532   3.988   5.807   7.464 -0.7334  1.8897  2.3685
   96CHL1  H16B 9533   3.833   5.909   7.443 -2.8167 -0.3520 -1.9840
   96CHL1   C17 9534   3.813   5.730   7.333 -0.1152 -0.1481 -0.4136
   96CHL1   H17 9535   3.710   5.771   7.329 -0.3169 -0.6813 -0.8620
   96CHL1   C13 9536   3.865   5.716   7.183 -0.0804 -0.6318  0.0071
   96CHL1   C18 9537   3.999   5.633   7.173 -0.4241 -0.3643 -0.0748
   96CHL1  H18A 9538   4.043   5.618   7.072  2.2240 -0.5103  1.0214
   96CHL1  H18B 9539   4.081   5.687   7.224  1.0469  0.0038 -2.6430
   96CHL1  H18C 9540   3.986   5.535   7.224  0.2301 -0.7548 -0.6423
   96CHL1   C12 9541   3.763   5.660   7.088 -0.5924 -0.0301 -0.3335
   96CHL1  H12A 9542   3.739   5.554   7.108 -0.8543 -0.3377 -2.1310
   96CHL1  H12B 9543   3.672   5.724   7.091  1.5272  3.2299 -0.4926
   96CHL1   C11 9544   3.811   5.685   6.943  0.3163  0.4070  0.1967
   96CHL1  H11A 9545   3.901   5.624   6.919  0.0416 -0.7237  1.8807
   96CHL1  H11B 9546   3.731   5.656   6.871 -1.3657 -1.0022  2.4748
   96CHL1    C9 9547   3.850   5.834   6.912  0.2521 -0.1945  0.2300
   96CHL1    H9 9548   3.759   5.895   6.927 -1.1836 -1.6097 -2.1037
   96CHL1   C10 9549   3.890   5.859   6.757  0.5428 -1.5259  0.0729
   96CHL1   C19 9550   3.988   5.750   6.711  1.2074  0.4483 -0.4270
   96CHL1  H19A 9551   4.014   5.749   6.603  0.7233  2.7719 -0.6232
   96CHL1  H19B 9552   4.080   5.744   6.773  0.0789 -0.2886  1.2438
   96CHL1  H19C 9553   3.938   5.652   6.725 -1.1291  1.8760  2.1598
   96CHL1    C1 9554   3.758   5.858   6.671  0.1010 -0.1361  0.6401
   96CHL1   H1A 9555   3.704   5.761   6.663  1.7789 -1.1112  0.5792
   96CHL1   H1B 9556   3.697   5.932   6.728  1.2402 -0.3602  2.1945
   96CHL1    C2 9557   3.774   5.918   6.527 -0.6462  0.8708 -0.1813
   96CHL1   H2A 9558   3.668   5.925   6.493 -1.1569 -0.7255  0.9415
   96CHL1   H2B 9559   3.832   5.846   6.466  1.1755  2.1663 -0.0457
   96CHL1   C20 9560   3.810   5.602   7.425  0.9522 -0.2988  0.8233
   96CHL1   H20 9561   3.911   5.557   7.435  1.6388  0.9741 -0.0428
   96CHL1   C21 9562   3.722   5.492   7.381  0.2724 -0.4481  0.6655
   96CHL1  H21A 9563   3.736   5.457   7.277 -4.0705 -3.2944  0.8070
   96CHL1  H21B 9564   3.618   5.531   7.381  0.8118  1.0967  0.7478
   96CHL1  H21C 9565   3.715   5.398   7.440 -1.5121 -0.0174  1.1981
   96CHL1   C22 9566   3.775   5.645   7.569 -0.0748  1.8812  0.2130
   96CHL1  H22A 9567   3.847   5.720   7.608  2.0807  0.1158 -0.2008
   96CHL1  H22B 9568   3.673   5.688   7.581 -0.7380  0.4319 -0.0403
   96CHL1   C23 9569   3.792   5.522   7.674  0.5456 -0.3116  0.7181
   96CHL1  H23A 9570   3.717   5.445   7.646  1.4410 -1.3193  0.9910
   96CHL1  H23B 9571   3.889   5.468   7.663  0.2652 -1.0311  1.6360
   96CHL1   C24 9572   3.756   5.571   7.817  0.0111  0.3528  0.3371
   96CHL1  H24A 9573   3.797   5.672   7.837 -2.7364  1.4391  0.9441
   96CHL1  H24B 9574   3.646   5.581   7.820 -0.0009  1.7227 -1.9375
   96CHL1   C25 9575   3.805   5.474   7.925  0.1456  0.2400 -0.4887
   96CHL1   H25 9576   3.916   5.468   7.923  0.5146  3.4303  1.6124
   96CHL1   C26 9577   3.779   5.534   8.063 -0.5469 -0.4858  0.2108
   96CHL1  H26A 9578   3.676   5.575   8.070 -0.7128 -1.1346  2.1789
   96CHL1  H26B 9579   3.795   5.450   8.135  0.8380  0.0445  0.5405
   96CHL1  H26C 9580   3.853   5.613   8.087 -4.1563  3.3267 -0.0368
   96CHL1   C27 9581   3.751   5.328   7.907 -0.4375 -0.1666 -0.3424
   96CHL1  H27A 9582   3.645   5.321   7.876 -0.2808 -4.2046 -0.4415
   96CHL1  H27B 9583   3.806   5.271   7.830 -0.7500 -0.9370  0.0001
   96CHL1  H27C 9584   3.768   5.270   8.000  1.1081 -1.1051 -1.1596
   97OSM      N 9585   1.000   6.654  11.588  0.3576 -0.4023 -0.9923
   97OSM    C15 9586   0.916   6.728  11.700 -0.2019  1.1659  0.7561
   97OSM   H15A 9587   0.892   6.828  11.666 -1.7054  0.2942 -0.8639
   97OSM   H15B 9588   0.959   6.718  11.799 -1.4342  0.3966  1.2369
   97OSM   H15C 9589   0.820   6.681  11.704 -0.6540  1.7387 -1.7543
   97OSM    C14 9590   1.109   6.749  11.557 -0.1502  0.1118  0.5290
   97OSM   H14A 9591   1.174   6.745  11.643  0.5019 -0.3992  0.0258
   97OSM   H14B 9592   1.074   6.850  11.542  1.3334  0.6261  0.3544
   97OSM   H14C 9593   1.169   6.711  11.476  1.7113 -0.3985  2.0713
   97OSM    C13 9594   1.052   6.533  11.665 -0.5325  0.1312 -0.2650
   97OSM   H13A 9595   1.071   6.563  11.768  0.8223  0.9642 -0.7368
   97OSM   H13B 9596   1.148   6.500  11.629  0.9928  2.2169  1.6068
   97OSM   H13C 9597   0.987   6.447  11.660  1.3540 -1.4018  0.4372
   97OSM    C12 9598   0.933   6.627  11.459 -0.1062  0.1861  0.0259
   97OSM   H12A 9599   0.916   6.722  11.411  1.3239  0.2845 -0.3573
   97OSM   H12B 9600   0.835   6.588  11.483 -0.0791 -0.3194 -0.6436
   97OSM    C11 9601   0.996   6.523  11.367  0.1616 -0.7765  0.3991
   97OSM   H11A 9602   0.922   6.483  11.294  0.1109  0.0700 -0.0285
   97OSM   H11B 9603   1.022   6.430  11.421 -0.0779 -1.0279  0.0853
   97OSM      P 9604   1.099   6.654  11.173  0.4610  0.0802  0.1857
   97OSM    O13 9605   0.973   6.736  11.177  0.3273  0.0044  0.0810
   97OSM    O14 9606   1.225   6.723  11.143 -0.1251 -0.0760 -0.0285
   97OSM    O11 9607   1.088   6.530  11.069  0.4103 -0.5935  0.4665
   97OSM    O12 9608   1.118   6.577  11.308  0.0141  0.0816  0.3348
   97OSM    C1S 9609   1.024   6.551  10.936  0.3676  0.0263 -0.1477
   97OSM    H1S 9610   1.083   6.625  10.879 -1.8442  2.4393  0.5072
   97OSM    H1T 9611   0.917   6.575  10.956 -0.2164 -3.1990  1.1840
   97OSM     NF 9612   0.981   6.441  10.713  0.8020  0.1413  0.3531
   97OSM    HNF 9613   0.885   6.427  10.691  0.8363  1.3828 -0.7178
   97OSM    C2S 9614   1.018   6.418  10.851  0.3172  1.1846 -0.0034
   97OSM    H2S 9615   1.118   6.370  10.849 -0.5914 -0.9612  1.4691
   97OSM    C3S 9616   0.932   6.304  10.916 -0.6962 -0.8569  0.6935
   97OSM    H3S 9617   0.829   6.345  10.916  0.5341  2.4927  0.9093
   97OSM     O3 9618   0.966   6.280  11.057 -0.6923  0.2733 -0.7254
   97OSM    HO3 9619   1.033   6.346  11.075 -0.2453 -0.7951  2.0024
   97OSM    C4S 9620   0.953   6.173  10.834  0.7323  0.0228  0.6890
   97OSM    H4S 9621   1.049   6.128  10.862  0.8003  1.0092  2.1803
   97OSM    C5S 9622   0.868   6.128  10.739  0.1211  0.2213  0.4535
   97OSM    H5S 9623   0.777   6.183  10.711  0.2193 -1.5380 -4.1827
   97OSM    C6S 9624   0.892   5.999  10.659 -0.0005 -0.1578 -0.1206
   97OSM    H6S 9625   0.815   5.985  10.580 -2.4490  3.0519  1.4663
   97OSM    H6T 9626   0.865   5.919  10.732 -1.7656  0.9814  0.5337
   97OSM    C7S 9627   1.041   5.997  10.602  0.4363  0.5065 -0.3951
   97OSM    H7S 9628   1.079   5.893  10.587  1.4436  0.4757  1.9671
   97OSM    H7T 9629   1.103   6.021  10.691  0.6620 -1.3387 -0.0015
   97OSM    C8S 9630   1.089   6.097  10.503  0.0007  0.5068 -0.5325
   97OSM    H8S 9631   1.073   6.200  10.540 -1.2750 -0.0462  0.5305
   97OSM    H8T 9632   1.027   6.077  10.413 -0.2173 -0.1253 -0.2496
   97OSM    C9S 9633   1.226   6.076  10.440  0.4280  0.1454 -0.8282
   97OSM    H9S 9634   1.249   5.967  10.437  0.8441  0.2484 -2.3604
   97OSM    H9T 9635   1.299   6.129  10.505  2.4860 -1.2937 -1.8348
   97OSM   C10S 9636   1.232   6.138  10.303  0.6815  0.6238 -0.2073
   97OSM   H10S 9637   1.339   6.153  10.277  0.3200  0.9662 -1.6090
   97OSM   H10T 9638   1.178   6.235  10.303 -0.3424  0.1264  2.2385
   97OSM   C11S 9639   1.164   6.050  10.186  0.3696  0.0618 -0.0953
   97OSM   H11S 9640   1.056   6.044  10.211  0.7906 -0.0523  1.8514
   97OSM   H11T 9641   1.202   5.946  10.188 -0.3598 -0.1987  0.9895
   97OSM   C12S 9642   1.167   6.127  10.055  0.3582  0.0734  0.1848
   97OSM   H12S 9643   1.273   6.155  10.036  0.1711 -0.7262 -2.4511
   97OSM   H12T 9644   1.102   6.217  10.060 -1.9845 -1.3217 -2.3554
   97OSM   C13S 9645   1.104   6.036   9.949 -0.2679  0.2642  0.0642
   97OSM   H13S 9646   1.008   6.002   9.991 -0.9347 -0.0079 -1.6068
   97OSM   H13T 9647   1.162   5.942   9.939  2.0852  1.6177 -0.0192
   97OSM   C14S 9648   1.081   6.109   9.813 -0.0611 -0.1643 -0.1144
   97OSM   H14S 9649   1.181   6.144   9.777  0.5452 -2.1381 -0.4920
   97OSM   H14T 9650   1.010   6.192   9.832  0.3755  0.4729 -1.1804
   97OSM   C15S 9651   1.023   6.021   9.700  0.3412  0.5952 -0.7531
   97OSM   H15S 9652   0.916   6.004   9.726  1.3577 -2.7099  2.0108
   97OSM   H15T 9653   1.063   5.917   9.700 -0.2444  0.3338 -2.3997
   97OSM   C16S 9654   1.051   6.096   9.565 -0.1966 -0.6232 -0.3629
   97OSM   H16S 9655   1.161   6.106   9.564 -0.1335  1.1211  3.7750
   97OSM   H16T 9656   0.999   6.193   9.581 -0.7639 -0.7393 -1.3777
   97OSM   C17S 9657   0.988   6.032   9.446  0.0662  0.5346  0.2449
   97OSM   H17S 9658   0.879   6.051   9.437  0.2156  2.0690  1.2284
   97OSM   H17T 9659   1.007   5.923   9.442 -1.2944  0.2972 -0.4596
   97OSM   C18S 9660   1.037   6.072   9.311 -0.0255  0.6699 -0.2755
   97OSM   H18S 9661   0.987   6.009   9.234 -1.2809  1.9805 -0.5697
   97OSM   H18T 9662   1.148   6.076   9.307  0.1334 -1.9840 -0.8114
   97OSM   H18U 9663   0.995   6.173   9.295 -2.1928 -0.2300 -0.6034
   97OSM    C1F 9664   1.040   6.511  10.618  0.1302 -0.0292 -0.6585
   97OSM     OF 9665   1.154   6.551  10.625 -0.4119  0.1936 -0.1704
   97OSM    C2F 9666   0.953   6.561  10.505 -0.3924  0.3842 -0.8899
   97OSM    H2F 9667   0.993   6.658  10.467 -0.4019  0.7086 -0.0872
   97OSM    H2G 9668   0.852   6.589  10.542 -0.2684 -0.9450  0.5675
   97OSM    C3F 9669   0.939   6.465  10.387  0.3447  0.0719  0.1915
   97OSM    H3F 9670   0.894   6.366  10.411 -2.4307  0.4936 -2.6567
   97OSM    H3G 9671   1.042   6.444  10.351  0.7444 -0.9647  1.8021
   97OSM    C4F 9672   0.847   6.524  10.279 -0.0953  0.0881  0.4696
   97OSM    H4F 9673   0.884   6.623  10.245  2.0642 -0.5220  0.8556
   97OSM    H4G 9674   0.750   6.548  10.328 -1.5039  0.5028 -2.3244
   97OSM    C5F 9675   0.817   6.430  10.159 -0.5179 -0.4775 -0.4301
   97OSM    H5F 9676   0.775   6.329  10.179 -1.5390  0.0258  0.0201
   97OSM    H5G 9677   0.918   6.409  10.119  0.9159 -0.2385  2.7724
   97OSM    C6F 9678   0.725   6.492  10.054 -0.3025 -0.0233 -0.0163
   97OSM    H6F 9679   0.787   6.550   9.983 -0.7594  0.5847  0.0656
   97OSM    H6G 9680   0.656   6.567  10.099  0.2433  1.8425 -2.1301
   97OSM    C7F 9681   0.645   6.388   9.973 -0.5424 -0.4423  0.3323
   97OSM    H7F 9682   0.542   6.387  10.016 -0.2938 -0.3465  0.9394
   97OSM    H7G 9683   0.691   6.290   9.997  0.7572  0.2888  0.8984
   97OSM    C8F 9684   0.611   6.416   9.825  0.0787 -0.3698  0.4766
   97OSM    H8F 9685   0.559   6.514   9.818 -1.8625 -1.3743  0.1881
   97OSM    H8G 9686   0.531   6.343   9.802  0.7130 -0.7278 -0.6817
   97OSM    C9F 9687   0.736   6.419   9.740 -0.2765 -0.1668  0.8798
   97OSM    H9F 9688   0.827   6.470   9.776 -0.5133  0.8274  0.1398
   97OSM   C10F 9689   0.745   6.352   9.624  0.0964 -0.3988  0.1934
   97OSM   H10F 9690   0.843   6.354   9.575  0.5113  2.1232  0.9928
   97OSM   C11F 9691   0.640   6.263   9.561  0.1473 -0.2093 -0.2599
   97OSM   H11F 9692   0.558   6.249   9.635  0.2831  2.1458  0.4216
   97OSM   H11G 9693   0.689   6.167   9.532  2.9887  1.0388  0.1196
   97OSM   C12F 9694   0.588   6.334   9.435  0.3194  0.3711 -0.1015
   97OSM   H12F 9695   0.557   6.440   9.451  0.2304  0.3080  0.1371
   97OSM   H12G 9696   0.493   6.277   9.425 -0.2157  0.9740  1.2226
   97OSM   C13F 9697   0.661   6.310   9.304 -0.0896 -0.1646  0.4064
   97OSM   H13F 9698   0.684   6.201   9.295  1.3477  0.0248  1.4562
   97OSM   H13G 9699   0.752   6.371   9.291 -1.1474  1.0117 -2.0664
   97OSM   C14F 9700   0.568   6.360   9.192 -0.4522 -0.0629  0.6779
   97OSM   H14F 9701   0.533   6.461   9.224 -0.9435  0.2467 -0.7502
   97OSM   H14G 9702   0.482   6.290   9.198  0.9820 -1.9998 -0.2376
   97OSM   C15F 9703   0.642   6.364   9.051 -0.2421  0.4501 -0.0070
   97OSM   H15F 9704   0.710   6.276   9.049 -2.2241 -1.1166 -0.8605
   97OSM   H15G 9705   0.710   6.452   9.048 -1.9635  1.8130 -0.6524
   97OSM   C16F 9706   0.545   6.357   8.928 -0.5186  0.2116  0.4884
   97OSM   H16F 9707   0.482   6.448   8.933  0.8930  1.2882 -0.4139
   97OSM   H16G 9708   0.480   6.267   8.928 -1.8389  1.0732  2.6804
   97OSM   C17F 9709   0.622   6.350   8.795  0.1337 -0.5128 -0.8868
   97OSM   H17F 9710   0.682   6.257   8.785 -2.9450 -2.5057 -2.2643
   97OSM   H17G 9711   0.690   6.437   8.793 -2.7669  1.8844 -1.6929
   97OSM   C18F 9712   0.544   6.370   8.663 -0.4717  0.0535 -0.9101
   97OSM   H18F 9713   0.610   6.385   8.575  1.6696  2.2837  0.9384
   97OSM   H18G 9714   0.479   6.458   8.678  1.1010  0.8274  2.6372
   97OSM   H18H 9715   0.489   6.274   8.648 -0.6752  0.1243 -0.6338
   98OSM      N 9716   0.295   6.779  10.990 -0.0990 -0.4952  0.4662
   98OSM    C15 9717   0.441   6.810  10.967 -0.7277 -0.1815 -0.7755
   98OSM   H15A 9718   0.482   6.851  11.058  1.3083 -3.2073 -0.1848
   98OSM   H15B 9719   0.449   6.876  10.883  1.6771 -0.2088 -0.6443
   98OSM   H15C 9720   0.494   6.718  10.945  0.4658  0.1777  0.4158
   98OSM    C14 9721   0.276   6.710  11.124  0.0903 -0.4798  0.0799
   98OSM   H14A 9722   0.173   6.716  11.154 -0.1942 -2.3199 -0.4357
   98OSM   H14B 9723   0.337   6.761  11.198 -1.4548 -0.0425  1.0972
   98OSM   H14C 9724   0.303   6.606  11.131 -1.5478 -0.8380  2.6243
   98OSM    C13 9725   0.228   6.912  10.988 -0.1691  0.9406 -0.6174
   98OSM   H13A 9726   0.245   6.972  11.077  0.8885 -0.2540  0.0154
   98OSM   H13B 9727   0.120   6.907  10.989 -0.1192 -0.6605 -0.4896
   98OSM   H13C 9728   0.263   6.970  10.903  2.2433 -0.3816 -0.6216
   98OSM    C12 9729   0.246   6.696  10.881  0.3952  0.2907 -0.6332
   98OSM   H12A 9730   0.228   6.756  10.793  1.6445 -0.8827 -1.7408
   98OSM   H12B 9731   0.147   6.667  10.912  0.8611 -0.2902  0.3562
   98OSM    C11 9732   0.318   6.564  10.847  0.6107 -0.0953  0.4777
   98OSM   H11A 9733   0.238   6.531  10.777 -0.3007  0.2943  1.3025
   98OSM   H11B 9734   0.317   6.503  10.940  0.1196  1.0251  1.2265
   98OSM      P 9735   0.546   6.464  10.788 -0.1844  0.0711 -0.2721
   98OSM    O13 9736   0.677   6.498  10.733  0.0617 -0.2127 -0.1046
   98OSM    O14 9737   0.538   6.413  10.924  0.1296 -0.2849 -0.0338
   98OSM    O11 9738   0.471   6.361  10.695 -0.5233 -0.0242 -0.5266
   98OSM    O12 9739   0.444   6.584  10.779  0.4034  0.6763 -0.7818
   98OSM    C1S 9740   0.401   6.389  10.578  0.2318 -0.2588  0.0842
   98OSM    H1S 9741   0.370   6.496  10.582 -1.1572 -0.6709  1.2862
   98OSM    H1T 9742   0.306   6.331  10.578 -0.0232  0.1396 -1.0584
   98OSM     NF 9743   0.448   6.406  10.334 -0.3428 -0.4377  0.4484
   98OSM    HNF 9744   0.401   6.345  10.270 -0.4076  1.5216 -1.4863
   98OSM    C2S 9745   0.491   6.355  10.458  0.0990 -0.3967  0.2683
   98OSM    H2S 9746   0.588   6.407  10.471 -0.8101  1.4339 -0.0413
   98OSM    C3S 9747   0.508   6.197  10.464 -0.6770  0.2409  0.4329
   98OSM    H3S 9748   0.406   6.154  10.465  0.6800 -3.2893  1.3189
   98OSM     O3 9749   0.549   6.143  10.590 -0.3168  0.1464 -0.4725
   98OSM    HO3 9750   0.520   6.217  10.645 -1.2744  0.9239 -1.9318
   98OSM    C4S 9751   0.580   6.135  10.351  0.0427  0.3103 -0.5137
   98OSM    H4S 9752   0.655   6.199  10.303 -1.3344  0.7690 -2.1585
   98OSM    C5S 9753   0.553   6.016  10.291 -0.0218  0.4918  0.7965
   98OSM    H5S 9754   0.477   5.949  10.334 -0.6400  0.7418  0.0990
   98OSM    C6S 9755   0.628   5.957  10.175  0.2561  0.4986  0.3345
   98OSM    H6S 9756   0.632   5.846  10.185 -0.3145  0.4668  0.2329
   98OSM    H6T 9757   0.731   5.997  10.170 -0.0891  1.3266 -0.2564
   98OSM    C7S 9758   0.560   5.988  10.044  0.6254 -0.0062  0.1757
   98OSM    H7S 9759   0.542   6.098  10.051  1.1630  0.1832 -1.0685
   98OSM    H7T 9760   0.473   5.921  10.031  0.8506  0.0744 -2.1832
   98OSM    C8S 9761   0.644   5.945   9.918  0.1009  0.1806  0.0424
   98OSM    H8S 9762   0.753   5.960   9.936  0.3485 -0.9482 -0.4418
   98OSM    H8T 9763   0.608   6.003   9.831 -0.9839 -0.8020 -0.1775
   98OSM    C9S 9764   0.622   5.798   9.875  0.0785  0.3554 -0.2647
   98OSM    H9S 9765   0.513   5.778   9.870 -0.0360  0.4622  1.4624
   98OSM    H9T 9766   0.659   5.741   9.963  1.1048  0.0144 -0.8955
   98OSM   C10S 9767   0.687   5.763   9.745 -0.3704 -0.0094  0.6628
   98OSM   H10S 9768   0.682   5.652   9.734 -0.0805  0.1825 -2.0781
   98OSM   H10T 9769   0.792   5.799   9.741  0.4350 -2.2289  0.6329
   98OSM   C11S 9770   0.602   5.816   9.629 -0.2420 -0.0766 -0.4324
   98OSM   H11S 9771   0.600   5.927   9.626 -2.6440  0.1135  2.7508
   98OSM   H11T 9772   0.493   5.796   9.640 -0.4484  1.8635  2.0018
   98OSM   C12S 9773   0.650   5.758   9.494  0.0457 -0.1989  0.6478
   98OSM   H12S 9774   0.676   5.649   9.499 -1.8038 -0.7499 -0.8158
   98OSM   H12T 9775   0.755   5.794   9.484  0.2415 -1.3616 -2.6986
   98OSM   C13S 9776   0.571   5.807   9.371 -1.3900  0.3206 -0.4298
   98OSM   H13S 9777   0.556   5.917   9.376 -0.4432  0.4298  0.2001
   98OSM   H13T 9778   0.469   5.763   9.377 -0.6839 -1.6391 -1.6336
   98OSM   C14S 9779   0.640   5.773   9.234  0.1589  0.0918 -0.2878
   98OSM   H14S 9780   0.613   5.667   9.217  1.8507 -0.1871 -1.5540
   98OSM   H14T 9781   0.751   5.776   9.242  0.0437  0.7537  1.5614
   98OSM   C15S 9782   0.590   5.876   9.133  0.1112 -0.7899  0.2304
   98OSM   H15S 9783   0.641   5.972   9.154  0.5566 -0.6626 -1.2880
   98OSM   H15T 9784   0.480   5.885   9.141  0.0497  1.6185 -2.0616
   98OSM   C16S 9785   0.631   5.855   8.982 -0.2990 -0.0915 -0.7169
   98OSM   H16S 9786   0.584   5.766   8.934 -2.1547 -0.2411  1.2383
   98OSM   H16T 9787   0.742   5.846   8.981 -0.3236 -0.4517 -0.4866
   98OSM   C17S 9788   0.611   5.986   8.903  0.1703  0.2972 -0.0193
   98OSM   H17S 9789   0.666   6.073   8.944  0.3507  0.3393 -0.3502
   98OSM   H17T 9790   0.504   6.016   8.912  1.0417  3.1343  2.9736
   98OSM   C18S 9791   0.648   5.965   8.759  0.0470  0.6858  0.1827
   98OSM   H18S 9792   0.580   5.890   8.712  0.5891 -0.1665  0.7283
   98OSM   H18T 9793   0.747   5.919   8.739 -0.4050 -0.9177  1.4146
   98OSM   H18U 9794   0.629   6.057   8.700  0.3324  0.0064 -1.0008
   98OSM    C1F 9795   0.424   6.535  10.304  0.1734  0.0023  0.0597
   98OSM     OF 9796   0.489   6.622  10.361  0.0325  0.2117  0.7673
   98OSM    C2F 9797   0.326   6.561  10.194  0.5923  0.2149  0.2451
   98OSM    H2F 9798   0.230   6.515  10.228  0.9925 -0.3323  0.6396
   98OSM    H2G 9799   0.355   6.522  10.094 -1.2841  1.7007 -0.9668
   98OSM    C3F 9800   0.313   6.708  10.163 -0.4565  0.2198 -0.3222
   98OSM    H3F 9801   0.397   6.746  10.100 -1.0019 -0.8657 -1.7720
   98OSM    H3G 9802   0.311   6.769  10.256  0.6672  1.8172 -1.2783
   98OSM    C4F 9803   0.191   6.754  10.079 -0.4772 -0.0997 -0.1495
   98OSM    H4F 9804   0.181   6.862  10.053  0.3586 -0.4303 -2.0091
   98OSM    H4G 9805   0.112   6.732  10.153  1.2387 -0.4801  1.6659
   98OSM    C5F 9806   0.161   6.668   9.962 -0.0441  0.9582 -0.3701
   98OSM    H5F 9807   0.058   6.699   9.933 -1.4665 -1.7740  1.3892
   98OSM    H5G 9808   0.155   6.563   9.997  0.1441  1.2117  0.4297
   98OSM    C6F 9809   0.267   6.671   9.838  0.6810  0.0234 -0.3565
   98OSM    H6F 9810   0.371   6.651   9.872  0.7012  1.5428  0.5836
   98OSM    H6G 9811   0.255   6.777   9.805 -0.9768  0.3588  1.1720
   98OSM    C7F 9812   0.223   6.582   9.724  0.5343  0.3213 -0.4161
   98OSM    H7F 9813   0.119   6.605   9.692 -0.3219 -1.4711  0.9263
   98OSM    H7G 9814   0.214   6.478   9.759 -1.3512 -0.0129 -1.7222
   98OSM    C8F 9815   0.314   6.589   9.599 -0.1108  0.3171 -0.5983
   98OSM    H8F 9816   0.419   6.566   9.626 -0.9279 -2.2671  0.6462
   98OSM    H8G 9817   0.313   6.698   9.577 -0.5036  0.2380 -0.9921
   98OSM    C9F 9818   0.284   6.504   9.482  0.1075  0.1195  0.1897
   98OSM    H9F 9819   0.264   6.397   9.498 -1.6754  0.0153 -2.1633
   98OSM   C10F 9820   0.283   6.543   9.354  0.6104  0.9403 -0.3214
   98OSM   H10F 9821   0.261   6.476   9.270  0.2828  2.6155 -1.6246
   98OSM   C11F 9822   0.318   6.671   9.284 -0.5714 -0.6047  0.3901
   98OSM   H11F 9823   0.396   6.647   9.208 -0.7138 -2.3038  0.7330
   98OSM   H11G 9824   0.353   6.757   9.346 -1.3371  1.9557 -2.5145
   98OSM   C12F 9825   0.183   6.721   9.219  0.5320 -0.7240  0.4775
   98OSM   H12F 9826   0.197   6.814   9.159  0.2174 -0.1079  1.3294
   98OSM   H12G 9827   0.122   6.764   9.302  0.1090 -0.0995 -0.1443
   98OSM   C13F 9828   0.097   6.624   9.125 -0.3225  0.4775  0.5792
   98OSM   H13F 9829   0.004   6.680   9.103  0.7550  2.3885  0.7232
   98OSM   H13G 9830   0.074   6.524   9.168  3.1189 -1.0489 -0.7093
   98OSM   C14F 9831   0.176   6.595   8.993  0.0506  0.5021  0.3975
   98OSM   H14F 9832   0.275   6.566   9.033 -1.1874  0.0678  3.4070
   98OSM   H14G 9833   0.196   6.681   8.925  1.4203  0.2178  0.4247
   98OSM   C15F 9834   0.109   6.482   8.909 -0.4043 -0.9881 -0.3688
   98OSM   H15F 9835   0.006   6.508   8.878  0.0568  1.9903  0.2618
   98OSM   H15G 9836   0.101   6.388   8.966  0.7418 -1.4956 -1.0033
   98OSM   C16F 9837   0.208   6.462   8.791  0.9612 -0.3748 -0.4312
   98OSM   H16F 9838   0.308   6.430   8.827  1.6489  0.6351 -1.3911
   98OSM   H16G 9839   0.219   6.562   8.745  1.8792  0.1143  0.7935
   98OSM   C17F 9840   0.169   6.360   8.676  0.1407 -0.3799  1.0895
   98OSM   H17F 9841   0.237   6.376   8.590 -0.1021  0.7733  1.0901
   98OSM   H17G 9842   0.069   6.385   8.633  0.8145 -2.0423 -1.7349
   98OSM   C18F 9843   0.181   6.217   8.729 -0.0390 -0.3869  0.6708
   98OSM   H18F 9844   0.273   6.189   8.786  1.0242  0.1580 -0.7299
   98OSM   H18G 9845   0.190   6.144   8.646  1.5462  1.8241 -1.2429
   98OSM   H18H 9846   0.093   6.202   8.796  1.3647 -0.9133  2.4966
   99OSM      N 9847   2.735   5.864  11.113 -0.1677  0.2450 -0.7365
   99OSM    C15 9848   2.803   5.752  11.040  0.3904  0.6358  0.8838
   99OSM   H15A 9849   2.810   5.765  10.933  1.0796 -0.7265  0.7352
   99OSM   H15B 9850   2.752   5.660  11.064 -0.4954  0.3154 -1.8430
   99OSM   H15C 9851   2.906   5.742  11.072  0.1520 -0.3707  1.3776
   99OSM    C14 9852   2.758   5.843  11.261 -0.0920  0.0878 -0.0629
   99OSM   H14A 9853   2.856   5.806  11.286 -1.0839 -2.7492 -0.0411
   99OSM   H14B 9854   2.690   5.767  11.296  0.7070 -0.1551  1.0193
   99OSM   H14C 9855   2.739   5.935  11.315  0.6725  1.2585 -1.7051
   99OSM    C13 9856   2.802   5.987  11.058  0.0291  0.2270 -0.0114
   99OSM   H13A 9857   2.775   6.082  11.102  3.5140  1.2106  0.3018
   99OSM   H13B 9858   2.778   5.993  10.953  0.5972 -1.5190 -0.2785
   99OSM   H13C 9859   2.909   5.987  11.074  0.4434  0.8265 -2.4550
   99OSM    C12 9860   2.590   5.869  11.077  0.7393  0.0554  0.2558
   99OSM   H12A 9861   2.541   5.960  11.110 -0.9232 -1.3953  1.9822
   99OSM   H12B 9862   2.537   5.795  11.135  1.4750 -0.4013  0.3625
   99OSM    C11 9863   2.546   5.857  10.926  0.2034  0.5431 -0.1793
   99OSM   H11A 9864   2.437   5.842  10.911  0.4221  0.9143 -2.5959
   99OSM   H11B 9865   2.586   5.759  10.894  0.3568  0.0954  1.2974
   99OSM      P 9866   2.491   6.107  10.861  0.1134 -0.0572 -0.3446
   99OSM    O13 9867   2.364   6.076  10.927 -0.3882  0.4583 -0.0873
   99OSM    O14 9868   2.575   6.211  10.920 -0.1136  0.2071 -0.5832
   99OSM    O11 9869   2.462   6.137  10.711 -0.0534 -0.0325  1.0162
   99OSM    O12 9870   2.583   5.971  10.845  0.1883  0.6730 -0.3626
   99OSM    C1S 9871   2.506   6.046  10.604 -0.8829 -0.2843 -0.7889
   99OSM    H1S 9872   2.489   5.940  10.632 -0.8064 -0.3754 -1.0877
   99OSM    H1T 9873   2.613   6.067  10.581 -0.8729  1.8748  0.8566
   99OSM     NF 9874   2.433   6.000  10.366 -0.6070 -0.3092  0.1969
   99OSM    HNF 9875   2.499   6.008  10.292  0.2767 -2.9133  0.5805
   99OSM    C2S 9876   2.435   6.094  10.477  0.4701 -0.5007 -0.9303
   99OSM    H2S 9877   2.334   6.130  10.507  1.1054  0.3049  0.3373
   99OSM    C3S 9878   2.490   6.235  10.440 -0.9501  0.7391 -0.1383
   99OSM    H3S 9879   2.601   6.228  10.433 -0.7894 -1.0646  2.6496
   99OSM     O3 9880   2.458   6.342  10.533  0.0486 -0.5301  0.2925
   99OSM    HO3 9881   2.435   6.295  10.613 -1.1736  0.6547  0.6470
   99OSM    C4S 9882   2.449   6.272  10.302 -0.1874 -0.2173  0.0457
   99OSM    H4S 9883   2.538   6.274  10.237  0.2987 -0.5341  0.6875
   99OSM    C5S 9884   2.325   6.294  10.253  0.2380 -0.7337 -0.3012
   99OSM    H5S 9885   2.239   6.278  10.320  1.2123 -1.6947  0.7845
   99OSM    C6S 9886   2.297   6.329  10.110 -0.0621  0.3703  0.0514
   99OSM    H6S 9887   2.389   6.366  10.059  0.8730  1.0931  2.1188
   99OSM    H6T 9888   2.213   6.401  10.115 -1.5792 -1.3869  0.9627
   99OSM    C7S 9889   2.247   6.214  10.018  0.3874 -0.2105  0.1663
   99OSM    H7S 9890   2.153   6.166  10.053  0.8603 -1.5550 -0.3406
   99OSM    H7T 9891   2.324   6.135  10.013  1.3437  0.7617 -1.4007
   99OSM    C8S 9892   2.231   6.264   9.875 -0.3083 -0.0959  1.1821
   99OSM    H8S 9893   2.331   6.297   9.840 -0.6133 -2.6518 -2.7113
   99OSM    H8T 9894   2.164   6.351   9.859 -0.0337 -0.3995 -2.4360
   99OSM    C9S 9895   2.170   6.159   9.775  0.4750  0.6612  0.3892
   99OSM    H9S 9896   2.061   6.139   9.786  0.5943 -1.7063 -1.9363
   99OSM    H9T 9897   2.220   6.064   9.801 -0.1282  0.7753  2.1448
   99OSM   C10S 9898   2.184   6.204   9.635 -0.3640  0.1218  0.1166
   99OSM   H10S 9899   2.292   6.214   9.610 -0.8489  1.0487 -1.7552
   99OSM   H10T 9900   2.147   6.308   9.626 -3.1125 -0.3684  3.6752
   99OSM   C11S 9901   2.124   6.118   9.528  0.1479 -0.1610  0.2575
   99OSM   H11S 9902   2.022   6.093   9.565  0.4498 -1.3167  0.3662
   99OSM   H11T 9903   2.181   6.023   9.516  0.0636 -0.0355 -1.3927
   99OSM   C12S 9904   2.128   6.174   9.379  0.5370  0.0298  0.6833
   99OSM   H12S 9905   2.079   6.274   9.381  0.6697  0.0965  1.8574
   99OSM   H12T 9906   2.227   6.188   9.333 -0.8060  0.0293 -2.4535
   99OSM   C13S 9907   2.054   6.101   9.268  0.2543  0.0397 -0.1920
   99OSM   H13S 9908   2.033   6.167   9.180  0.2578 -2.0402 -1.8285
   99OSM   H13T 9909   1.954   6.066   9.300  0.4779  1.3760  2.2185
   99OSM   C14S 9910   2.128   5.977   9.219  0.2196  0.7540  0.1612
   99OSM   H14S 9911   2.140   5.904   9.301  1.2014  0.7169 -0.0057
   99OSM   H14T 9912   2.232   5.996   9.184 -0.4805  1.4375 -1.7074
   99OSM   C15S 9913   2.061   5.917   9.083 -0.1311 -0.2606  0.3835
   99OSM   H15S 9914   1.950   5.914   9.084 -0.1445  0.1809  0.3574
   99OSM   H15T 9915   2.094   5.812   9.069  0.6129 -0.0546  0.5734
   99OSM   C16S 9916   2.118   5.978   8.952 -0.7748 -0.1246  0.0981
   99OSM   H16S 9917   2.227   5.958   8.944 -0.9854 -1.5242  0.3831
   99OSM   H16T 9918   2.109   6.088   8.946  1.9568  0.1103 -3.7402
   99OSM   C17S 9919   2.048   5.916   8.825  0.4266  0.2636 -0.3474
   99OSM   H17S 9920   2.070   5.807   8.821  0.6501  0.2845  0.2746
   99OSM   H17T 9921   2.104   5.956   8.738  1.2972  1.0973  0.5686
   99OSM   C18S 9922   1.905   5.964   8.811  0.7545  0.0938  0.8466
   99OSM   H18S 9923   1.834   5.938   8.892  0.5252  0.8578  0.9030
   99OSM   H18T 9924   1.863   5.932   8.713  3.5888 -2.0838  0.2166
   99OSM   H18U 9925   1.917   6.075   8.809 -0.2973  0.2526 -2.2661
   99OSM    C1F 9926   2.374   5.879  10.378  0.2945 -0.3174  0.1771
   99OSM     OF 9927   2.301   5.859  10.473 -0.2282  0.2812 -0.3984
   99OSM    C2F 9928   2.406   5.775  10.276 -0.5989  0.0878 -0.0612
   99OSM    H2F 9929   2.383   5.679  10.328  2.2483  0.2417  1.6575
   99OSM    H2G 9930   2.514   5.768  10.253 -0.7765 -3.4196 -0.3600
   99OSM    C3F 9931   2.319   5.799  10.154  0.8993 -0.7816  0.6770
   99OSM    H3F 9932   2.217   5.770  10.188  0.4557 -0.7410 -0.5639
   99OSM    H3G 9933   2.319   5.905  10.120  0.4384 -1.0297 -0.1329
   99OSM    C4F 9934   2.363   5.704  10.030 -0.3237  0.8248 -0.1119
   99OSM    H4F 9935   2.358   5.599  10.066  1.2064  1.1022  0.9973
   99OSM    H4G 9936   2.470   5.730  10.026 -0.0305  0.1996  2.0373
   99OSM    C5F 9937   2.281   5.713   9.906 -0.1684  1.0835  0.3147
   99OSM    H5F 9938   2.190   5.774   9.922 -0.7983  0.1390  0.3933
   99OSM    H5G 9939   2.241   5.612   9.882 -0.8552  1.4205  0.0219
   99OSM    C6F 9940   2.368   5.776   9.792  0.2587  0.2407 -0.6086
   99OSM    H6F 9941   2.454   5.706   9.779  0.7356  0.5008  0.9052
   99OSM    H6G 9942   2.403   5.878   9.818  0.0030  0.0078  0.7175
   99OSM    C7F 9943   2.285   5.790   9.659  0.1684  0.1517 -0.2676
   99OSM    H7F 9944   2.341   5.847   9.582  0.6570 -0.4402 -0.3582
   99OSM    H7G 9945   2.193   5.848   9.685 -1.0041 -1.0968 -1.4336
   99OSM    C8F 9946   2.229   5.658   9.593 -1.1009 -0.5913 -0.4864
   99OSM    H8F 9947   2.153   5.691   9.518  1.1467  1.4079 -2.0483
   99OSM    H8G 9948   2.181   5.602   9.676 -1.1853 -0.6129 -0.5489
   99OSM    C9F 9949   2.332   5.564   9.546  0.4158  1.0817 -0.1190
   99OSM    H9F 9950   2.402   5.524   9.621 -1.3157 -1.9728  0.0295
   99OSM   C10F 9951   2.334   5.500   9.424  0.3509  0.1069 -0.1691
   99OSM   H10F 9952   2.422   5.440   9.398  0.1739 -0.3584  0.2741
   99OSM   C11F 9953   2.232   5.524   9.307  0.1931  0.2040  0.2849
   99OSM   H11F 9954   2.155   5.603   9.319  0.1690  0.9583 -3.5722
   99OSM   H11G 9955   2.172   5.430   9.303 -0.0104  0.2617  1.5039
   99OSM   C12F 9956   2.299   5.547   9.167 -0.1793  0.1871  0.4834
   99OSM   H12F 9957   2.216   5.551   9.093  1.0911  0.9969 -0.9590
   99OSM   H12G 9958   2.362   5.458   9.144  0.6140  1.3746 -2.3686
   99OSM   C13F 9959   2.384   5.682   9.174  0.3933  0.2843  0.6387
   99OSM   H13F 9960   2.418   5.694   9.279  1.9566  1.0492  0.0792
   99OSM   H13G 9961   2.303   5.756   9.156  0.2481 -0.1053 -0.3756
   99OSM   C14F 9962   2.504   5.678   9.075  1.2245  0.0447 -0.3138
   99OSM   H14F 9963   2.563   5.595   9.118  0.7017 -0.1908 -0.0400
   99OSM   H14G 9964   2.570   5.765   9.094  0.8301  0.2932 -0.0724
   99OSM   C15F 9965   2.476   5.657   8.925  0.3982 -0.0103 -0.3523
   99OSM   H15F 9966   2.404   5.732   8.885  2.1383  2.4552  0.8926
   99OSM   H15G 9967   2.440   5.552   8.925  0.2519  0.0396 -0.6735
   99OSM   C16F 9968   2.599   5.664   8.835  0.4878  0.0008 -0.2141
   99OSM   H16F 9969   2.686   5.601   8.864  0.0989 -0.9336 -1.0345
   99OSM   H16G 9970   2.635   5.769   8.838 -0.8205  0.4805 -0.5628
   99OSM   C17F 9971   2.574   5.616   8.697  0.3370  0.4779 -0.0228
   99OSM   H17F 9972   2.497   5.679   8.649  0.5112  2.1555  1.7671
   99OSM   H17G 9973   2.539   5.511   8.709  3.4373 -0.7646 -0.6745
   99OSM   C18F 9974   2.695   5.607   8.606 -0.8917  0.5062  0.3853
   99OSM   H18F 9975   2.741   5.708   8.612 -1.1144  0.6367 -0.0279
   99OSM   H18G 9976   2.668   5.582   8.501 -0.7156 -1.4987  0.7897
   99OSM   H18H 9977   2.763   5.526   8.639 -2.2071 -0.0517  1.8743
  100OSM      N 9978   4.826   6.726  10.669 -0.0969  0.1073  0.2946
  100OSM    C15 9979   4.713   6.812  10.701  0.5221 -0.1238  0.2025
  100OSM   H15A 9980   4.680   6.879  10.623 -0.1577  1.4104  1.7572
  100OSM   H15B 9981   4.737   6.888  10.773  0.3130  2.2458 -2.0817
  100OSM   H15C 9982   4.623   6.764  10.735  0.1259  0.6247  0.2281
  100OSM    C14 9983   4.859   6.636  10.788 -0.8357 -0.1071 -0.1821
  100OSM   H14A 9984   4.778   6.580  10.832 -0.7829 -0.8514 -1.0053
  100OSM   H14B 9985   4.921   6.690  10.858 -0.2504  0.1728 -0.9077
  100OSM   H14C 9986   4.924   6.558  10.753 -0.5313  0.1222 -0.1363
  100OSM    C13 9987   4.763   6.637  10.561  0.1234  0.6034 -0.4143
  100OSM   H13A 9988   4.721   6.690  10.477 -2.8188 -1.3732 -0.3306
  100OSM   H13B 9989   4.675   6.597  10.610 -0.6782  2.0296 -0.6391
  100OSM   H13C 9990   4.819   6.556  10.518 -2.3111 -0.7994 -1.1472
  100OSM    C12 9991   4.947   6.800  10.605 -0.3953 -0.3248 -0.4357
  100OSM   H12A 9992   4.974   6.874  10.678 -1.1310  1.5117 -1.9418
  100OSM   H12B 9993   4.922   6.857  10.517 -0.8662 -2.5969 -1.8652
  100OSM    C11 9994   5.072   6.713  10.568  0.5404 -0.0360  0.5144
  100OSM   H11A 9995   5.157   6.782  10.550  0.8897 -0.1128  1.7611
  100OSM   H11B 9996   5.053   6.643  10.485 -1.8461 -0.8867  1.6867
  100OSM      P 9997   5.243   6.620  10.749 -0.2934 -0.3420  0.2056
  100OSM    O13 9998   5.292   6.757  10.788 -0.3412  0.2003 -0.3351
  100OSM    O14 9999   5.218   6.525  10.860  0.0714 -0.3725 -0.8233
  100OSM    O1110000   5.345   6.563  10.642 -0.1409  0.4920 -0.3460
  100OSM    O1210001   5.110   6.623  10.672  0.2551 -0.0935  0.3950
  100OSM    C1S10002   5.322   6.464  10.541 -0.0206  0.0194  0.5176
  100OSM    H1S10003   5.244   6.389  10.566 -0.8052  0.5703 -0.2042
  100OSM    H1T10004   5.409   6.397  10.556  0.9240  0.6972 -1.5929
  100OSM     NF10005   5.328   6.405  10.295 -0.4737 -0.2901 -0.3810
  100OSM    HNF10006   5.418   6.403  10.252 -0.6087  1.7117 -0.8769
  100OSM    C2S10007   5.321   6.510  10.396 -0.1548 -0.7266  0.1614
  100OSM    H2S10008   5.226   6.561  10.369  2.0449  2.9168 -1.4250
  100OSM    C3S10009   5.441   6.616  10.388 -0.3070  0.1442  0.1617
  100OSM    H3S10010   5.530   6.566  10.431  0.3107  0.3449 -0.8503
  100OSM     O310011   5.440   6.730  10.475 -0.7057 -0.4536  0.4999
  100OSM    HO310012   5.372   6.700  10.536 -1.7777 -0.4568 -0.6606
  100OSM    C4S10013   5.463   6.659  10.255 -0.2470 -0.0977 -0.1502
  100OSM    H4S10014   5.375   6.689  10.195  1.6682 -1.7959 -4.1452
  100OSM    C5S10015   5.580   6.657  10.196 -0.8916  0.9221  0.6867
  100OSM    H5S10016   5.673   6.638  10.251 -0.0174  1.8877 -0.3996
  100OSM    C6S10017   5.608   6.708  10.058  0.1411  0.1844 -0.2691
  100OSM    H6S10018   5.630   6.623   9.990 -1.8901 -1.5597  1.1370
  100OSM    H6T10019   5.704   6.763  10.056 -0.3057  0.9942 -2.0649
  100OSM    C7S10020   5.504   6.793   9.996  0.4577 -0.7097  0.4626
  100OSM    H7S10021   5.466   6.881  10.052  0.9969  1.3683 -2.2230
  100OSM    H7T10022   5.420   6.721   9.988 -0.4092  0.2392  0.8179
  100OSM    C8S10023   5.535   6.820   9.852  0.2091 -0.5951  0.1903
  100OSM    H8S10024   5.574   6.723   9.813 -0.7743 -0.0616 -2.3709
  100OSM    H8T10025   5.624   6.886   9.850  1.7489 -2.5831 -1.3349
  100OSM    C9S10026   5.425   6.872   9.765  1.7046 -0.8097  0.0281
  100OSM    H9S10027   5.374   6.958   9.814  0.0962 -1.5863 -0.1978
  100OSM    H9T10028   5.347   6.794   9.752 -0.7031  1.0066  2.3130
  100OSM   C10S10029   5.471   6.916   9.624 -0.5485 -0.5871  0.4798
  100OSM   H10S10030   5.546   6.996   9.637 -1.5235  0.4122  0.0863
  100OSM   H10T10031   5.399   6.979   9.567  0.5785  1.6829  1.4661
  100OSM   C11S10032   5.518   6.800   9.534 -0.3790  0.3192  0.2376
  100OSM   H11S10033   5.450   6.713   9.541 -0.0572  0.2192  4.1853
  100OSM   H11T10034   5.617   6.766   9.571  0.5791  1.3936 -1.1937
  100OSM   C12S10035   5.532   6.848   9.385  0.6756 -0.1599 -0.4333
  100OSM   H12S10036   5.604   6.933   9.390 -0.3389  0.7175 -0.2597
  100OSM   H12T10037   5.432   6.890   9.360 -0.2158  0.4664  3.5677
  100OSM   C13S10038   5.587   6.738   9.301  0.2165  0.4576  0.6424
  100OSM   H13S10039   5.516   6.653   9.310  0.6146 -0.1082 -1.0362
  100OSM   H13T10040   5.692   6.718   9.332  0.4714  0.9430  0.1252
  100OSM   C14S10041   5.585   6.778   9.155 -0.0701 -0.9676  0.1160
  100OSM   H14S10042   5.658   6.861   9.143 -2.0247  0.9291  0.7703
  100OSM   H14T10043   5.487   6.820   9.125  0.1323 -1.0170 -0.6329
  100OSM   C15S10044   5.609   6.661   9.052  0.0358  0.5839 -0.9206
  100OSM   H15S10045   5.535   6.579   9.062  2.0114 -1.3476 -1.5793
  100OSM   H15T10046   5.705   6.610   9.074 -0.6880  0.2927  1.9117
  100OSM   C16S10047   5.616   6.703   8.908  0.9005 -0.5251 -0.3546
  100OSM   H16S10048   5.677   6.795   8.896 -0.4316  0.4962  0.4487
  100OSM   H16T10049   5.511   6.733   8.886  0.9091  2.3961  2.7368
  100OSM   C17S10050   5.669   6.597   8.813  0.4369  0.5133  0.0855
  100OSM   H17S10051   5.594   6.517   8.833 -0.1037  1.4654  2.1899
  100OSM   H17T10052   5.759   6.557   8.865 -0.0617 -0.3115  0.3275
  100OSM   C18S10053   5.698   6.639   8.675  0.6406 -0.3020 -0.1190
  100OSM   H18S10054   5.602   6.668   8.629 -0.3976 -3.8292 -0.3962
  100OSM   H18T10055   5.750   6.560   8.617 -0.2203 -0.3569 -0.8255
  100OSM   H18U10056   5.765   6.728   8.682  1.5152 -0.8013 -1.6874
  100OSM    C1F10057   5.228   6.313  10.289  0.0210 -0.2270  0.1791
  100OSM     OF10058   5.113   6.344  10.321  0.2610 -0.2761 -0.8679
  100OSM    C2F10059   5.272   6.175  10.233  0.6698 -0.2252 -0.3782
  100OSM    H2F10060   5.300   6.106  10.316  1.4981 -0.0130 -0.4729
  100OSM    H2G10061   5.359   6.192  10.166  0.6290  0.2830 -0.3090
  100OSM    C3F10062   5.153   6.107  10.154 -0.1979  0.1173  0.2283
  100OSM    H3F10063   5.068   6.082  10.222 -0.0271  1.0022  0.7890
  100OSM    H3G10064   5.199   6.020  10.103  1.2544  2.1450 -2.1263
  100OSM    C4F10065   5.096   6.193  10.044  0.5046  0.4336  0.2493
  100OSM    H4F10066   5.174   6.238   9.980 -1.8159 -0.4224 -3.4570
  100OSM    H4G10067   5.028   6.266  10.094 -0.1537 -0.0387  0.0514
  100OSM    C5F10068   5.015   6.109   9.942 -0.6224  0.2111 -0.5649
  100OSM    H5F10069   4.931   6.051   9.987  1.3683 -2.4008  0.0175
  100OSM    H5G10070   5.083   6.035   9.895  0.1384  1.1680 -1.0262
  100OSM    C6F10071   4.973   6.199   9.823  0.0523  0.5631 -0.7341
  100OSM    H6F10072   5.076   6.214   9.783  0.6880 -1.7971 -0.1402
  100OSM    H6G10073   4.915   6.286   9.862 -0.5868 -0.5739  0.9603
  100OSM    C7F10074   4.867   6.129   9.733 -0.3910  0.4483 -0.2614
  100OSM    H7F10075   4.814   6.205   9.673 -1.4972  0.3143  0.5147
  100OSM    H7G10076   4.786   6.088   9.797 -0.4361 -0.2154 -0.7364
  100OSM    C8F10077   4.931   6.021   9.636  0.3845  0.0414 -0.6006
  100OSM    H8F10078   4.860   5.944   9.598 -1.2070  1.3650 -0.4377
  100OSM    H8G10079   5.008   5.972   9.699  0.4383  1.8550  0.8275
  100OSM    C9F10080   4.997   6.092   9.528  0.2878 -0.6127  0.1046
  100OSM    H9F10081   5.092   6.144   9.549  1.0043 -0.6411 -2.6746
  100OSM   C10F10082   4.953   6.110   9.401 -0.4190  0.4690  0.2526
  100OSM   H10F10083   5.014   6.177   9.338 -0.5650  0.6961  0.3500
  100OSM   C11F10084   4.828   6.055   9.336  0.5544 -0.1527 -0.1703
  100OSM   H11F10085   4.780   5.987   9.409 -0.1093 -0.4179 -0.8406
  100OSM   H11G10086   4.853   6.006   9.239  0.4866  1.4405 -1.0330
  100OSM   C12F10087   4.737   6.173   9.296  0.5728  0.0480  0.3434
  100OSM   H12F10088   4.791   6.227   9.216 -0.0975  1.1912  0.6322
  100OSM   H12G10089   4.715   6.239   9.383  1.4057  0.3147  0.3604
  100OSM   C13F10090   4.606   6.120   9.230 -0.6061  0.2530  0.7293
  100OSM   H13F10091   4.551   6.212   9.203  1.5318  2.0700  2.1910
  100OSM   H13G10092   4.557   6.057   9.308  0.3886  0.3918  1.4866
  100OSM   C14F10093   4.619   6.025   9.111  0.9213 -0.8411 -0.2654
  100OSM   H14F10094   4.720   6.033   9.067  1.4107 -0.0989  0.9691
  100OSM   H14G10095   4.564   6.065   9.023 -0.5351  1.3627  1.5094
  100OSM   C15F10096   4.568   5.880   9.130  0.9189  0.0235  0.0347
  100OSM   H15F10097   4.460   5.884   9.155  1.2991  3.8375  1.7556
  100OSM   H15G10098   4.614   5.835   9.220  0.6169 -1.9289 -0.7413
  100OSM   C16F10099   4.588   5.795   9.008 -0.1744 -0.0071  0.2855
  100OSM   H16F10100   4.693   5.800   8.974 -1.1914 -0.5515 -3.3550
  100OSM   H16G10101   4.527   5.834   8.923 -0.1037  1.6041  0.9482
  100OSM   C17F10102   4.548   5.648   9.029  0.0842  0.3689  0.1668
  100OSM   H17F10103   4.441   5.646   9.061 -0.6750  1.4688 -2.0109
  100OSM   H17G10104   4.607   5.596   9.106  2.2696 -0.4079 -1.9160
  100OSM   C18F10105   4.563   5.570   8.903 -0.0393 -0.0886 -0.9703
  100OSM   H18F10106   4.668   5.577   8.866  0.4027  0.5424  0.3480
  100OSM   H18G10107   4.502   5.620   8.825  0.4529 -0.7284 -1.7784
  100OSM   H18H10108   4.532   5.463   8.912  0.8889 -0.3012 -0.0826
  101OSM      N10109   2.583   0.249  11.120  0.1427 -1.0354  0.2391
  101OSM    C1510110   2.702   0.163  11.108 -0.3170  0.2516 -0.1226
  101OSM   H15A10111   2.667   0.067  11.073  1.4774 -1.0699  1.5023
  101OSM   H15B10112   2.746   0.144  11.205 -0.7125 -0.1549 -0.0197
  101OSM   H15C10113   2.782   0.196  11.044  0.8792 -0.6708  0.8417
  101OSM    C1410114   2.472   0.170  11.189  0.3223  0.5385  0.2854
  101OSM   H14A10115   2.457   0.078  11.134  1.2803 -0.5558  1.7508
  101OSM   H14B10116   2.379   0.223  11.200 -1.0897 -2.0561  2.0731
  101OSM   H14C10117   2.500   0.130  11.286 -0.2433  1.5798  0.8862
  101OSM    C1310118   2.614   0.373  11.197 -0.5457 -1.0566 -0.1928
  101OSM   H13A10119   2.659   0.358  11.294  0.6034  0.8310 -0.3723
  101OSM   H13B10120   2.523   0.425  11.220  0.8326  1.1251  0.6246
  101OSM   H13C10121   2.679   0.445  11.149 -0.5737 -1.0748 -0.2590
  101OSM    C1210122   2.530   0.291  10.982  0.1625 -0.6866  0.3618
  101OSM   H12A10123   2.521   0.206  10.916  0.6028 -0.9998  0.6912
  101OSM   H12B10124   2.608   0.348  10.934 -1.2298  1.4705  0.5242
  101OSM    C1110125   2.394   0.365  10.968 -0.3962  0.6781 -0.0635
  101OSM   H11A10126   2.309   0.325  11.027  0.3066  1.5676  1.6166
  101OSM   H11B10127   2.356   0.356  10.863  3.2296 -1.7912 -1.3600
  101OSM      P10128   2.473   0.615  10.920  0.1531 -0.1744  0.1119
  101OSM    O1310129   2.430   0.749  10.967  0.4323 -0.4505  0.2000
  101OSM    O1410130   2.618   0.597  10.916 -0.2829  0.3285 -0.2686
  101OSM    O1110131   2.401   0.584  10.779 -0.5107  0.9742  0.7543
  101OSM    O1210132   2.420   0.496  11.016  0.5806 -0.5743 -0.2088
  101OSM    C1S10133   2.400   0.669  10.669 -0.0881  0.1831  0.9605
  101OSM    H1S10134   2.503   0.705  10.645  0.3026 -1.1156  0.6348
  101OSM    H1T10135   2.336   0.757  10.693 -0.7211  0.4850 -1.5487
  101OSM     NF10136   2.342   0.693  10.432  0.2037  0.2478  0.3166
  101OSM    HNF10137   2.254   0.732  10.409 -1.0938 -2.5630  0.0803
  101OSM    C2S10138   2.341   0.602  10.541  1.0977  0.4125 -0.6471
  101OSM    H2S10139   2.404   0.515  10.514 -0.2047 -0.7611 -0.0156
  101OSM    C3S10140   2.197   0.540  10.555 -0.4617  0.0720 -0.4444
  101OSM    H3S10141   2.113   0.612  10.571 -0.9324 -0.4898 -0.3345
  101OSM     O310142   2.180   0.475  10.676  0.4051  0.0396  0.5963
  101OSM    HO310143   2.264   0.494  10.718  2.7322  0.0920 -3.5082
  101OSM    C4S10144   2.171   0.446  10.440  0.0526  1.0554 -0.5336
  101OSM    H4S10145   2.137   0.496  10.348 -2.7340 -0.4065 -0.3956
  101OSM    C5S10146   2.184   0.314  10.440 -0.4313  0.0183  0.7039
  101OSM    H5S10147   2.226   0.265  10.528 -1.9812 -1.0437  0.9022
  101OSM    C6S10148   2.168   0.221  10.321 -0.1089 -0.0073  0.8398
  101OSM    H6S10149   2.076   0.161  10.338 -0.9681  0.5724 -1.4022
  101OSM    H6T10150   2.262   0.162  10.317 -0.3821 -0.3858 -0.8142
  101OSM    C7S10151   2.135   0.292  10.186  0.8052  0.2774  0.3875
  101OSM    H7S10152   2.221   0.354  10.155  0.3291  1.3861  1.1899
  101OSM    H7T10153   2.045   0.356  10.201 -0.2514 -1.2775  0.9908
  101OSM    C8S10154   2.112   0.192  10.070  0.9793  0.8527  0.2837
  101OSM    H8S10155   2.042   0.116  10.109  2.2118 -1.3176 -1.4735
  101OSM    H8T10156   2.208   0.139  10.052 -0.5293 -1.4792 -1.3173
  101OSM    C9S10157   2.063   0.250   9.939  0.7925  0.5365  0.2592
  101OSM    H9S10158   2.134   0.328   9.903  0.8137 -0.0917 -1.1324
  101OSM    H9T10159   1.961   0.290   9.955 -0.2476 -1.6708 -0.4587
  101OSM   C10S10160   2.052   0.146   9.829  0.4818 -0.3738  0.3931
  101OSM   H10S10161   1.994   0.059   9.865  0.0533 -0.0440  0.5124
  101OSM   H10T10162   2.156   0.119   9.800 -0.0174 -0.5580 -1.2942
  101OSM   C11S10163   1.974   0.189   9.698 -0.0136 -0.0488 -0.0629
  101OSM   H11S10164   1.995   0.295   9.675  1.0348  0.6376  3.5583
  101OSM   H11T10165   1.864   0.188   9.713  0.0457  1.6049  0.6103
  101OSM   C12S10166   1.998   0.085   9.578  0.2586  0.2741  0.2262
  101OSM   H12S10167   1.969  -0.016   9.615 -0.0603  0.5845  0.8465
  101OSM   H12T10168   2.107   0.068   9.561 -0.3900 -3.4280 -1.1246
  101OSM   C13S10169   1.927   0.122   9.442 -0.6478 -0.3860  0.2000
  101OSM   H13S10170   1.952   0.230   9.430 -0.3598 -0.1998  2.0880
  101OSM   H13T10171   1.818   0.109   9.453 -0.4949 -1.8334  0.1332
  101OSM   C14S10172   1.985   0.037   9.321 -0.3236  0.5069  0.2243
  101OSM   H14S10173   2.091   0.063   9.301 -0.2866  1.2991  1.3641
  101OSM   H14T10174   1.929   0.068   9.230 -1.4274  0.0965  0.7372
  101OSM   C15S10175   1.967  -0.118   9.351  0.2215 -0.5060 -0.3556
  101OSM   H15S10176   1.860  -0.135   9.378 -0.0342 -0.2539 -1.1837
  101OSM   H15T10177   2.026  -0.137   9.443 -0.2109  1.6880  0.4265
  101OSM   C16S10178   2.022  -0.221   9.245 -0.4540 -0.4303 -0.0891
  101OSM   H16S10179   2.039  -0.319   9.293 -0.4786  1.0453  3.2311
  101OSM   H16T10180   2.118  -0.173   9.216 -0.8817  1.5057  1.4390
  101OSM   C17S10181   1.932  -0.245   9.124  0.6650 -0.1851 -0.6241
  101OSM   H17S10182   1.910  -0.147   9.075 -1.1244 -1.3419 -2.3125
  101OSM   H17T10183   1.842  -0.300   9.158  1.0078 -1.1048 -1.1598
  101OSM   C18S10184   1.987  -0.336   9.017  0.1658  0.5615 -0.3901
  101OSM   H18S10185   1.899  -0.377   8.964  2.0047 -3.1972 -0.8419
  101OSM   H18T10186   2.038  -0.423   9.063 -0.8401  0.8539  1.3632
  101OSM   H18U10187   2.057  -0.289   8.944 -0.0612  0.2206 -0.8295
  101OSM    C1F10188   2.452   0.737  10.371  0.6758 -0.1151 -0.1946
  101OSM     OF10189   2.558   0.698  10.406 -0.2453 -0.1891 -0.3444
  101OSM    C2F10190   2.426   0.839  10.263 -0.1019 -0.0247 -1.2679
  101OSM    H2F10191   2.424   0.938  10.314 -0.5268 -1.5109  1.8762
  101OSM    H2G10192   2.326   0.826  10.216 -1.0546 -2.9225  1.1981
  101OSM    C3F10193   2.538   0.828  10.157 -0.4236  0.3834  0.5093
  101OSM    H3F10194   2.637   0.827  10.207 -0.8109  2.8889  1.4954
  101OSM    H3G10195   2.539   0.919  10.094 -1.4600  0.3633  0.4439
  101OSM    C4F10196   2.524   0.708  10.067 -0.0314 -0.0558 -0.0139
  101OSM    H4F10197   2.599   0.717   9.985 -0.2635  0.9109 -0.1238
  101OSM    H4G10198   2.419   0.700  10.032  0.4632  0.7118 -1.7935
  101OSM    C5F10199   2.575   0.574  10.133 -0.4902 -0.2535  0.3880
  101OSM    H5F10200   2.505   0.524  10.203 -1.4130  0.8420  0.2761
  101OSM    H5G10201   2.668   0.595  10.189 -2.3418  0.0408  3.5497
  101OSM    C6F10202   2.616   0.471  10.023  0.1160 -0.0169 -0.8034
  101OSM    H6F10203   2.686   0.516   9.950  0.7317 -1.2259 -0.9799
  101OSM    H6G10204   2.670   0.385  10.068 -0.9197  0.0632  0.6598
  101OSM    C7F10205   2.502   0.419   9.952  0.3801 -0.9718 -0.5073
  101OSM    H7F10206   2.450   0.495   9.890  0.2485 -1.7634 -1.3776
  101OSM    H7G10207   2.444   0.377  10.037  0.8067 -0.8820 -0.1643
  101OSM    C8F10208   2.540   0.291   9.864  1.0571 -0.5135  0.5399
  101OSM    H8F10209   2.561   0.204   9.930  1.1943 -0.8502  0.0622
  101OSM    H8G10210   2.634   0.315   9.810  0.7333 -1.1325 -0.3315
  101OSM    C9F10211   2.425   0.260   9.771 -0.1686 -0.7754 -0.5539
  101OSM    H9F10212   2.329   0.273   9.824  0.4586  2.8690 -0.0614
  101OSM   C10F10213   2.427   0.224   9.639 -0.0422  0.5536 -1.4214
  101OSM   H10F10214   2.326   0.203   9.601 -0.5293 -2.4162  1.0840
  101OSM   C11F10215   2.544   0.202   9.550  0.5122  0.8304 -0.7508
  101OSM   H11F10216   2.581   0.099   9.529 -0.0382  0.2183  1.0862
  101OSM   H11G10217   2.629   0.259   9.591 -1.8673  1.6179  3.6704
  101OSM   C12F10218   2.506   0.251   9.405  0.0499  0.1470 -0.1434
  101OSM   H12F10219   2.475   0.357   9.412  1.4905  0.5160  1.0675
  101OSM   H12G10220   2.427   0.181   9.369 -1.8642  1.3748  1.4624
  101OSM   C13F10221   2.622   0.249   9.314  0.1547  0.1226  0.4686
  101OSM   H13F10222   2.697   0.171   9.341 -0.3924 -0.5127  0.1655
  101OSM   H13G10223   2.682   0.341   9.328  0.0084  0.1668  0.8001
  101OSM   C14F10224   2.597   0.240   9.164 -0.3468 -0.2962 -0.2102
  101OSM   H14F10225   2.697   0.265   9.121 -0.7127 -0.3582 -1.1103
  101OSM   H14G10226   2.518   0.314   9.141  0.3518  0.2683 -0.8296
  101OSM   C15F10227   2.561   0.107   9.103 -0.1117 -0.1894 -0.2763
  101OSM   H15F10228   2.478   0.054   9.154  1.3577 -2.1560  0.1889
  101OSM   H15G10229   2.655   0.051   9.125  0.0757  0.2113 -0.0500
  101OSM   C16F10230   2.546   0.097   8.947 -0.7671  0.3574 -0.4443
  101OSM   H16F10231   2.639   0.138   8.901 -1.0409 -0.0881 -1.4246
  101OSM   H16G10232   2.457   0.160   8.926 -1.0237  0.3987  0.7194
  101OSM   C17F10233   2.536  -0.050   8.897 -0.3218 -0.5717 -0.5420
  101OSM   H17F10234   2.456  -0.105   8.951  0.9751 -0.3509  1.7569
  101OSM   H17G10235   2.634  -0.090   8.928 -0.7453  0.1039  1.9212
  101OSM   C18F10236   2.504  -0.060   8.747 -1.0486  0.0624 -0.2236
  101OSM   H18F10237   2.398  -0.034   8.724 -0.9060 -0.2632 -1.2835
  101OSM   H18G10238   2.531  -0.160   8.709  0.1764  0.5177 -0.6028
  101OSM   H18H10239   2.564   0.016   8.692 -1.5680 -0.0966 -1.0208
  102OSM      N10240   5.503   0.854  10.560  0.0280 -0.2509  0.1868
  102OSM    C1510241   5.483   0.852  10.412 -0.2558 -0.4206  0.4992
  102OSM   H15A10242   5.545   0.935  10.381  0.1496 -0.7326  0.4565
  102OSM   H15B10243   5.383   0.879  10.382 -0.1840 -0.0605  0.5823
  102OSM   H15C10244   5.505   0.759  10.361 -2.0131  0.0052 -1.1506
  102OSM    C1410245   5.405   0.755  10.623  0.6617 -0.1705  1.0806
  102OSM   H14A10246   5.433   0.712  10.718  1.4986 -2.9634 -0.3079
  102OSM   H14B10247   5.396   0.671  10.556 -0.0562 -0.0912  1.0682
  102OSM   H14C10248   5.305   0.796  10.632  1.2977  1.6204  0.4606
  102OSM    C1310249   5.634   0.801  10.589  0.2022  0.1642 -0.0295
  102OSM   H13A10250   5.657   0.785  10.693 -0.5073  3.7117  0.7871
  102OSM   H13B10251   5.712   0.864  10.549  1.5053  1.0693  3.5663
  102OSM   H13C10252   5.647   0.705  10.540 -1.5835 -0.6028  0.9146
  102OSM    C1210253   5.498   0.992  10.628  0.2189  0.4511 -0.2831
  102OSM   H12A10254   5.595   1.034  10.602 -0.6803  1.8240 -1.5913
  102OSM   H12B10255   5.492   0.966  10.733 -0.1807 -0.7942 -0.6016
  102OSM    C1110256   5.388   1.091  10.581 -0.0474  0.2636 -0.2942
  102OSM   H11A10257   5.434   1.130  10.487 -3.1467 -1.0798 -2.5686
  102OSM   H11B10258   5.375   1.175  10.651 -2.9366  0.1029 -0.4985
  102OSM      P10259   5.140   1.037  10.654 -0.0210  0.0635 -0.2431
  102OSM    O1310260   5.024   0.976  10.593  0.5442 -0.0076 -0.4237
  102OSM    O1410261   5.188   0.980  10.782  0.0156 -0.1943 -0.4591
  102OSM    O1110262   5.114   1.192  10.666  0.1228  0.3685  0.7319
  102OSM    O1210263   5.264   1.030  10.555  0.1050 -0.3022  0.1864
  102OSM    C1S10264   5.120   1.282  10.553 -0.3633  0.1413 -0.4565
  102OSM    H1S10265   5.217   1.274  10.499 -0.0196 -1.0899  0.3041
  102OSM    H1T10266   5.131   1.388  10.585 -1.0531  0.6308 -1.7754
  102OSM     NF10267   5.032   1.352  10.337 -0.1332  0.2246 -0.2017
  102OSM    HNF10268   4.987   1.441  10.331  0.5398  0.6059  0.3339
  102OSM    C2S10269   5.000   1.270  10.452 -0.4575 -0.0626  0.0515
  102OSM    H2S10270   4.997   1.164  10.417  1.6826  0.4627 -1.9944
  102OSM    C3S10271   4.867   1.301  10.522  0.3103 -0.2955  0.4322
  102OSM    H3S10272   4.877   1.409  10.547 -0.3403  0.4799 -2.3108
  102OSM     O310273   4.838   1.230  10.639  0.4501  0.3021  0.2828
  102OSM    HO310274   4.913   1.173  10.659  0.5010  0.6684  1.2082
  102OSM    C4S10275   4.752   1.303  10.417 -0.6875  0.5198 -0.1270
  102OSM    H4S10276   4.754   1.389  10.348  2.8043  0.7944  0.1397
  102OSM    C5S10277   4.659   1.211  10.397  0.0908  0.1240  0.1763
  102OSM    H5S10278   4.672   1.117  10.453 -0.3467  1.4731  2.6479
  102OSM    C6S10279   4.558   1.223  10.287 -0.7662  0.0706  0.2471
  102OSM    H6S10280   4.462   1.227  10.342  0.2096 -4.9159  2.8366
  102OSM    H6T10281   4.561   1.131  10.225  0.6377  0.3321 -0.1266
  102OSM    C7S10282   4.580   1.336  10.184 -0.1062  0.2817 -0.5741
  102OSM    H7S10283   4.685   1.323  10.149  0.8464  0.9454  1.7826
  102OSM    H7T10284   4.575   1.439  10.226  1.2150  0.6616 -1.2879
  102OSM    C8S10285   4.475   1.330  10.072  0.3390  0.5187 -0.2553
  102OSM    H8S10286   4.402   1.411  10.096  0.0339  0.9241 -2.3451
  102OSM    H8T10287   4.406   1.246  10.049  0.7590  0.2130 -0.4112
  102OSM    C9S10288   4.532   1.366   9.930  0.1320 -0.1883 -0.1386
  102OSM    H9S10289   4.591   1.280   9.893  1.8114  0.7200  0.2820
  102OSM    H9T10290   4.608   1.446   9.944  0.4795 -0.9616  3.7745
  102OSM   C10S10291   4.434   1.407   9.824  0.6962 -0.5956 -0.6470
  102OSM   H10S10292   4.363   1.488   9.849 -0.6266 -1.6221 -0.9482
  102OSM   H10T10293   4.380   1.313   9.800  0.9104 -1.0275  0.5166
  102OSM   C11S10294   4.490   1.443   9.684 -0.2780 -0.4683  0.0959
  102OSM   H11S10295   4.554   1.365   9.638 -2.9643 -1.7371 -1.8323
  102OSM   H11T10296   4.548   1.537   9.697 -0.4000 -0.5644  1.3835
  102OSM   C12S10297   4.385   1.463   9.574  0.2601  0.2541 -0.5427
  102OSM   H12S10298   4.331   1.559   9.586  2.3393  1.2451  1.4923
  102OSM   H12T10299   4.314   1.377   9.582 -0.1250  0.5422 -0.8092
  102OSM   C13S10300   4.445   1.442   9.437 -0.3390 -0.6117  0.6654
  102OSM   H13S10301   4.461   1.335   9.411  1.1944  0.0875 -1.5887
  102OSM   H13T10302   4.542   1.495   9.424  0.0163 -1.6350 -1.1732
  102OSM   C14S10303   4.349   1.500   9.319 -0.5739  0.3752 -0.4090
  102OSM   H14S10304   4.356   1.611   9.308 -1.2334  0.4076 -0.5496
  102OSM   H14T10305   4.244   1.471   9.341 -0.2864  0.9241  2.0956
  102OSM   C15S10306   4.402   1.449   9.189  0.1488 -0.5305 -0.3568
  102OSM   H15S10307   4.402   1.338   9.188  1.9376 -0.6005  1.4266
  102OSM   H15T10308   4.509   1.479   9.195 -0.3270  1.3071 -0.2969
  102OSM   C16S10309   4.339   1.507   9.065  0.7808  0.0435 -0.1562
  102OSM   H16S10310   4.344   1.617   9.052  0.7071 -0.0149 -0.7169
  102OSM   H16T10311   4.229   1.487   9.070  1.0253 -1.1379  2.9635
  102OSM   C17S10312   4.387   1.439   8.934 -0.5194  0.0333 -0.5173
  102OSM   H17S10313   4.325   1.462   8.846 -0.8350 -0.1536 -0.3438
  102OSM   H17T10314   4.377   1.329   8.944 -0.5369  0.1742  1.4052
  102OSM   C18S10315   4.531   1.484   8.899  0.2549  0.2454 -0.0763
  102OSM   H18S10316   4.560   1.446   8.798  1.2869 -1.1955  0.7206
  102OSM   H18T10317   4.617   1.461   8.965  1.6241 -0.1849 -1.9277
  102OSM   H18U10318   4.535   1.593   8.882 -2.0673  0.5874  1.1309
  102OSM    C1F10319   5.129   1.337  10.246 -1.0841  0.3851 -0.0821
  102OSM     OF10320   5.228   1.265  10.265  0.0945 -0.5380  0.1710
  102OSM    C2F10321   5.126   1.430  10.132 -0.1464 -0.5694 -0.0164
  102OSM    H2F10322   5.202   1.401  10.057  0.8489  0.3175  0.6116
  102OSM    H2G10323   5.158   1.531  10.168 -0.2117 -0.0561 -1.3329
  102OSM    C3F10324   4.986   1.439  10.064 -0.2000  0.5178  0.5066
  102OSM    H3F10325   4.909   1.479  10.134  0.0251 -2.4963  2.7009
  102OSM    H3G10326   4.947   1.338  10.039  1.9382 -0.6084  1.4508
  102OSM    C4F10327   4.986   1.533   9.939  0.4664 -0.0569 -0.8408
  102OSM    H4F10328   4.996   1.641   9.963 -0.7708  0.0973 -0.9423
  102OSM    H4G10329   4.880   1.527   9.907 -0.1226  0.8950  0.7742
  102OSM    C5F10330   5.071   1.484   9.821 -0.7767  0.1996  0.3589
  102OSM    H5F10331   5.074   1.375   9.804 -0.6874 -0.3411  3.3287
  102OSM    H5G10332   5.172   1.523   9.847 -0.2038  0.8478 -2.4662
  102OSM    C6F10333   5.044   1.556   9.695  0.7773 -0.6053 -0.4786
  102OSM    H6F10334   5.047   1.666   9.714 -0.6886 -0.3537 -1.5373
  102OSM    H6G10335   4.944   1.531   9.654  1.1882  0.0001 -1.8998
  102OSM    C7F10336   5.148   1.537   9.593 -0.4438 -0.0582  0.0559
  102OSM    H7F10337   5.163   1.428   9.575  1.8525 -0.3577  2.9654
  102OSM    H7G10338   5.247   1.568   9.633  0.1038 -0.2635 -1.1163
  102OSM    C8F10339   5.120   1.623   9.465  0.2477  0.0423 -0.0868
  102OSM    H8F10340   5.210   1.632   9.401 -0.4963  0.5144 -1.1150
  102OSM    H8G10341   5.099   1.725   9.504 -1.8929 -1.6084  3.5135
  102OSM    C9F10342   5.009   1.574   9.371 -0.1402 -0.4547 -0.3896
  102OSM    H9F10343   4.918   1.555   9.429 -1.5839  3.9833 -0.8005
  102OSM   C10F10344   5.007   1.556   9.239  0.5838  1.0431  0.3089
  102OSM   H10F10345   4.915   1.508   9.201  0.3179  2.3810 -0.8429
  102OSM   C11F10346   5.117   1.573   9.138 -0.1584  0.2823 -0.8343
  102OSM   H11F10347   5.196   1.495   9.145  0.6131  0.8872 -2.2467
  102OSM   H11G10348   5.156   1.675   9.156  1.3630 -0.5663  1.0426
  102OSM   C12F10349   5.071   1.569   8.987  0.8073 -0.2377 -0.0946
  102OSM   H12F10350   5.145   1.639   8.942  0.4859  1.0679  1.3150
  102OSM   H12G10351   4.969   1.611   8.973  1.4953  1.8422  0.7679
  102OSM   C13F10352   5.080   1.424   8.937 -0.2048 -0.1738  0.0527
  102OSM   H13F10353   4.995   1.368   8.982  1.1334 -2.3235  0.0319
  102OSM   H13G10354   5.180   1.380   8.956  0.8696  0.7287 -2.9484
  102OSM   C14F10355   5.065   1.417   8.783  0.9118 -0.9569 -0.9636
  102OSM   H14F10356   5.134   1.488   8.733 -0.4626  0.6409 -0.6872
  102OSM   H14G10357   4.959   1.443   8.758  0.6783 -2.6109 -1.8425
  102OSM   C15F10358   5.094   1.274   8.746 -0.1523 -0.0941  0.6812
  102OSM   H15F10359   5.013   1.210   8.787 -0.1054  0.0696  1.0344
  102OSM   H15G10360   5.200   1.252   8.771  0.5866  0.6883 -1.5377
  102OSM   C16F10361   5.073   1.261   8.592 -0.3188 -0.0586 -0.5326
  102OSM   H16F10362   5.146   1.329   8.543  2.3071 -0.7317  2.1413
  102OSM   H16G10363   4.980   1.298   8.545 -0.1156  0.4164 -0.5725
  102OSM   C17F10364   5.097   1.117   8.541  0.4195  0.4834  0.5426
  102OSM   H17F10365   5.024   1.041   8.577 -0.9824  1.5452  0.0622
  102OSM   H17G10366   5.198   1.089   8.576  1.4597  3.3838  0.1249
  102OSM   C18F10367   5.091   1.105   8.382 -0.3086 -0.8174  0.3133
  102OSM   H18F10368   5.150   1.187   8.335  0.3561 -0.0740  2.3422
  102OSM   H18G10369   4.985   1.120   8.352 -0.4767 -0.1836  1.1938
  102OSM   H18H10370   5.129   1.005   8.351 -0.9038 -0.8106 -0.4556
  103OSM      N10371   2.340   5.507  10.727 -0.7303  0.1233  0.3841
  103OSM    C1510372   2.215   5.441  10.675 -0.4034  0.4365  0.3342
  103OSM   H15A10373   2.162   5.388  10.753  1.3640 -0.3328  1.0456
  103OSM   H15B10374   2.249   5.368  10.603 -1.6407 -0.8419  0.9970
  103OSM   H15C10375   2.156   5.512  10.619  0.5657  0.9659 -0.0190
  103OSM    C1410376   2.398   5.599  10.626 -0.3601  0.3642  0.0761
  103OSM   H14A10377   2.433   5.537  10.546 -0.7989 -0.0597  0.2070
  103OSM   H14B10378   2.466   5.666  10.676 -2.5930  2.2309  0.8456
  103OSM   H14C10379   2.324   5.670  10.590 -0.5870  1.0690  1.7949
  103OSM    C1310380   2.280   5.581  10.841  0.3174 -0.3408 -0.3502
  103OSM   H13A10381   2.249   5.499  10.903 -1.6323 -0.7743 -1.7893
  103OSM   H13B10382   2.205   5.652  10.808  2.3562  1.6545 -1.0180
  103OSM   H13C10383   2.351   5.644  10.892 -0.3988  1.7082 -1.7547
  103OSM    C1210384   2.432   5.404  10.775 -0.2209  0.0338  0.0947
  103OSM   H12A10385   2.476   5.353  10.690 -3.5416 -2.3843 -0.3731
  103OSM   H12B10386   2.391   5.321  10.831  3.3128 -1.3441  0.9153
  103OSM    C1110387   2.541   5.458  10.867  0.2999  0.2555 -0.2144
  103OSM   H11A10388   2.499   5.489  10.965 -0.5867 -1.5002  0.0044
  103OSM   H11B10389   2.588   5.550  10.827 -0.2161  0.8177  0.4497
  103OSM      P10390   2.784   5.359  10.866  0.0937  0.6310  0.5708
  103OSM    O1310391   2.856   5.456  10.951 -0.3761  0.6351  0.3096
  103OSM    O1410392   2.840   5.216  10.866  0.8188 -0.8847 -0.2849
  103OSM    O1110393   2.774   5.400  10.715  0.1976 -0.1056  0.4512
  103OSM    O1210394   2.630   5.347  10.913  0.0471 -0.0326  0.6864
  103OSM    C1S10395   2.893   5.438  10.651 -0.6555 -0.1099 -0.2015
  103OSM    H1S10396   2.985   5.378  10.669 -2.0881 -2.5942 -0.7547
  103OSM    H1T10397   2.907   5.546  10.674  1.2413  0.2248 -2.5178
  103OSM     NF10398   3.003   5.414  10.429  0.3450  0.6052 -0.5762
  103OSM    HNF10399   3.045   5.496  10.391  0.0997  1.3756  0.7541
  103OSM    C2S10400   2.876   5.438  10.499  0.3077 -0.0977 -0.1877
  103OSM    H2S10401   2.817   5.348  10.471 -1.2689  1.1062 -0.8767
  103OSM    C3S10402   2.787   5.553  10.441  0.5246 -0.0116  0.2701
  103OSM    H3S10403   2.850   5.645  10.440  1.3014 -0.5361 -0.0990
  103OSM     O310404   2.674   5.583  10.516  0.9034 -0.3255 -0.2273
  103OSM    HO310405   2.681   5.532  10.597 -4.1335 -2.3188 -0.6955
  103OSM    C4S10406   2.752   5.526  10.294  0.2169 -0.1422 -0.4349
  103OSM    H4S10407   2.847   5.532  10.240  1.4988  1.2233  1.8132
  103OSM    C5S10408   2.638   5.480  10.232  0.2488 -0.4336  0.0621
  103OSM    H5S10409   2.544   5.448  10.281 -0.0136  0.4696  0.1554
  103OSM    C6S10410   2.629   5.442  10.085 -0.3477  0.4507  0.4435
  103OSM    H6S10411   2.519   5.444  10.066 -0.3155 -1.2253 -0.1489
  103OSM    H6T10412   2.662   5.337  10.068  1.4102  1.1215 -0.3934
  103OSM    C7S10413   2.702   5.531   9.987  0.0008 -0.1788  0.6118
  103OSM    H7S10414   2.808   5.532  10.021 -0.3559  0.0392  1.7586
  103OSM    H7T10415   2.669   5.637   9.990  3.4123  0.9847  1.5840
  103OSM    C8S10416   2.672   5.479   9.843  0.5918  1.2273 -0.1674
  103OSM    H8S10417   2.563   5.483   9.826  0.5936  0.3688 -0.4781
  103OSM    H8T10418   2.711   5.374   9.846  0.4573  1.1519 -0.7699
  103OSM    C9S10419   2.757   5.554   9.737 -0.2422  0.3449 -0.3218
  103OSM    H9S10420   2.866   5.568   9.755 -0.2621  1.1558 -0.7741
  103OSM    H9T10421   2.718   5.658   9.739 -0.6570  0.2118 -1.3198
  103OSM   C10S10422   2.748   5.490   9.597 -0.0277  0.1582  0.5726
  103OSM   H10S10423   2.644   5.502   9.561  0.1391  1.9433  0.6323
  103OSM   H10T10424   2.767   5.380   9.593  1.0069  0.2321  2.3280
  103OSM   C11S10425   2.846   5.557   9.491  0.5794 -0.4119 -0.6394
  103OSM   H11S10426   2.824   5.510   9.393  1.6186  0.5005 -1.3502
  103OSM   H11T10427   2.952   5.547   9.523  0.8623  4.5486  0.8085
  103OSM   C12S10428   2.821   5.713   9.477  0.1073 -0.2785 -0.6873
  103OSM   H12S10429   2.897   5.742   9.401  0.9743 -0.9302 -0.0866
  103OSM   H12T10430   2.849   5.773   9.567 -1.8733  0.1541 -0.3173
  103OSM   C13S10431   2.675   5.732   9.429  0.1734 -0.6464  0.1741
  103OSM   H13S10432   2.604   5.702   9.509 -0.7168  0.0125 -0.3577
  103OSM   H13T10433   2.667   5.664   9.342  4.4303 -0.8049 -0.2819
  103OSM   C14S10434   2.646   5.875   9.383  0.3294 -0.4210 -0.4298
  103OSM   H14S10435   2.537   5.874   9.361 -0.1579 -0.1444  1.6862
  103OSM   H14T10436   2.699   5.896   9.288 -2.2577 -0.1138 -1.9110
  103OSM   C15S10437   2.680   5.983   9.490 -0.0369  0.0160 -0.5579
  103OSM   H15S10438   2.790   5.983   9.507 -0.1304  0.5109  0.0613
  103OSM   H15T10439   2.632   5.945   9.582  0.6921 -0.0658 -0.2013
  103OSM   C16S10440   2.624   6.116   9.448  0.1024 -0.2593 -0.1175
  103OSM   H16S10441   2.604   6.183   9.535  1.7792  1.0338 -0.6679
  103OSM   H16T10442   2.533   6.097   9.387  0.9001  1.1959 -1.8815
  103OSM   C17S10443   2.723   6.202   9.366  0.9871  0.4541  0.1447
  103OSM   H17S10444   2.684   6.307   9.359 -0.1103  0.0395 -0.2206
  103OSM   H17T10445   2.712   6.173   9.259 -1.0667 -0.0069  0.4379
  103OSM   C18S10446   2.874   6.198   9.404 -0.0749  0.3942  0.5075
  103OSM   H18S10447   2.932   6.276   9.350 -0.5653 -0.7267 -1.7325
  103OSM   H18T10448   2.922   6.101   9.381 -0.6674 -0.0779  1.2259
  103OSM   H18U10449   2.874   6.210   9.514 -2.3931  1.8784  0.4195
  103OSM    C1F10450   3.074   5.294  10.427 -0.0196 -0.0962 -0.5204
  103OSM     OF10451   3.029   5.198  10.498  0.1218  0.3787  0.0610
  103OSM    C2F10452   3.187   5.277  10.335  0.4120  1.2755 -0.0699
  103OSM    H2F10453   3.188   5.172  10.301  0.8560  0.9309  0.9815
  103OSM    H2G10454   3.280   5.302  10.391 -0.2051  0.3135  1.4424
  103OSM    C3F10455   3.168   5.365  10.208  0.2924 -0.6900 -1.0220
  103OSM    H3F10456   3.180   5.471  10.240  1.3549 -1.4073  1.1847
  103OSM    H3G10457   3.060   5.368  10.184 -0.6679  1.1370  2.7568
  103OSM    C4F10458   3.269   5.324  10.102 -0.1970 -0.2767  0.0414
  103OSM    H4F10459   3.244   5.226  10.057  0.5517  0.7883 -2.9122
  103OSM    H4G10460   3.375   5.332  10.134  0.1513 -0.3429 -1.0487
  103OSM    C5F10461   3.281   5.438   9.998  0.1714  0.1753  0.0274
  103OSM    H5F10462   3.314   5.529  10.052 -0.5237  0.8478 -0.6604
  103OSM    H5G10463   3.177   5.456   9.966  0.0906  0.6448  0.5383
  103OSM    C6F10464   3.392   5.410   9.899  0.2255 -0.2306 -0.2540
  103OSM    H6F10465   3.377   5.303   9.872  0.3227 -0.3000 -0.0389
  103OSM    H6G10466   3.493   5.410   9.947  0.7651 -0.1910 -1.3451
  103OSM    C7F10467   3.375   5.482   9.763  0.1857  0.3962 -0.2545
  103OSM    H7F10468   3.400   5.589   9.782  1.6628  0.0751 -0.2405
  103OSM    H7G10469   3.268   5.476   9.737  0.0035  0.8278  0.3637
  103OSM    C8F10470   3.463   5.430   9.657 -0.2589 -0.2600  0.0167
  103OSM    H8F10471   3.447   5.321   9.645 -3.2329 -0.0494  1.1441
  103OSM    H8G10472   3.567   5.445   9.691 -0.5024  0.8978  0.3256
  103OSM    C9F10473   3.435   5.488   9.527  0.1111  0.2107 -0.4261
  103OSM    H9F10474   3.343   5.549   9.524  0.5939  0.9199 -1.2843
  103OSM   C10F10475   3.499   5.478   9.414 -0.1570  0.2276 -0.0359
  103OSM   H10F10476   3.457   5.533   9.328  1.8988  1.5299 -0.2812
  103OSM   C11F10477   3.636   5.410   9.405  0.0784  0.2934  1.0043
  103OSM   H11F10478   3.627   5.301   9.427 -2.3652  0.4295  0.9632
  103OSM   H11G10479   3.711   5.460   9.470  1.6898 -1.4679  0.5819
  103OSM   C12F10480   3.701   5.428   9.261 -0.0968  0.5952 -0.0670
  103OSM   H12F10481   3.806   5.392   9.261 -0.5130 -0.6857 -0.6449
  103OSM   H12G10482   3.706   5.535   9.231 -0.4909  0.6641  0.1059
  103OSM   C13F10483   3.639   5.348   9.145  0.0338  0.0156  0.1902
  103OSM   H13F10484   3.536   5.387   9.124  1.2276  2.8819 -0.8769
  103OSM   H13G10485   3.639   5.239   9.167  1.0938  0.0046  0.1498
  103OSM   C14F10486   3.702   5.360   9.007  0.5986  0.0453  0.7360
  103OSM   H14F10487   3.804   5.317   9.015  0.5840 -0.4568 -1.4370
  103OSM   H14G10488   3.713   5.468   8.981  1.5414  0.1418  1.4562
  103OSM   C15F10489   3.614   5.290   8.905  0.4300 -0.0312  0.2758
  103OSM   H15F10490   3.511   5.330   8.891  0.6145  0.0489 -0.9573
  103OSM   H15G10491   3.605   5.186   8.943 -1.6823  1.1319  3.3134
  103OSM   C16F10492   3.663   5.290   8.759  0.4284  0.6346  0.1798
  103OSM   H16F10493   3.634   5.385   8.710 -0.6280  0.6697  0.8517
  103OSM   H16G10494   3.608   5.206   8.711  3.5942  0.1389 -2.9900
  103OSM   C17F10495   3.811   5.251   8.739  0.0819  0.5522 -0.1218
  103OSM   H17F10496   3.838   5.154   8.785  0.9075  0.9608  0.2792
  103OSM   H17G10497   3.880   5.323   8.789  1.9245 -1.2886  0.1289
  103OSM   C18F10498   3.861   5.246   8.591  0.4719 -0.3215 -0.2756
  103OSM   H18F10499   3.824   5.153   8.543  1.3364  0.1557 -1.9575
  103OSM   H18G10500   3.970   5.263   8.597  0.5751 -1.3994  1.4896
  103OSM   H18H10501   3.820   5.337   8.540 -1.2268 -1.0693 -0.3255
  104OSM      N10502   3.655   3.851  11.001  0.0135  0.4986  0.1019
  104OSM    C1510503   3.686   3.780  11.125 -0.2462 -0.2795 -0.0063
  104OSM   H15A10504   3.789   3.781  11.156 -0.3287 -0.0285  0.2662
  104OSM   H15B10505   3.677   3.673  11.110  0.6840 -0.2362 -0.9384
  104OSM   H15C10506   3.640   3.814  11.217  1.3167 -0.1818  0.7601
  104OSM    C1410507   3.520   3.809  10.952  0.0781 -0.0163  0.0087
  104OSM   H14A10508   3.520   3.708  10.914 -0.7072  0.3088 -0.8827
  104OSM   H14B10509   3.490   3.865  10.865 -1.4514  0.1001  0.5748
  104OSM   H14C10510   3.455   3.808  11.039  1.1085 -2.1732  0.8358
  104OSM    C1310511   3.654   3.994  11.033  0.1284  0.6893  0.4145
  104OSM   H13A10512   3.720   4.020  11.115 -0.8316 -0.1764  1.5002
  104OSM   H13B10513   3.553   4.025  11.057 -0.5799 -0.3736 -1.0370
  104OSM   H13C10514   3.681   4.047  10.943 -1.3182  0.2431 -0.3115
  104OSM    C1210515   3.771   3.817  10.900 -0.8923  1.0084 -0.3886
  104OSM   H12A10516   3.751   3.721  10.855  0.8501  1.3700 -2.0794
  104OSM   H12B10517   3.859   3.808  10.963 -0.2166 -1.4806 -1.5638
  104OSM    C1110518   3.804   3.902  10.775 -0.7156 -0.7410 -0.4932
  104OSM   H11A10519   3.713   3.917  10.713  0.3107 -1.6647 -2.3074
  104OSM   H11B10520   3.885   3.847  10.723  1.2630  2.6535 -1.3145
  104OSM      P10521   3.995   4.047  10.877  0.3505  0.1213 -0.1684
  104OSM    O1310522   4.006   4.186  10.929  0.2032  0.7614 -0.0852
  104OSM    O1410523   4.032   3.933  10.972  0.5798 -0.1692  1.0111
  104OSM    O1110524   4.094   4.016  10.753 -0.3684  0.4678 -0.3224
  104OSM    O1210525   3.852   4.028  10.813 -0.2711 -0.3734 -0.1948
  104OSM    C1S10526   4.073   4.049  10.617  0.0844 -0.1789 -0.1648
  104OSM    H1S10527   4.036   4.154  10.619  0.0373 -0.2059  0.5110
  104OSM    H1T10528   3.996   3.977  10.581 -2.8473  1.3035  2.5897
  104OSM     NF10529   4.185   4.086  10.399 -0.4785 -0.3902  0.4415
  104OSM    HNF10530   4.173   4.016  10.328  0.0333  1.2794 -1.3689
  104OSM    C2S10531   4.208   4.044  10.542  0.0002 -0.2597  0.6777
  104OSM    H2S10532   4.274   4.120  10.589 -1.1055  0.8513  0.4703
  104OSM    C3S10533   4.277   3.903  10.560  0.2145  0.8948 -0.5303
  104OSM    H3S10534   4.198   3.829  10.535  1.5614 -1.1630  0.9653
  104OSM     O310535   4.318   3.870  10.693 -0.0974  0.5410  0.0307
  104OSM    HO310536   4.272   3.934  10.748 -1.3446 -0.3342  0.0560
  104OSM    C4S10537   4.393   3.897  10.481 -0.3805 -0.4713  0.5362
  104OSM    H4S10538   4.481   3.946  10.525  0.9902 -1.5887 -0.7985
  104OSM    C5S10539   4.417   3.826  10.370 -0.3158 -0.1790 -0.7340
  104OSM    H5S10540   4.341   3.752  10.341 -0.9185  0.4168 -0.6921
  104OSM    C6S10541   4.542   3.829  10.288 -0.1590  0.2567 -0.4424
  104OSM    H6S10542   4.584   3.727  10.274  2.2219  1.0182  0.7744
  104OSM    H6T10543   4.616   3.890  10.343 -1.3161  1.9780 -0.7118
  104OSM    C7S10544   4.521   3.905  10.156  0.6572 -0.9768  0.6503
  104OSM    H7S10545   4.499   4.013  10.171  2.9482 -0.3390 -0.1133
  104OSM    H7T10546   4.436   3.863  10.100 -0.7701  1.8345  0.5118
  104OSM    C8S10547   4.644   3.901  10.065  0.4409  0.4601 -0.5324
  104OSM    H8S10548   4.687   3.800  10.085 -0.6950  0.0833  0.1001
  104OSM    H8T10549   4.720   3.976  10.096  1.4496 -0.1451 -1.4572
  104OSM    C9S10550   4.609   3.908   9.913  0.0501  0.4305 -0.6452
  104OSM    H9S10551   4.561   4.000   9.876  1.7553  1.5629 -0.1843
  104OSM    H9T10552   4.538   3.825   9.893  1.4955 -1.7604  2.4432
  104OSM   C10S10553   4.743   3.905   9.837  0.5459  0.9462 -0.0561
  104OSM   H10S10554   4.801   3.812   9.856  1.0041  1.4690  1.2742
  104OSM   H10T10555   4.802   3.992   9.875 -0.0567  1.2708  0.1576
  104OSM   C11S10556   4.729   3.924   9.681  0.7703 -0.5186  0.2775
  104OSM   H11S10557   4.716   4.031   9.657 -0.0235 -0.9803 -1.5676
  104OSM   H11T10558   4.633   3.880   9.646 -0.4761  2.5276 -0.4194
  104OSM   C12S10559   4.846   3.872   9.598  0.1081 -0.1864  0.2715
  104OSM   H12S10560   4.889   3.787   9.656 -1.5860 -0.6804  0.8412
  104OSM   H12T10561   4.934   3.941   9.598 -0.0462  0.0091  0.0219
  104OSM   C13S10562   4.817   3.837   9.453  0.0869  0.0788 -0.3523
  104OSM   H13S10563   4.717   3.791   9.435 -0.5606  1.5019 -0.5054
  104OSM   H13T10564   4.899   3.771   9.417  1.8725  0.3070  2.9173
  104OSM   C14S10565   4.814   3.964   9.365  0.2059 -0.2600 -0.2875
  104OSM   H14S10566   4.829   3.932   9.260 -1.0196  0.1181 -0.6050
  104OSM   H14T10567   4.906   4.022   9.382 -0.9650  1.2882  1.0547
  104OSM   C15S10568   4.687   4.054   9.371  0.0141 -0.0771  0.0210
  104OSM   H15S10569   4.713   4.133   9.298  1.3498 -1.4724 -1.0994
  104OSM   H15T10570   4.678   4.108   9.468 -1.1306 -0.9012  0.3985
  104OSM   C16S10571   4.550   3.992   9.332  0.1997 -0.0454 -0.0426
  104OSM   H16S10572   4.479   4.075   9.354 -0.1294 -0.5158  0.7033
  104OSM   H16T10573   4.543   3.910   9.406 -0.6609 -2.0549 -2.1989
  104OSM   C17S10574   4.525   3.944   9.189 -0.3105  0.7239 -0.1839
  104OSM   H17S10575   4.418   3.926   9.165  0.1048 -2.6678 -0.0019
  104OSM   H17T10576   4.555   3.837   9.179 -0.1939  0.7376  0.0108
  104OSM   C18S10577   4.580   4.027   9.071  0.4581  0.0321  0.3377
  104OSM   H18S10578   4.598   4.134   9.095  1.7909  0.2764 -1.5831
  104OSM   H18T10579   4.510   4.040   8.986  0.6084  1.0314  0.3598
  104OSM   H18U10580   4.675   3.980   9.038  0.0194 -0.4884 -0.2222
  104OSM    C1F10581   4.141   4.213  10.370  0.3087 -0.5074 -0.0999
  104OSM     OF10582   4.140   4.292  10.463 -0.2271  0.2537  0.2116
  104OSM    C2F10583   4.095   4.246  10.227 -0.0198 -0.0397 -0.0301
  104OSM    H2F10584   3.989   4.217  10.213  0.2765 -2.2382  1.5864
  104OSM    H2G10585   4.162   4.188  10.159  0.7944  0.6516  0.1585
  104OSM    C3F10586   4.115   4.390  10.200 -0.2442  0.3653 -0.9156
  104OSM    H3F10587   4.224   4.407  10.213 -0.1102  0.5818 -2.1720
  104OSM    H3G10588   4.054   4.445  10.275  1.2707 -0.4334  0.9899
  104OSM    C4F10589   4.102   4.436  10.050  1.2199  0.9336  0.4485
  104OSM    H4F10590   4.161   4.529  10.045  0.0781  1.6222 -0.9862
  104OSM    H4G10591   3.996   4.464  10.035  0.8205 -0.2931  0.7837
  104OSM    C5F10592   4.147   4.340   9.941  0.2588  0.2364 -0.7399
  104OSM    H5F10593   4.094   4.243   9.952 -0.9944  0.9627 -0.2695
  104OSM    H5G10594   4.255   4.323   9.963  0.9121  0.2400 -3.5439
  104OSM    C6F10595   4.127   4.387   9.796 -0.0287 -0.0248 -0.6119
  104OSM    H6F10596   4.153   4.495   9.802  0.2388 -0.0481 -1.2829
  104OSM    H6G10597   4.022   4.372   9.762 -1.0303  1.2134  1.7114
  104OSM    C7F10598   4.233   4.329   9.696 -0.3867 -0.0987 -0.2254
  104OSM    H7F10599   4.221   4.218   9.692 -1.7690  0.0060  0.3136
  104OSM    H7G10600   4.336   4.339   9.738 -0.6044 -3.0340  1.3098
  104OSM    C8F10601   4.212   4.386   9.559 -0.0196  0.1928 -0.8286
  104OSM    H8F10602   4.243   4.493   9.563  0.0431  0.1923 -1.2713
  104OSM    H8G10603   4.103   4.385   9.540 -0.4132 -0.9258  1.2259
  104OSM    C9F10604   4.298   4.327   9.455 -0.0428  0.4207  0.1589
  104OSM    H9F10605   4.407   4.338   9.466 -0.1057  0.8752  0.3478
  104OSM   C10F10606   4.252   4.263   9.345  0.3352 -0.3801 -0.2701
  104OSM   H10F10607   4.324   4.226   9.271  0.4584  1.6701 -1.2425
  104OSM   C11F10608   4.107   4.248   9.316  0.2373 -0.1908 -0.1308
  104OSM   H11F10609   4.036   4.262   9.401 -2.0329 -1.1044 -1.8006
  104OSM   H11G10610   4.087   4.147   9.275 -0.2664 -0.3927  0.5856
  104OSM   C12F10611   4.065   4.355   9.209 -0.0636  0.2432 -0.8507
  104OSM   H12F10612   4.080   4.458   9.248  0.4229  1.1983 -3.4049
  104OSM   H12G10613   3.956   4.342   9.188  0.1583  0.1417 -1.9872
  104OSM   C13F10614   4.133   4.346   9.072  0.2980 -0.2420  0.0155
  104OSM   H13F10615   4.242   4.366   9.082  0.6821 -0.0877 -3.2922
  104OSM   H13G10616   4.083   4.434   9.025 -1.0535  0.2021  2.1480
  104OSM   C14F10617   4.119   4.207   9.008  0.1432  0.6859  0.0923
  104OSM   H14F10618   4.012   4.186   8.984  0.1380  2.1314 -1.3133
  104OSM   H14G10619   4.161   4.124   9.070 -0.2115  0.9958  0.7597
  104OSM   C15F10620   4.195   4.205   8.873  0.1810 -0.2331 -0.4319
  104OSM   H15F10621   4.289   4.258   8.899  0.6204 -1.6121  0.8492
  104OSM   H15G10622   4.149   4.261   8.788 -0.1389 -0.0655 -0.1505
  104OSM   C16F10623   4.217   4.062   8.818  0.6746  0.5633 -0.2305
  104OSM   H16F10624   4.264   4.006   8.901 -1.6602  0.6895  1.2645
  104OSM   H16G10625   4.282   4.060   8.728 -3.1073 -1.3713 -3.2499
  104OSM   C17F10626   4.096   3.975   8.776  0.2126 -0.4007  0.8555
  104OSM   H17F10627   4.035   3.947   8.865  1.1173 -2.0109  1.0106
  104OSM   H17G10628   4.140   3.878   8.743  1.8884  0.6077 -0.0435
  104OSM   C18F10629   3.996   4.047   8.686 -0.4003 -0.4571  0.5132
  104OSM   H18F10630   3.964   4.145   8.727 -0.0642  0.5848 -1.6058
  104OSM   H18G10631   3.901   3.989   8.676  0.6426 -2.8202  2.8186
  104OSM   H18H10632   4.046   4.086   8.595  0.2360 -0.4923  0.8403
  105OSM      N10633   2.458   1.377  11.103 -0.1453 -0.3188 -0.6293
  105OSM    C1510634   2.556   1.311  11.010 -1.0529  0.3884  0.5557
  105OSM   H15A10635   2.584   1.218  11.056 -1.2237 -0.4233 -0.9392
  105OSM   H15B10636   2.639   1.374  10.981 -0.7033  0.1099  0.9474
  105OSM   H15C10637   2.501   1.290  10.919 -0.7104 -0.1197  0.4636
  105OSM    C1410638   2.338   1.281  11.121 -0.1444  0.0484 -0.4296
  105OSM   H14A10639   2.269   1.317  11.195  2.9829  3.3516  1.1834
  105OSM   H14B10640   2.378   1.187  11.158  1.5349  0.8903 -0.0213
  105OSM   H14C10641   2.301   1.264  11.020  1.3513 -0.6444 -0.9038
  105OSM    C1310642   2.520   1.407  11.237 -0.8428  0.0561  0.4380
  105OSM   H13A10643   2.449   1.450  11.307 -0.8918 -1.1621  1.1783
  105OSM   H13B10644   2.606   1.470  11.225 -0.3113 -1.0046 -1.8203
  105OSM   H13C10645   2.542   1.309  11.278 -1.6865 -0.4827 -0.3539
  105OSM    C1210646   2.398   1.503  11.037  0.1785  0.6437  0.0792
  105OSM   H12A10647   2.476   1.578  11.041 -1.2772  2.4418 -2.3446
  105OSM   H12B10648   2.317   1.540  11.098 -0.2383  0.0666 -0.1275
  105OSM    C1110649   2.359   1.495  10.886  0.9814  0.7939 -0.3645
  105OSM   H11A10650   2.434   1.433  10.833  0.8645 -0.0209  0.3944
  105OSM   H11B10651   2.373   1.594  10.838  1.2022  1.1957  0.5287
  105OSM      P10652   2.100   1.529  10.854  0.1376  0.0885  0.6672
  105OSM    O1310653   1.974   1.448  10.877  0.5711  0.0007  0.1519
  105OSM    O1410654   2.123   1.645  10.939 -0.4453 -0.0726 -0.8346
  105OSM    O1110655   2.102   1.569  10.700  0.1957 -0.4319 -0.5149
  105OSM    O1210656   2.230   1.435  10.865 -0.3390 -0.2964 -0.0927
  105OSM    C1S10657   2.169   1.499  10.596 -0.0021  0.0414 -0.6365
  105OSM    H1S10658   2.181   1.393  10.628 -0.1659  0.5731  1.3468
  105OSM    H1T10659   2.272   1.538  10.588  0.6271 -0.9481  1.6866
  105OSM     NF10660   2.108   1.412  10.375 -0.4245  0.5181 -0.0058
  105OSM    HNF10661   2.168   1.435  10.300  0.2629 -0.7724  0.1124
  105OSM    C2S10662   2.077   1.519  10.468 -0.9800  0.2942 -0.4016
  105OSM    H2S10663   1.970   1.503  10.490 -1.5182 -0.9911 -3.4150
  105OSM    C3S10664   2.092   1.657  10.411 -0.5626 -0.4469 -0.0749
  105OSM    H3S10665   2.198   1.662  10.378 -0.2261 -0.7900  0.9259
  105OSM     O310666   2.063   1.761  10.499  0.1537  0.3473  0.1735
  105OSM    HO310667   2.046   1.711  10.578  0.7282 -0.3520 -0.1382
  105OSM    C4S10668   2.020   1.681  10.275 -0.2951  0.3905  0.4024
  105OSM    H4S10669   2.085   1.688  10.187  0.0447  1.3497  0.7081
  105OSM    C5S10670   1.896   1.703  10.246  0.4339  0.2542  0.6328
  105OSM    H5S10671   1.822   1.697  10.326  0.5292 -2.2268  0.6064
  105OSM    C6S10672   1.842   1.729  10.108 -0.1138  0.5570  0.1205
  105OSM    H6S10673   1.740   1.687  10.100  0.2674 -0.4569  0.4204
  105OSM    H6T10674   1.908   1.682  10.032  0.9143  0.7636  0.8634
  105OSM    C7S10675   1.836   1.880  10.077 -0.3825  0.3117  0.2201
  105OSM    H7S10676   1.934   1.931  10.081 -1.1490  1.7745  1.3075
  105OSM    H7T10677   1.752   1.925  10.135 -1.5568  1.6912 -2.3403
  105OSM    C8S10678   1.778   1.900   9.934 -0.0073  0.0998  0.0009
  105OSM    H8S10679   1.778   2.011   9.932 -0.2301  0.0930 -0.5132
  105OSM    H8T10680   1.668   1.884   9.929  0.1483 -0.8394 -0.5717
  105OSM    C9S10681   1.865   1.841   9.817  0.1631 -0.2835  0.5040
  105OSM    H9S10682   1.869   1.730   9.819 -3.2208 -0.5140  1.1334
  105OSM    H9T10683   1.968   1.880   9.827  0.2656 -0.4804  0.2341
  105OSM   C10S10684   1.818   1.888   9.677  0.8837  0.0109 -0.5156
  105OSM   H10S10685   1.836   1.998   9.667  2.6523 -0.3549 -2.1262
  105OSM   H10T10686   1.708   1.883   9.685  0.9463 -1.3085 -0.2833
  105OSM   C11S10687   1.877   1.813   9.564  0.7672  0.0175 -0.4056
  105OSM   H11S10688   1.877   1.703   9.581  1.9731 -0.1494 -1.3447
  105OSM   H11T10689   1.979   1.851   9.544  1.1730 -1.7614 -2.1024
  105OSM   C12S10690   1.787   1.835   9.439 -0.2391  0.2254 -0.2635
  105OSM   H12S10691   1.785   1.943   9.413  1.2162  0.0799 -1.0820
  105OSM   H12T10692   1.681   1.801   9.449  0.2948 -0.9593  2.5615
  105OSM   C13S10693   1.848   1.763   9.315  0.5418 -0.0751  0.1332
  105OSM   H13S10694   1.776   1.778   9.232 -0.5686 -2.7375  0.5021
  105OSM   H13T10695   1.842   1.652   9.322  1.5545 -0.1193  0.5320
  105OSM   C14S10696   1.983   1.815   9.271 -1.0194 -0.4493  0.0206
  105OSM   H14S10697   2.058   1.822   9.352  0.3022 -1.5920 -1.0536
  105OSM   H14T10698   1.965   1.916   9.229 -0.7440  0.0832  1.1477
  105OSM   C15S10699   2.037   1.739   9.155 -1.2558  0.0349 -0.6982
  105OSM   H15S10700   1.965   1.686   9.089 -0.6151 -1.5088 -0.2020
  105OSM   H15T10701   2.086   1.650   9.202 -0.2607 -0.0908 -1.9126
  105OSM   C16S10702   2.139   1.821   9.076 -0.1581  0.2531  0.2916
  105OSM   H16S10703   2.216   1.878   9.132 -1.5773  1.7154  0.8331
  105OSM   H16T10704   2.081   1.902   9.025 -0.1410  0.0017 -0.1318
  105OSM   C17S10705   2.212   1.744   8.959 -0.2020  0.3855 -0.5773
  105OSM   H17S10706   2.257   1.654   9.007 -0.3060  0.9454  0.5988
  105OSM   H17T10707   2.298   1.810   8.934 -0.1746 -0.1105 -1.8637
  105OSM   C18S10708   2.134   1.695   8.845  0.8284  0.0127 -0.5232
  105OSM   H18S10709   2.193   1.650   8.763  2.3736  1.2967 -0.1919
  105OSM   H18T10710   2.079   1.778   8.795 -0.2636 -1.1176 -1.2443
  105OSM   H18U10711   2.052   1.629   8.881 -0.2002  1.0179 -0.9592
  105OSM    C1F10712   2.076   1.285  10.407 -0.0833 -0.1191  0.0786
  105OSM     OF10713   2.013   1.262  10.506 -0.0719  0.5895 -0.0898
  105OSM    C2F10714   2.119   1.171  10.311 -0.0095 -0.4801 -0.2176
  105OSM    H2F10715   2.026   1.122  10.276  0.6799 -0.9776 -1.4189
  105OSM    H2G10716   2.175   1.095  10.371  0.6518 -0.0602 -0.2924
  105OSM    C3F10717   2.195   1.212  10.171 -0.0555 -0.3632 -0.0691
  105OSM    H3F10718   2.299   1.242  10.197 -0.3130 -1.1577  2.0169
  105OSM    H3G10719   2.135   1.290  10.119  0.3012 -0.3909 -0.5378
  105OSM    C4F10720   2.202   1.088  10.081  0.6322  0.3518 -0.0536
  105OSM    H4F10721   2.100   1.047  10.066 -0.6730  2.4823  2.2196
  105OSM    H4G10722   2.263   1.003  10.118  2.2424  1.1331 -0.8002
  105OSM    C5F10723   2.277   1.133   9.956 -0.2699  0.2311 -0.1639
  105OSM    H5F10724   2.385   1.133   9.984 -0.4478 -2.7387  0.9886
  105OSM    H5G10725   2.244   1.233   9.922  0.1696  0.8902  1.2728
  105OSM    C6F10726   2.264   1.025   9.843 -0.1203 -0.2690  0.8911
  105OSM    H6F10727   2.156   1.022   9.819 -0.0875  1.7470  0.2836
  105OSM    H6G10728   2.299   0.929   9.886 -1.7215 -0.5800  1.5437
  105OSM    C7F10729   2.342   1.066   9.716  0.0927  0.2000  0.1162
  105OSM    H7F10730   2.447   1.076   9.749  1.0894  1.5398 -3.0976
  105OSM    H7G10731   2.314   1.162   9.668 -1.8809 -1.5622 -2.6251
  105OSM    C8F10732   2.322   0.961   9.601  0.6844  0.0950 -0.2102
  105OSM    H8F10733   2.231   0.986   9.543  0.9218 -0.8491 -1.0198
  105OSM    H8G10734   2.295   0.865   9.650 -1.3609  0.3908 -0.6978
  105OSM    C9F10735   2.428   0.959   9.494 -0.0165 -0.1016 -0.6553
  105OSM    H9F10736   2.482   0.863   9.489  1.2889  0.6315 -0.9897
  105OSM   C10F10737   2.445   1.038   9.386  0.6170  0.8885  0.8603
  105OSM   H10F10738   2.534   1.023   9.322  0.3241 -1.0775  0.8540
  105OSM   C11F10739   2.360   1.155   9.355  0.3482  0.4126  0.2793
  105OSM   H11F10740   2.424   1.246   9.363  0.9103 -0.0854  1.8005
  105OSM   H11G10741   2.266   1.169   9.413  0.4359 -0.1895  0.5677
  105OSM   C12F10742   2.306   1.152   9.207  0.5992  0.0481  0.0906
  105OSM   H12F10743   2.241   1.242   9.199 -1.4131 -1.4081 -1.0634
  105OSM   H12G10744   2.252   1.056   9.190  0.4593  0.2751 -0.7780
  105OSM   C13F10745   2.416   1.173   9.104  1.0769 -0.4051  0.4620
  105OSM   H13F10746   2.492   1.092   9.104  1.0956 -0.3897  0.6087
  105OSM   H13G10747   2.456   1.274   9.129 -0.8330  0.5127  0.0424
  105OSM   C14F10748   2.357   1.202   8.964  0.4458  0.1422  0.3901
  105OSM   H14F10749   2.435   1.251   8.901  0.9089 -0.8686  0.1599
  105OSM   H14G10750   2.270   1.271   8.973 -0.7945 -1.4951  1.5528
  105OSM   C15F10751   2.312   1.069   8.900 -0.1524  0.0364  0.0124
  105OSM   H15F10752   2.269   1.000   8.977 -0.0678  0.4145  0.4006
  105OSM   H15G10753   2.398   1.013   8.859 -0.4495 -1.0477  0.8116
  105OSM   C16F10754   2.208   1.089   8.787 -0.1108  1.0866  0.3638
  105OSM   H16F10755   2.201   0.996   8.727 -0.9915  0.7767  0.9173
  105OSM   H16G10756   2.232   1.183   8.734 -0.5309  0.9869 -0.0089
  105OSM   C17F10757   2.066   1.110   8.846  0.1591 -0.2924  0.4230
  105OSM   H17F10758   2.076   1.174   8.937 -0.7815 -2.2409  1.9738
  105OSM   H17G10759   2.018   1.012   8.868  0.7725 -0.4747  1.0117
  105OSM   C18F10760   1.982   1.194   8.753  0.1193 -0.0932 -0.0866
  105OSM   H18F10761   1.884   1.208   8.803  0.8163 -1.7427  1.9207
  105OSM   H18G10762   1.964   1.142   8.657 -0.2555 -2.9316  1.4005
  105OSM   H18H10763   2.021   1.296   8.734 -2.8923  0.6795 -3.0392
  106OSM      N10764   0.549   1.205  11.326  0.3690 -0.2879  0.5024
  106OSM    C1510765   0.491   1.190  11.461 -0.2006 -0.4695 -0.0889
  106OSM   H15A10766   0.445   1.094  11.473  0.0129 -0.8184 -1.7941
  106OSM   H15B10767   0.413   1.264  11.468 -1.1994 -1.0315 -3.4052
  106OSM   H15C10768   0.567   1.211  11.535  0.7843  1.3587 -1.5122
  106OSM    C1410769   0.642   1.321  11.331  0.4818  0.0383 -0.2218
  106OSM   H14A10770   0.600   1.412  11.371  0.2231 -0.4852  0.7111
  106OSM   H14B10771   0.672   1.350  11.231  0.9920 -0.6728 -0.2890
  106OSM   H14C10772   0.732   1.297  11.385  1.7219  1.1598 -1.6852
  106OSM    C1310773   0.623   1.072  11.279  0.5812 -0.7072  0.0505
  106OSM   H13A10774   0.556   0.988  11.289 -0.6456  0.1060 -1.0492
  106OSM   H13B10775   0.717   1.056  11.331  0.8271 -0.8787 -0.4409
  106OSM   H13C10776   0.642   1.076  11.173  0.7551  3.2703  0.0751
  106OSM    C1210777   0.436   1.246  11.237  0.1724  0.0254  0.1313
  106OSM   H12A10778   0.409   1.348  11.263  0.1355  0.5974 -1.9047
  106OSM   H12B10779   0.352   1.181  11.257  1.2432 -0.7763  2.2774
  106OSM    C1110780   0.464   1.222  11.085  0.1851 -0.7650 -0.0351
  106OSM   H11A10781   0.555   1.274  11.048 -2.5081  2.6002 -2.5804
  106OSM   H11B10782   0.385   1.282  11.036  0.7877 -0.8037 -1.0717
  106OSM      P10783   0.331   1.014  11.017  0.2456 -0.2456  0.2686
  106OSM    O1310784   0.362   0.877  10.976  0.0275  0.4899 -0.2724
  106OSM    O1410785   0.238   1.029  11.132  0.1916 -0.3254  0.0557
  106OSM    O1110786   0.275   1.086  10.889 -0.8812 -0.1552 -0.0144
  106OSM    O1210787   0.467   1.090  11.042 -0.1516 -0.2382  0.0277
  106OSM    C1S10788   0.354   1.092  10.769 -0.3065  0.1137 -0.1599
  106OSM    H1S10789   0.395   0.991  10.748 -0.5943  0.3709 -2.1612
  106OSM    H1T10790   0.448   1.149  10.783 -0.1449  0.3642 -2.0505
  106OSM     NF10791   0.378   1.173  10.546  0.0079  0.1040  0.0081
  106OSM    HNF10792   0.392   1.267  10.514  0.5638  1.4676  3.7340
  106OSM    C2S10793   0.282   1.150  10.649  0.0595 -0.7789  0.2137
  106OSM    H2S10794   0.207   1.076  10.612  2.0721 -1.6695 -2.4585
  106OSM    C3S10795   0.201   1.282  10.689  0.0426 -0.3348 -0.0646
  106OSM    H3S10796   0.282   1.354  10.717  2.1584 -1.9027 -1.7925
  106OSM     O310797   0.100   1.267  10.789  0.2332  0.3098  0.1764
  106OSM    HO310798   0.140   1.195  10.839  1.0527  0.3051 -0.4670
  106OSM    C4S10799   0.144   1.331  10.557  0.0689  0.2214  0.1175
  106OSM    H4S10800   0.188   1.420  10.509 -0.0488 -0.9215 -2.2758
  106OSM    C5S10801   0.034   1.277  10.496  0.0689 -0.0710 -0.2702
  106OSM    H5S10802  -0.013   1.192  10.548  0.0563  0.0831 -0.0240
  106OSM    C6S10803  -0.018   1.322  10.369  0.6519 -0.4988 -0.1031
  106OSM    H6S10804   0.011   1.428  10.354  0.9192 -0.7478 -1.5227
  106OSM    H6T10805  -0.127   1.334  10.383  0.6087 -0.5024 -0.4325
  106OSM    C7S10806   0.009   1.249  10.246 -0.0161  0.4467 -0.0309
  106OSM    H7S10807  -0.034   1.306  10.161  3.5161  1.0508 -1.5794
  106OSM    H7T10808  -0.024   1.143  10.250 -1.2826  0.6658 -2.5609
  106OSM    C8S10809   0.155   1.242  10.206 -0.4849 -0.2023  0.9067
  106OSM    H8S10810   0.200   1.157  10.262 -0.4522 -0.8302 -0.0524
  106OSM    H8T10811   0.201   1.335  10.247 -0.9782  0.0423  0.9158
  106OSM    C9S10812   0.179   1.241  10.054 -1.1972 -0.3557  0.3492
  106OSM    H9S10813   0.140   1.342  10.027  0.4793  0.5759  1.2632
  106OSM    H9T10814   0.118   1.160  10.010 -1.0300 -0.3304  0.0656
  106OSM   C10S10815   0.323   1.224  10.022 -0.4690 -0.1392 -0.1986
  106OSM   H10S10816   0.360   1.140  10.085 -0.9588 -1.0827 -1.1442
  106OSM   H10T10817   0.375   1.314  10.063 -0.4396 -0.4057  0.3531
  106OSM   C11S10818   0.351   1.210   9.875 -0.3050 -0.2418 -0.1638
  106OSM   H11S10819   0.337   1.109   9.832  1.7205 -0.4376 -0.4635
  106OSM   H11T10820   0.462   1.220   9.878 -0.2993 -0.3748  0.1516
  106OSM   C12S10821   0.291   1.317   9.785  0.5956 -0.0207  0.4838
  106OSM   H12S10822   0.323   1.417   9.819 -0.9970  1.5986 -2.4330
  106OSM   H12T10823   0.183   1.313   9.807  0.2843 -0.6016 -1.0304
  106OSM   C13S10824   0.326   1.306   9.636  0.0319 -0.1691 -0.1620
  106OSM   H13S10825   0.279   1.219   9.586 -0.9250 -0.2522  0.8559
  106OSM   H13T10826   0.435   1.283   9.642  0.5706  1.8011 -1.4884
  106OSM   C14S10827   0.305   1.435   9.555 -0.2049  0.6098  0.2222
  106OSM   H14S10828   0.346   1.524   9.608  0.7034  0.6730 -0.5594
  106OSM   H14T10829   0.197   1.454   9.535 -0.6534 -1.3020  0.5832
  106OSM   C15S10830   0.367   1.426   9.415  0.8924  0.4278  0.0201
  106OSM   H15S10831   0.326   1.343   9.354  1.2884 -0.6468  1.1771
  106OSM   H15T10832   0.476   1.408   9.426  1.1929  2.2969  0.5561
  106OSM   C16S10833   0.360   1.558   9.339  0.4620 -1.0247  0.2493
  106OSM   H16S10834   0.425   1.550   9.250 -1.5519 -2.1570 -1.2043
  106OSM   H16T10835   0.401   1.629   9.413 -0.7938  0.3401 -0.3213
  106OSM   C17S10836   0.218   1.591   9.296 -0.0687 -0.5659  0.1229
  106OSM   H17S10837   0.149   1.594   9.383  0.5630 -0.2234  0.6152
  106OSM   H17T10838   0.201   1.504   9.228  2.3598 -0.2494 -0.9887
  106OSM   C18S10839   0.203   1.726   9.224 -0.1456  0.8353  0.3271
  106OSM   H18S10840   0.097   1.754   9.214 -0.0976  0.7462 -0.5504
  106OSM   H18T10841   0.243   1.714   9.120  0.1911 -2.4058  0.7247
  106OSM   H18U10842   0.266   1.802   9.276  0.2988 -0.1894  1.3329
  106OSM    C1F10843   0.444   1.071  10.484 -0.3546  0.1701 -0.4210
  106OSM     OF10844   0.423   0.951  10.514 -0.0069 -0.1462 -0.7345
  106OSM    C2F10845   0.539   1.110  10.373 -0.1746  0.4723  0.0710
  106OSM    H2F10846   0.629   1.147  10.427  0.2363 -0.3479 -0.0337
  106OSM    H2G10847   0.497   1.204  10.332  1.1695  0.2357 -1.9628
  106OSM    C3F10848   0.572   0.992  10.276 -0.0931 -0.0322 -0.6314
  106OSM    H3F10849   0.480   0.936  10.246 -0.4421  0.1974  0.0026
  106OSM    H3G10850   0.636   0.921  10.334  0.3689  0.3589 -0.6563
  106OSM    C4F10851   0.640   1.023  10.144  0.0179  0.4271  0.6026
  106OSM    H4F10852   0.737   1.076  10.151 -0.0799  0.7100 -0.0878
  106OSM    H4G10853   0.569   1.077  10.078 -1.9647 -3.0776 -0.4011
  106OSM    C5F10854   0.681   0.896  10.059 -0.4038 -0.5641  0.0856
  106OSM    H5F10855   0.593   0.829  10.068 -0.2485 -0.6873  0.7238
  106OSM    H5G10856   0.765   0.836  10.099  0.3282 -0.1929 -0.8376
  106OSM    C6F10857   0.703   0.927   9.913  0.2362 -0.0857  0.8603
  106OSM    H6F10858   0.788   0.999   9.909  0.6595 -0.6212 -0.2120
  106OSM    H6G10859   0.617   0.996   9.899  0.0030  0.2272  3.3211
  106OSM    C7F10860   0.704   0.817   9.804  0.9082  0.0495  0.4014
  106OSM    H7F10861   0.704   0.865   9.704  1.6650  0.1265  0.4313
  106OSM    H7G10862   0.600   0.780   9.808  0.6831  0.4253 -1.3169
  106OSM    C8F10863   0.808   0.711   9.825 -0.5763  0.0916 -0.4669
  106OSM    H8F10864   0.782   0.626   9.758  1.3366 -1.8224  1.0775
  106OSM    H8G10865   0.811   0.661   9.924 -0.4020  3.7728  1.5579
  106OSM    C9F10866   0.945   0.772   9.809 -0.1216 -0.0344  0.1061
  106OSM    H9F10867   0.984   0.836   9.889 -0.8517  0.2805  0.2150
  106OSM   C10F10868   1.023   0.770   9.691  0.1676  0.3145 -0.5847
  106OSM   H10F10869   1.116   0.827   9.675  0.6785  0.3607  2.0717
  106OSM   C11F10870   0.981   0.710   9.557  0.6303  0.2629 -0.1207
  106OSM   H11F10871   0.908   0.770   9.500 -1.1124 -2.0706 -0.4862
  106OSM   H11G10872   0.934   0.610   9.558  0.1339  0.4375 -1.8820
  106OSM   C12F10873   1.095   0.686   9.464  0.1751  0.3812  0.1225
  106OSM   H12F10874   1.174   0.634   9.523  1.4003  0.4480 -1.3991
  106OSM   H12G10875   1.153   0.778   9.444  0.1871  0.4017  0.2481
  106OSM   C13F10876   1.065   0.625   9.327  0.4922  0.0349  0.5061
  106OSM   H13F10877   0.991   0.693   9.279  1.8642  3.3674  2.7391
  106OSM   H13G10878   1.010   0.530   9.347 -1.7452  1.3724  1.1018
  106OSM   C14F10879   1.188   0.604   9.236 -0.9306  0.7972 -0.0898
  106OSM   H14F10880   1.271   0.573   9.303  0.4138  3.3701 -0.4352
  106OSM   H14G10881   1.204   0.707   9.199 -0.4350  0.6267 -0.3518
  106OSM   C15F10882   1.159   0.505   9.117  0.2239 -0.6825 -0.7301
  106OSM   H15F10883   1.050   0.513   9.099 -0.1673 -0.9328  1.2492
  106OSM   H15G10884   1.173   0.400   9.153 -3.5686 -1.5334 -1.3573
  106OSM   C16F10885   1.241   0.526   8.995 -0.3001  0.5468  0.3147
  106OSM   H16F10886   1.223   0.634   8.975  0.9932  0.8604  0.7107
  106OSM   H16G10887   1.216   0.463   8.908  0.8253  0.9373 -0.3134
  106OSM   C17F10888   1.391   0.504   9.016  0.2184  0.2782 -0.1014
  106OSM   H17F10889   1.410   0.400   9.050  0.1262  0.1726 -0.3664
  106OSM   H17G10890   1.433   0.575   9.090 -0.8898  2.1587 -1.1921
  106OSM   C18F10891   1.478   0.521   8.896 -0.5184  0.8285  1.4678
  106OSM   H18F10892   1.587   0.509   8.913 -0.1840 -2.5017 -1.7969
  106OSM   H18G10893   1.459   0.618   8.846 -1.2791  0.3609  0.8145
  106OSM   H18H10894   1.456   0.452   8.811  0.3224  2.6575 -0.3045
  107OSM      N10895   2.859   3.925  10.721 -0.0768 -0.2420 -0.4450
  107OSM    C1510896   2.855   4.014  10.850 -0.2896 -0.1232  0.8580
  107OSM   H15A10897   2.779   3.983  10.919 -0.3525  1.6197  1.6066
  107OSM   H15B10898   2.849   4.119  10.826 -0.9363 -0.2316  0.5422
  107OSM   H15C10899   2.947   3.998  10.904  1.0867  0.2867 -1.2306
  107OSM    C1410900   2.980   3.987  10.649  0.4791  0.3134  0.5647
  107OSM   H14A10901   2.947   4.073  10.593 -2.4723  0.6031  2.5461
  107OSM   H14B10902   3.005   3.914  10.573 -0.1851  0.6807 -0.0229
  107OSM   H14C10903   3.070   4.006  10.706  1.6617 -0.9923 -0.7652
  107OSM    C1310904   2.877   3.792  10.775  0.6694  0.6592  0.0127
  107OSM   H13A10905   2.961   3.780  10.843 -1.4699 -2.4627  2.4407
  107OSM   H13B10906   2.892   3.729  10.689 -2.1389  0.8525 -0.7014
  107OSM   H13C10907   2.791   3.750  10.826  0.6312  0.6463 -0.0619
  107OSM    C1210908   2.734   3.938  10.638  0.1162 -0.2078  0.4039
  107OSM   H12A10909   2.750   3.882  10.547  0.7810  0.4002  0.1364
  107OSM   H12B10910   2.719   4.044  10.625 -0.0629 -0.2092  0.5872
  107OSM    C1110911   2.608   3.876  10.699  0.1982 -0.0454  0.2657
  107OSM   H11A10912   2.627   3.770  10.725 -1.4963 -0.3423  0.4528
  107OSM   H11B10913   2.524   3.868  10.626 -0.3340 -4.7708  1.0527
  107OSM      P10914   2.506   4.093  10.801  0.2675  0.3469 -0.2846
  107OSM    O1310915   2.364   4.100  10.832  0.3063 -0.1060 -0.4584
  107OSM    O1410916   2.593   4.163  10.894  0.0460  0.1558 -0.2927
  107OSM    O1110917   2.540   4.138  10.656 -0.1922 -0.0990  0.4979
  107OSM    O1210918   2.559   3.945  10.813 -0.1358 -0.1606  0.1880
  107OSM    C1S10919   2.432   4.131  10.556 -0.3534 -0.8130  1.0884
  107OSM    H1S10920   2.355   4.207  10.581  1.1493  0.6879  1.3612
  107OSM    H1T10921   2.395   4.026  10.553  2.8883 -2.0330 -0.2464
  107OSM     NF10922   2.351   4.142  10.333  0.3355  0.1967 -0.3638
  107OSM    HNF10923   2.345   4.064  10.270  0.2794 -0.7263  0.7524
  107OSM    C2S10924   2.472   4.162  10.407  0.8428  0.0016  0.2410
  107OSM    H2S10925   2.505   4.266  10.387  0.0104  0.2609  0.1831
  107OSM    C3S10926   2.600   4.090  10.358  0.1667  0.7293 -0.2253
  107OSM    H3S10927   2.587   3.985  10.391  1.8813  1.1475  1.9702
  107OSM     O310928   2.727   4.144  10.414  0.2918  0.1464 -0.2681
  107OSM    HO310929   2.706   4.203  10.486 -0.0212 -2.0980  1.5847
  107OSM    C4S10930   2.606   4.081  10.203 -0.6989  0.1222 -0.6116
  107OSM    H4S10931   2.601   3.976  10.169  0.5944  0.9752 -3.8275
  107OSM    C5S10932   2.634   4.181  10.115 -0.3184 -0.6168 -0.4321
  107OSM    H5S10933   2.661   4.282  10.151  2.1066 -1.4156  0.1068
  107OSM    C6S10934   2.647   4.161   9.967  0.2955  0.1310  0.3306
  107OSM    H6S10935   2.554   4.199   9.919  2.7029  0.1476 -5.0728
  107OSM    H6T10936   2.631   4.053   9.950  1.8854  0.3073 -3.1678
  107OSM    C7S10937   2.776   4.225   9.907  0.1865  0.2549 -0.0966
  107OSM    H7S10938   2.865   4.179   9.955 -0.2804 -1.1246 -0.4893
  107OSM    H7T10939   2.777   4.335   9.920 -2.1836  0.4825 -1.2027
  107OSM    C8S10940   2.792   4.180   9.761  0.2482  1.1701 -0.9284
  107OSM    H8S10941   2.767   4.074   9.738 -1.1249  0.7765  1.9845
  107OSM    H8T10942   2.901   4.191   9.742  0.7766 -0.8646  0.5991
  107OSM    C9S10943   2.704   4.249   9.658  0.2841 -0.2421 -0.3647
  107OSM    H9S10944   2.603   4.224   9.696  0.0218 -0.2236 -1.0247
  107OSM    H9T10945   2.697   4.221   9.550  0.3723  2.6728 -1.2178
  107OSM   C10S10946   2.709   4.400   9.661  0.4334 -0.0214  0.0997
  107OSM   H10S10947   2.811   4.434   9.636  0.2853  0.2989 -0.0705
  107OSM   H10T10948   2.680   4.438   9.761  1.0596 -1.8277  1.0136
  107OSM   C11S10949   2.609   4.455   9.557  0.7064 -0.7869  0.6966
  107OSM   H11S10950   2.567   4.548   9.600 -1.2626 -1.1040 -0.4094
  107OSM   H11T10951   2.523   4.385   9.564 -1.1535  1.2489 -0.6194
  107OSM   C12S10952   2.665   4.461   9.412 -0.2488 -0.4922 -0.3128
  107OSM   H12S10953   2.720   4.370   9.381  0.7345  0.2147 -0.6632
  107OSM   H12T10954   2.742   4.541   9.406  2.4530 -2.7784  1.1850
  107OSM   C13S10955   2.539   4.496   9.322 -0.7596  1.0758  0.6766
  107OSM   H13S10956   2.481   4.578   9.370 -2.1123  0.4089  0.2137
  107OSM   H13T10957   2.474   4.406   9.324  0.4812 -0.1306 -3.6065
  107OSM   C14S10958   2.567   4.547   9.185  0.1542  0.4435  0.2066
  107OSM   H14S10959   2.471   4.570   9.134 -0.2881  0.8981  1.2081
  107OSM   H14T10960   2.625   4.469   9.132 -0.8167  0.1344 -0.4348
  107OSM   C15S10961   2.636   4.683   9.170  0.1861 -0.2057 -0.3339
  107OSM   H15S10962   2.736   4.685   9.220  0.2719  2.8115 -0.4318
  107OSM   H15T10963   2.575   4.763   9.218  2.1917  1.5854 -0.5881
  107OSM   C16S10964   2.663   4.721   9.020  0.1092 -0.4429  0.8757
  107OSM   H16S10965   2.731   4.647   8.973 -0.6886 -1.1871  0.8565
  107OSM   H16T10966   2.714   4.819   9.022  1.0799 -0.7544 -2.8089
  107OSM   C17S10967   2.541   4.757   8.923 -0.1884 -0.3786 -0.6303
  107OSM   H17S10968   2.496   4.854   8.953 -0.3302  0.0836 -2.2022
  107OSM   H17T10969   2.465   4.677   8.931 -2.5116  1.8550  1.4704
  107OSM   C18S10970   2.588   4.774   8.778  0.3548 -0.8261 -0.7247
  107OSM   H18S10971   2.649   4.686   8.746 -0.0712 -0.8794 -1.4127
  107OSM   H18T10972   2.649   4.866   8.773  0.1030 -0.6904 -1.3352
  107OSM   H18U10973   2.499   4.780   8.712 -0.1173  1.7002  0.0292
  107OSM    C1F10974   2.248   4.231  10.341  0.2029 -0.3692 -0.6220
  107OSM     OF10975   2.276   4.342  10.375  0.3200  0.7865 -0.4601
  107OSM    C2F10976   2.109   4.176  10.327  0.8180  0.1307  0.1015
  107OSM    H2F10977   2.078   4.143  10.429  1.5361  2.6333  1.2114
  107OSM    H2G10978   2.117   4.085  10.264 -0.3452 -0.4126  0.6885
  107OSM    C3F10979   2.016   4.278  10.263  0.7217 -0.7018 -0.3315
  107OSM    H3F10980   2.003   4.366  10.330 -0.8720  0.7862 -2.4568
  107OSM    H3G10981   1.910   4.248  10.252  0.1290  1.3589 -0.7813
  107OSM    C4F10982   2.067   4.341  10.125 -0.1124  0.8514 -0.9569
  107OSM    H4F10983   2.144   4.418  10.149 -0.3600  0.2632  2.1908
  107OSM    H4G10984   1.980   4.390  10.077 -0.9315  0.5861  0.2221
  107OSM    C5F10985   2.113   4.231  10.032 -0.0066  0.6290 -0.4548
  107OSM    H5F10986   2.049   4.143  10.057 -1.3211  1.0441 -2.1509
  107OSM    H5G10987   2.218   4.198  10.047 -0.7564 -0.9060  2.1182
  107OSM    C6F10988   2.093   4.260   9.886 -0.1735  0.0941 -0.1208
  107OSM    H6F10989   1.990   4.277   9.848  0.7807  1.5682 -2.2631
  107OSM    H6G10990   2.121   4.161   9.845 -1.0959  0.0691 -0.7027
  107OSM    C7F10991   2.195   4.368   9.852 -0.1909 -0.4188  0.3805
  107OSM    H7F10992   2.286   4.347   9.913 -0.6201  0.9181  1.5090
  107OSM    H7G10993   2.163   4.466   9.891  1.0411 -0.4824  1.6525
  107OSM    C8F10994   2.237   4.380   9.703 -0.5156  0.3425  0.7608
  107OSM    H8F10995   2.322   4.451   9.697 -0.4968  0.4485  1.9731
  107OSM    H8G10996   2.148   4.414   9.645 -0.3530 -1.6578 -0.7555
  107OSM    C9F10997   2.278   4.244   9.648 -0.7425  0.3134 -0.2901
  107OSM    H9F10998   2.367   4.201   9.696  0.5077  1.0757 -1.8182
  107OSM   C10F10999   2.225   4.185   9.534 -0.6430  0.6926 -0.0175
  107OSM   H10F11000   2.259   4.082   9.519 -0.5988  0.7021  0.0169
  107OSM   C11F11001   2.112   4.231   9.450  0.3022 -0.0307  0.3204
  107OSM   H11F11002   2.059   4.321   9.488  0.1986 -0.2989  0.8062
  107OSM   H11G11003   2.032   4.155   9.454 -3.1369  2.7595 -4.3162
  107OSM   C12F11004   2.148   4.264   9.298  0.0158 -0.1555 -0.3658
  107OSM   H12F11005   2.233   4.336   9.299 -0.8470  0.9327  2.1334
  107OSM   H12G11006   2.055   4.312   9.261 -0.5063 -0.8969 -0.0280
  107OSM   C13F11007   2.181   4.135   9.216 -0.8816  0.2481 -0.7036
  107OSM   H13F11008   2.086   4.091   9.178 -1.6176  0.9833  0.2587
  107OSM   H13G11009   2.229   4.055   9.276 -0.9361  2.0405  1.8697
  107OSM   C14F11010   2.276   4.175   9.101 -0.0281  0.8451 -0.3446
  107OSM   H14F11011   2.353   4.251   9.127  0.0008  1.1027 -1.1439
  107OSM   H14G11012   2.206   4.229   9.034 -0.4354 -0.8212 -1.3165
  107OSM   C15F11013   2.339   4.060   9.017  0.4115 -0.2661 -1.3264
  107OSM   H15F11014   2.366   4.093   8.914  2.2724  2.4537 -0.0983
  107OSM   H15G11015   2.271   3.972   9.012  2.0740 -1.7192  0.0059
  107OSM   C16F11016   2.475   4.021   9.069 -0.7577  0.1978  0.8238
  107OSM   H16F11017   2.553   4.094   9.039  0.0959  0.0882  2.6827
  107OSM   H16G11018   2.508   3.926   9.021  2.6726  1.1612  1.0584
  107OSM   C17F11019   2.492   4.006   9.220  0.3327  0.2293  0.1116
  107OSM   H17F11020   2.416   3.932   9.251 -1.2494  2.1343  0.9843
  107OSM   H17G11021   2.472   4.097   9.280 -0.6606  0.0622  0.0474
  107OSM   C18F11022   2.619   3.943   9.262 -0.4543 -0.2618  0.3906
  107OSM   H18F11023   2.711   4.004   9.256 -1.1346  0.8609  0.9631
  107OSM   H18G11024   2.655   3.861   9.197  0.7194  0.6162 -0.0911
  107OSM   H18H11025   2.630   3.907   9.367 -0.4494  1.3192  0.9580
  108OSM      N11026   6.106   0.254  10.513 -0.4699  0.4464  0.4289
  108OSM    C1511027   6.100   0.347  10.399  0.2591  0.4724  0.2992
  108OSM   H15A11028   6.056   0.294  10.315  0.9280  0.3104  0.0430
  108OSM   H15B11029   6.196   0.372  10.357 -0.0934  1.1356 -0.1210
  108OSM   H15C11030   6.053   0.439  10.427 -0.1373 -0.3660  2.5731
  108OSM    C1411031   6.183   0.323  10.629 -0.2826  0.4312  0.6205
  108OSM   H14A11032   6.125   0.393  10.688 -1.7657 -1.2263  1.2286
  108OSM   H14B11033   6.275   0.370  10.600 -0.2096  0.0563  0.2421
  108OSM   H14C11034   6.216   0.252  10.704  0.5437 -0.7573 -0.8236
  108OSM    C1311035   5.970   0.228  10.570 -0.5114 -0.1810  0.0964
  108OSM   H13A11036   5.911   0.318  10.564  0.8520  0.6551 -2.9799
  108OSM   H13B11037   5.968   0.198  10.673 -1.3512 -1.0251 -0.1475
  108OSM   H13C11038   5.922   0.149  10.513  0.0421 -0.6930  0.3245
  108OSM    C1211039   6.174   0.127  10.475 -0.1720 -0.0096  0.1962
  108OSM   H12A11040   6.230   0.078  10.554  0.1870  0.2120  0.0805
  108OSM   H12B11041   6.241   0.153  10.394 -0.3181  0.2741  0.1676
  108OSM    C1111042   6.096   0.012  10.409  0.4175 -0.2834 -0.5193
  108OSM   H11A11043   6.164  -0.063  10.364  4.6821  1.6513  2.0471
  108OSM   H11B11044   6.048   0.068  10.327  1.3874  0.7540 -0.4146
  108OSM      P11045   5.866  -0.103  10.480  0.1431 -0.2050 -0.2376
  108OSM    O1311046   5.831  -0.202  10.586  0.2921 -0.4544  0.4006
  108OSM    O1411047   5.778   0.011  10.469  0.0483  0.1538 -0.5973
  108OSM    O1111048   5.881  -0.187  10.353 -0.4080  0.1994  0.6220
  108OSM    O1211049   6.008  -0.051  10.510 -0.4975 -0.0144  0.1727
  108OSM    C1S11050   5.953  -0.314  10.348  0.1079 -0.0785 -0.6396
  108OSM    H1S11051   5.924  -0.384  10.430  0.4048  0.5370  0.0009
  108OSM    H1T11052   6.062  -0.293  10.355 -0.2016  1.2078  0.8206
  108OSM     NF11053   5.994  -0.515  10.223 -0.4293 -0.1193  0.4146
  108OSM    HNF11054   6.089  -0.533  10.200 -0.9905 -2.2131 -0.5473
  108OSM    C2S11055   5.939  -0.378  10.205 -0.1379 -0.0576 -0.4615
  108OSM    H2S11056   5.831  -0.386  10.183 -0.4323 -0.7735  1.1488
  108OSM    C3S11057   6.020  -0.288  10.103  0.2327 -0.0656 -0.4529
  108OSM    H3S11058   6.123  -0.280  10.144  0.1718 -3.8371  0.8073
  108OSM     O311059   5.979  -0.150  10.090  0.2085  0.3376 -0.0744
  108OSM    HO311060   5.927  -0.118  10.164  0.5254  3.5681 -1.0661
  108OSM    C4S11061   6.047  -0.357   9.965  0.1294  0.0396 -0.3077
  108OSM    H4S11062   6.113  -0.445   9.963 -1.6231 -1.4455  2.0906
  108OSM    C5S11063   5.977  -0.324   9.854  0.7794  0.7966  0.7408
  108OSM    H5S11064   5.895  -0.252   9.866  0.7821  0.8553  0.4031
  108OSM    C6S11065   5.992  -0.394   9.720  0.5248 -0.2037 -0.0005
  108OSM    H6S11066   5.921  -0.479   9.731 -0.3859  0.4426 -0.7353
  108OSM    H6T11067   6.089  -0.447   9.708 -0.1413 -1.4188 -0.2332
  108OSM    C7S11068   5.967  -0.305   9.599  0.4500  0.1898  0.1637
  108OSM    H7S11069   6.053  -0.237   9.584 -1.5766  3.2877  1.5352
  108OSM    H7T11070   5.881  -0.239   9.623 -0.1258 -0.1310 -0.9472
  108OSM    C8S11071   5.917  -0.385   9.477 -0.0665  0.9240  0.2842
  108OSM    H8S11072   5.871  -0.324   9.398  0.1524 -0.5175 -1.0024
  108OSM    H8T11073   5.837  -0.449   9.520  0.2987 -0.2476 -0.7134
  108OSM    C9S11074   6.027  -0.465   9.405 -0.4270  0.5463 -0.4421
  108OSM    H9S11075   6.074  -0.520   9.489 -0.6807 -0.5030 -0.9690
  108OSM    H9T11076   6.101  -0.399   9.357 -2.0977  0.8899 -2.7249
  108OSM   C10S11077   5.972  -0.558   9.292  0.2861  0.5763 -0.0600
  108OSM   H10S11078   5.889  -0.618   9.334  0.4673  0.7549  0.5601
  108OSM   H10T11079   6.054  -0.626   9.259 -0.9203 -1.3264  0.6792
  108OSM   C11S11080   5.918  -0.480   9.163 -0.1569  0.5458  0.5048
  108OSM   H11S11081   5.835  -0.415   9.196 -2.2912 -1.3868 -0.7138
  108OSM   H11T11082   5.867  -0.548   9.091 -0.8646  1.0664  0.5115
  108OSM   C12S11083   6.015  -0.389   9.076  0.4354 -0.2299 -0.2686
  108OSM   H12S11084   6.068  -0.317   9.141  0.3958 -1.1151  0.7844
  108OSM   H12T11085   5.941  -0.328   9.020  1.9724  2.9067  0.8607
  108OSM   C13S11086   6.120  -0.466   8.993  0.0229 -0.0224  0.4233
  108OSM   H13S11087   6.142  -0.548   9.065 -0.8700  0.0777  0.8170
  108OSM   H13T11088   6.197  -0.391   8.965 -1.3876  2.1460  2.0841
  108OSM   C14S11089   6.079  -0.532   8.860  0.3459 -0.1958 -0.0124
  108OSM   H14S11090   5.999  -0.601   8.894  0.1447  1.0318  2.1932
  108OSM   H14T11091   6.154  -0.601   8.815  0.3234 -0.6384  0.6167
  108OSM   C15S11092   6.029  -0.437   8.749 -0.6451  0.4893  0.3471
  108OSM   H15S11093   6.106  -0.361   8.722  0.5877 -1.2261 -1.2159
  108OSM   H15T11094   5.939  -0.383   8.785 -0.2235  2.4422 -1.3387
  108OSM   C16S11095   5.993  -0.514   8.622 -0.4420 -0.5785  0.5236
  108OSM   H16S11096   6.034  -0.617   8.629 -2.9560 -1.7019 -0.1527
  108OSM   H16T11097   6.036  -0.472   8.529 -1.2094  0.2999  0.5537
  108OSM   C17S11098   5.845  -0.542   8.599 -0.3084 -0.5016 -0.5453
  108OSM   H17S11099   5.797  -0.447   8.567  1.4506  0.3978 -0.6271
  108OSM   H17T11100   5.804  -0.591   8.690 -0.2560 -0.2674 -0.3953
  108OSM   C18S11101   5.822  -0.641   8.486 -0.9822 -0.5330  0.2625
  108OSM   H18S11102   5.715  -0.657   8.462 -0.6814 -1.4777 -0.4984
  108OSM   H18T11103   5.863  -0.738   8.521 -2.4285 -2.0855 -2.0765
  108OSM   H18U11104   5.879  -0.611   8.395 -0.3683 -0.9544  0.4965
  108OSM    C1F11105   5.923  -0.610  10.281 -0.2489  0.4339 -0.4619
  108OSM     OF11106   5.803  -0.599  10.303  0.0644  0.2355 -1.0694
  108OSM    C2F11107   6.003  -0.728  10.323  0.7318 -0.1773 -0.1160
  108OSM    H2F11108   5.958  -0.765  10.417 -0.8864  2.0405  0.0643
  108OSM    H2G11109   6.109  -0.699  10.337  0.8864 -0.8696  0.1668
  108OSM    C3F11110   6.004  -0.844  10.213  0.2703 -0.5732  0.1621
  108OSM    H3F11111   5.905  -0.894  10.219 -0.5019  0.9970  1.4285
  108OSM    H3G11112   6.063  -0.928  10.254 -0.6093 -1.5648 -0.5643
  108OSM    C4F11113   6.054  -0.805  10.080  0.4467  0.0099  0.7641
  108OSM    H4F11114   6.152  -0.753  10.079  0.7301 -0.4272  2.5928
  108OSM    H4G11115   5.980  -0.736  10.035  0.4299 -1.6000 -1.9016
  108OSM    C5F11116   6.057  -0.917   9.969  0.4581  0.4720 -0.3953
  108OSM    H5F11117   5.958  -0.942   9.924  0.3099 -2.7384  1.4295
  108OSM    H5G11118   6.097  -1.009  10.016  0.9226  1.4895  1.2642
  108OSM    C6F11119   6.147  -0.897   9.846 -0.1435  0.2635 -0.5051
  108OSM    H6F11120   6.251  -0.912   9.881  0.6437  0.9668 -2.4038
  108OSM    H6G11121   6.145  -0.791   9.811  0.1973  0.3217 -0.3553
  108OSM    C7F11122   6.125  -0.984   9.720 -0.3079 -0.4357 -0.0945
  108OSM    H7F11123   6.103  -1.084   9.763  2.2452 -0.9418  0.1920
  108OSM    H7G11124   6.221  -1.003   9.668  1.4034  0.5970  2.4811
  108OSM    C8F11125   6.012  -0.937   9.615 -0.3638 -0.2074 -0.4530
  108OSM    H8F11126   6.029  -0.830   9.592 -0.8540  0.0857  0.5134
  108OSM    H8G11127   5.919  -0.954   9.672 -1.0399 -3.9069 -2.3317
  108OSM    C9F11128   6.006  -1.034   9.498 -0.2586 -0.5672 -0.0025
  108OSM    H9F11129   5.955  -1.129   9.520 -1.2245 -0.1219 -0.2657
  108OSM   C10F11130   6.060  -1.028   9.374 -0.5433 -0.0833 -0.2396
  108OSM   H10F11131   6.026  -1.099   9.298  2.2489  0.5144 -2.1965
  108OSM   C11F11132   6.139  -0.914   9.309  0.5401 -0.5858  0.0405
  108OSM   H11F11133   6.245  -0.938   9.285 -0.0839  0.0454 -3.9775
  108OSM   H11G11134   6.125  -0.826   9.376  1.4482 -1.0427  0.8594
  108OSM   C12F11135   6.061  -0.875   9.178 -0.5333 -0.0006  0.1221
  108OSM   H12F11136   6.091  -0.779   9.131  0.5470 -0.2853  0.1958
  108OSM   H12G11137   5.952  -0.864   9.194 -0.4313  0.3008  0.6441
  108OSM   C13F11138   6.074  -0.973   9.058 -0.2997 -0.9152 -0.1886
  108OSM   H13F11139   6.035  -1.071   9.091 -0.7750 -0.6017  0.1931
  108OSM   H13G11140   6.177  -0.993   9.020 -0.3356  0.1610 -0.8981
  108OSM   C14F11141   5.979  -0.929   8.945 -0.8415  1.0529 -0.6010
  108OSM   H14F11142   6.014  -0.835   8.896  0.4419  2.0306  1.9953
  108OSM   H14G11143   5.872  -0.912   8.971 -1.5025  0.4733 -2.7372
  108OSM   C15F11144   5.982  -1.042   8.844  0.4385  0.7493 -0.0375
  108OSM   H15F11145   5.917  -1.126   8.875  0.3641  0.2716 -1.4410
  108OSM   H15G11146   6.087  -1.077   8.833 -0.0455 -0.5721 -0.6955
  108OSM   C16F11147   5.931  -1.002   8.705  0.2789 -0.1741 -0.5605
  108OSM   H16F11148   5.972  -0.902   8.678 -0.8478  0.8221  1.1749
  108OSM   H16G11149   5.822  -0.985   8.710  0.2951 -0.2689  0.4248
  108OSM   C17F11150   5.965  -1.099   8.592  0.1786 -0.6352  0.0621
  108OSM   H17F11151   5.902  -1.190   8.581  0.0582 -0.6638  0.9148
  108OSM   H17G11152   6.069  -1.131   8.615  1.3913  0.6642 -3.0902
  108OSM   C18F11153   5.969  -1.023   8.460  0.6348 -0.3064  0.4294
  108OSM   H18F11154   5.874  -1.031   8.405  1.2633 -1.2248 -0.5570
  108OSM   H18G11155   6.036  -1.073   8.387  0.9717  1.3261 -0.4351
  108OSM   H18H11156   6.005  -0.918   8.465  0.8890 -0.2930 -1.2623
  109OSM      N11157   4.363   3.978  11.133 -0.0073 -0.0380 -0.0729
  109OSM    C1511158   4.246   4.068  11.152  0.4594 -0.4444 -0.2713
  109OSM   H15A11159   4.274   4.168  11.123  0.5870 -0.4534 -0.1783
  109OSM   H15B11160   4.222   4.077  11.257 -0.1658 -1.5963 -0.2917
  109OSM   H15C11161   4.152   4.034  11.111 -0.2987 -0.5569  1.4497
  109OSM    C1411162   4.475   4.036  11.206  0.7198  0.1824  0.1690
  109OSM   H14A11163   4.533   4.108  11.151  0.7713 -0.3454 -0.4805
  109OSM   H14B11164   4.549   3.966  11.241 -0.6695  0.5440  4.5433
  109OSM   H14C11165   4.437   4.089  11.293 -0.8086  2.1105 -1.5664
  109OSM    C1311166   4.324   3.855  11.197 -0.3854  0.3947  0.2082
  109OSM   H13A11167   4.420   3.806  11.206 -0.2218  0.5934 -0.4403
  109OSM   H13B11168   4.265   3.793  11.132  0.1007  0.7339 -0.5710
  109OSM   H13C11169   4.283   3.862  11.297 -1.5295 -0.8792 -0.1376
  109OSM    C1211170   4.403   3.954  10.993 -0.2858 -0.5096 -0.2457
  109OSM   H12A11171   4.320   3.910  10.940 -0.3729  0.1758 -0.6897
  109OSM   H12B11172   4.489   3.888  10.990 -1.8140 -2.6412  0.5269
  109OSM    C1111173   4.451   4.073  10.910  0.1883 -0.4583 -0.5324
  109OSM   H11A11174   4.372   4.148  10.932 -0.8194 -1.4670 -0.6640
  109OSM   H11B11175   4.452   4.051  10.801  1.6781 -1.7749 -0.2920
  109OSM      P11176   4.713   4.102  10.892  0.2085  0.0077 -0.1124
  109OSM    O1311177   4.819   4.168  10.969 -0.6605 -0.3976  0.5743
  109OSM    O1411178   4.735   3.955  10.870  0.2762 -0.8422  0.4317
  109OSM    O1111179   4.691   4.182  10.752  0.2109  0.2959 -0.2289
  109OSM    O1211180   4.579   4.123  10.965  0.2905  0.9466  0.1853
  109OSM    C1S11181   4.789   4.184  10.653  0.0889 -0.0435 -0.4335
  109OSM    H1S11182   4.870   4.108  10.660  1.1202  0.9259 -1.4465
  109OSM    H1T11183   4.846   4.280  10.656  1.6794 -0.9671  0.4263
  109OSM     NF11184   4.841   4.173  10.419  0.2680 -0.4001 -0.2162
  109OSM    HNF11185   4.878   4.261  10.391  1.5757 -0.0116  2.4213
  109OSM    C2S11186   4.731   4.174  10.515  0.3910  0.0699 -0.1150
  109OSM    H2S11187   4.669   4.082  10.525  2.3339 -1.1559  1.7044
  109OSM    C3S11188   4.626   4.283  10.477 -0.3195 -0.6633  0.1353
  109OSM    H3S11189   4.676   4.376  10.512  1.0849 -3.1429  5.7952
  109OSM     O311190   4.509   4.270  10.551  0.2068 -0.4582  0.8255
  109OSM    HO311191   4.521   4.189  10.601 -0.6531 -0.9508  0.2586
  109OSM    C4S11192   4.590   4.286  10.338  0.1700  0.6930  0.5136
  109OSM    H4S11193   4.524   4.202  10.312 -0.0230 -0.0625  3.0939
  109OSM    C5S11194   4.620   4.378  10.245 -0.0078  0.2251 -0.1279
  109OSM    H5S11195   4.684   4.466  10.263  1.9493 -0.3437 -3.4834
  109OSM    C6S11196   4.567   4.367  10.108  0.3369 -0.4371 -0.3640
  109OSM    H6S11197   4.504   4.455  10.082 -1.2595 -1.8078 -1.3589
  109OSM    H6T11198   4.495   4.286  10.084  0.6242 -0.2399 -2.0226
  109OSM    C7S11199   4.684   4.372  10.006 -0.5167  0.3710 -0.1733
  109OSM    H7S11200   4.767   4.301  10.027 -0.0936  0.2249 -2.1046
  109OSM    H7T11201   4.723   4.476  10.003 -1.7115  1.0555  3.2860
  109OSM    C8S11202   4.627   4.331   9.875  0.5299  0.0788  0.4226
  109OSM    H8S11203   4.518   4.356   9.875  0.4922  0.1134 -1.8618
  109OSM    H8T11204   4.639   4.221   9.873 -0.6297 -0.0496 -1.0832
  109OSM    C9S11205   4.699   4.385   9.758 -0.2489 -0.5673 -0.1177
  109OSM    H9S11206   4.805   4.352   9.752  0.0902  0.6234 -1.2260
  109OSM    H9T11207   4.702   4.496   9.760 -0.9944 -0.5254 -0.6726
  109OSM   C10S11208   4.622   4.364   9.623  0.3847  0.0969  0.7446
  109OSM   H10S11209   4.532   4.427   9.634  0.2698 -0.1817  1.5119
  109OSM   H10T11210   4.589   4.258   9.620  0.3411  0.1370 -1.1294
  109OSM   C11S11211   4.702   4.413   9.504 -0.1583  0.3555  1.0590
  109OSM   H11S11212   4.767   4.327   9.475 -0.2623 -0.0107  1.8888
  109OSM   H11T11213   4.776   4.490   9.535  1.2371 -1.4537  2.5331
  109OSM   C12S11214   4.625   4.450   9.374  0.2617 -0.1270  0.0180
  109OSM   H12S11215   4.569   4.363   9.332  0.2116 -0.7293  1.3027
  109OSM   H12T11216   4.702   4.480   9.300  0.0225  2.1666  0.6169
  109OSM   C13S11217   4.531   4.575   9.379 -0.3444  0.1883 -0.3313
  109OSM   H13S11218   4.573   4.676   9.393 -0.4242 -0.0038  1.5626
  109OSM   H13T11219   4.460   4.556   9.463 -1.8061  0.6049 -1.4278
  109OSM   C14S11220   4.434   4.583   9.260  0.2598 -0.2971 -0.8427
  109OSM   H14S11221   4.338   4.613   9.308  2.2770  1.6589  2.4053
  109OSM   H14T11222   4.418   4.480   9.223  1.2720 -1.0643  0.7135
  109OSM   C15S11223   4.463   4.685   9.161  0.1842  0.0967  0.9069
  109OSM   H15S11224   4.552   4.661   9.098 -2.5756 -1.1430 -2.9112
  109OSM   H15T11225   4.470   4.787   9.204 -1.0806 -0.0111  1.4245
  109OSM   C16S11226   4.353   4.684   9.052 -0.4172 -0.1216  0.0057
  109OSM   H16S11227   4.255   4.701   9.102  0.2963  1.4736  0.9181
  109OSM   H16T11228   4.348   4.581   9.010 -1.1673 -1.4098  2.9916
  109OSM   C17S11229   4.375   4.787   8.941  0.0219  0.2168 -0.7052
  109OSM   H17S11230   4.483   4.775   8.918  0.1734  1.4061 -0.6445
  109OSM   H17T11231   4.375   4.892   8.977  0.1548  0.4788 -1.4397
  109OSM   C18S11232   4.282   4.761   8.826  0.3134 -0.1265  0.4620
  109OSM   H18S11233   4.175   4.745   8.851  0.1545 -2.1644 -1.2952
  109OSM   H18T11234   4.305   4.659   8.788 -0.3592 -0.0374 -0.1955
  109OSM   H18U11235   4.287   4.835   8.743 -3.7535  0.0575  0.1759
  109OSM    C1F11236   4.901   4.053  10.393  0.3162 -0.2876 -0.3316
  109OSM     OF11237   4.866   3.954  10.455 -0.0349  0.1806 -0.1951
  109OSM    C2F11238   4.998   4.044  10.274 -0.2986 -0.4062 -0.0587
  109OSM    H2F11239   5.001   3.938  10.240 -2.0829 -1.4883  2.8279
  109OSM    H2G11240   5.093   4.084  10.314 -0.0596 -0.9897 -0.0372
  109OSM    C3F11241   4.961   4.146  10.164 -0.3143  0.2868  0.7296
  109OSM    H3F11242   4.986   4.249  10.195 -0.8876  0.3645  0.9544
  109OSM    H3G11243   4.851   4.135  10.146 -0.1625 -1.3357  0.5685
  109OSM    C4F11244   5.047   4.111  10.038  0.4705  0.4056 -0.5562
  109OSM    H4F11245   5.006   4.012  10.007  0.6842  0.4160 -0.8783
  109OSM    H4G11246   5.154   4.096  10.067  0.1316  0.0785  0.5459
  109OSM    C5F11247   5.021   4.210   9.926  0.1725 -0.4379  0.5730
  109OSM    H5F11248   4.917   4.189   9.895 -0.0286 -0.0456  0.9761
  109OSM    H5G11249   5.076   4.171   9.837  0.3742 -1.7907  1.2657
  109OSM    C6F11250   5.057   4.358   9.955 -0.0842 -0.7971 -0.1400
  109OSM    H6F11251   5.149   4.364  10.017  1.9041 -0.0120 -2.9832
  109OSM    H6G11252   4.975   4.407  10.011  0.2642  1.6656 -1.6516
  109OSM    C7F11253   5.092   4.442   9.839 -0.4940 -0.3033  0.1748
  109OSM    H7F11254   5.108   4.542   9.885  0.7753 -0.3281 -0.1825
  109OSM    H7G11255   5.011   4.433   9.763  0.3072  1.3370 -0.9376
  109OSM    C8F11256   5.225   4.413   9.773  0.1769 -0.5769 -1.3824
  109OSM    H8F11257   5.220   4.310   9.730  1.3001 -1.1702 -0.1293
  109OSM    H8G11258   5.297   4.407   9.857 -0.7342 -0.1996 -0.5508
  109OSM    C9F11259   5.274   4.519   9.682  0.1253 -0.7740  0.6143
  109OSM    H9F11260   5.346   4.591   9.726  0.7076 -1.5919  1.0245
  109OSM   C10F11261   5.250   4.518   9.544 -0.8248  0.6664  0.3274
  109OSM   H10F11262   5.299   4.599   9.489 -2.4779  0.8320 -0.9687
  109OSM   C11F11263   5.173   4.408   9.481  0.2859  0.3961 -0.3693
  109OSM   H11F11264   5.072   4.441   9.449 -0.6079 -2.5184 -0.8216
  109OSM   H11G11265   5.132   4.332   9.551 -0.7858  0.9254 -0.3979
  109OSM   C12F11266   5.244   4.335   9.363  0.3867 -0.2544  0.3382
  109OSM   H12F11267   5.323   4.283   9.421 -0.3388 -1.6398  0.1412
  109OSM   H12G11268   5.278   4.405   9.284 -1.2320  0.5628  0.3256
  109OSM   C13F11269   5.159   4.224   9.299 -0.1491 -0.2354 -0.1324
  109OSM   H13F11270   5.068   4.273   9.258  0.7672  1.4367 -0.2605
  109OSM   H13G11271   5.121   4.158   9.380  2.1055 -2.1215 -0.5012
  109OSM   C14F11272   5.225   4.147   9.187  0.4955 -0.0652 -0.6522
  109OSM   H14F11273   5.330   4.118   9.209  0.7816 -0.6450 -2.5470
  109OSM   H14G11274   5.221   4.214   9.099 -0.0967  1.5776  0.5751
  109OSM   C15F11275   5.149   4.019   9.156  0.1263 -0.1704  0.5432
  109OSM   H15F11276   5.050   4.056   9.123  0.2356  1.1520  1.5933
  109OSM   H15G11277   5.132   3.961   9.249  2.0122  1.3963  1.9465
  109OSM   C16F11278   5.230   3.930   9.052  1.1322 -0.2633 -0.0706
  109OSM   H16F11279   5.179   3.835   9.025 -0.8980  1.2150 -1.8334
  109OSM   H16G11280   5.325   3.895   9.096  1.6821 -1.0053 -1.7506
  109OSM   C17F11281   5.271   4.001   8.920 -0.2148  0.4340 -0.2466
  109OSM   H17F11282   5.334   4.089   8.944  1.2184 -0.1487 -1.6622
  109OSM   H17G11283   5.171   4.030   8.881 -2.0001  0.0258  3.5682
  109OSM   C18F11284   5.347   3.919   8.827  0.0775 -0.1601  0.5090
  109OSM   H18F11285   5.375   3.977   8.736  0.5398  1.7919  1.8344
  109OSM   H18G11286   5.289   3.827   8.804 -3.2751  1.4705  1.7033
  109OSM   H18H11287   5.444   3.888   8.871 -0.0040  0.1334  0.9011
  110OSM      N11288   5.754   3.698  10.994  0.2733  0.2897  0.0241
  110OSM    C1511289   5.797   3.593  11.095  0.4644  0.6819 -0.0610
  110OSM   H15A11290   5.894   3.549  11.076  0.1675 -0.4169  0.8394
  110OSM   H15B11291   5.727   3.511  11.093 -1.2796  2.0920 -2.0528
  110OSM   H15C11292   5.806   3.630  11.196  1.9780 -1.8573  0.8281
  110OSM    C1411293   5.615   3.745  11.026  0.4546  0.4051 -0.0585
  110OSM   H14A11294   5.550   3.659  11.027  0.4011  0.4313 -0.8070
  110OSM   H14B11295   5.583   3.804  10.942  1.5080  1.6212  0.3620
  110OSM   H14C11296   5.601   3.806  11.115 -1.7850  1.0923 -0.8032
  110OSM    C1311297   5.837   3.822  10.995  0.3348  0.2464  0.4746
  110OSM   H13A11298   5.936   3.792  10.962  0.1262  1.1379 -1.0142
  110OSM   H13B11299   5.835   3.858  11.097  0.9701 -1.2752  1.0621
  110OSM   H13C11300   5.791   3.892  10.927  0.6591 -0.4527 -0.4840
  110OSM    C1211301   5.757   3.638  10.854 -0.2315  0.4226 -0.1942
  110OSM   H12A11302   5.723   3.713  10.784 -0.9912  0.5186  0.2621
  110OSM   H12B11303   5.686   3.557  10.843  0.5464 -0.0122 -2.6283
  110OSM    C1111304   5.892   3.581  10.807 -0.4756  0.1629  0.4981
  110OSM   H11A11305   5.963   3.666  10.802  1.0507 -1.0454  0.7917
  110OSM   H11B11306   5.886   3.527  10.710  2.3629 -2.6572  1.7268
  110OSM      P11307   6.054   3.383  10.862 -0.1808  0.5604  0.0356
  110OSM    O1311308   6.145   3.355  10.973 -0.4642  0.0858 -0.4100
  110OSM    O1411309   5.961   3.278  10.807  0.4461 -0.6826 -0.0378
  110OSM    O1111310   6.134   3.434  10.731  0.1914  0.5555  0.2699
  110OSM    O1211311   5.955   3.496  10.904  0.4137 -0.5287 -0.3221
  110OSM    C1S11312   6.239   3.351  10.671 -0.2144  0.0120 -0.5209
  110OSM    H1S11313   6.228   3.248  10.712  1.3427  0.2984  0.7074
  110OSM    H1T11314   6.339   3.389  10.698 -0.6569 -0.8010  2.7281
  110OSM     NF11315   6.296   3.228  10.458 -0.3532  0.3884 -0.5461
  110OSM    HNF11316   6.353   3.256  10.381 -2.0165  1.0723 -1.5929
  110OSM    C2S11317   6.226   3.342  10.519 -0.4857 -0.5295 -0.4031
  110OSM    H2S11318   6.117   3.325  10.502 -0.7151 -1.7136  1.9044
  110OSM    C3S11319   6.259   3.478  10.451 -0.0918  0.1984  0.2275
  110OSM    H3S11320   6.363   3.514  10.465 -0.3566  0.3473  2.1182
  110OSM     O311321   6.186   3.588  10.510 -0.3237 -0.1633  0.0532
  110OSM    HO311322   6.154   3.542  10.589 -0.3949  1.4286  0.9876
  110OSM    C4S11323   6.233   3.467  10.303 -0.2758 -0.2865  0.1403
  110OSM    H4S11324   6.134   3.429  10.273 -0.1426  0.2539 -1.0391
  110OSM    C5S11325   6.326   3.492  10.211  0.5518 -0.2285  0.6201
  110OSM    H5S11326   6.424   3.537  10.236 -0.3291  3.4140 -1.7647
  110OSM    C6S11327   6.312   3.470  10.063 -0.0357  0.2268  0.0036
  110OSM    H6S11328   6.205   3.474  10.033  0.1792 -1.0997 -1.0142
  110OSM    H6T11329   6.353   3.373  10.030  2.6286  1.4059 -0.4035
  110OSM    C7S11330   6.393   3.575   9.990  0.7389  0.7713 -0.0759
  110OSM    H7S11331   6.502   3.570  10.012  0.9668  3.9708  0.0529
  110OSM    H7T11332   6.368   3.677  10.025  2.2871  0.9151  0.7165
  110OSM    C8S11333   6.367   3.563   9.843 -0.1387 -0.3951 -0.3006
  110OSM    H8S11334   6.261   3.568   9.809 -0.7155 -0.1187  1.4153
  110OSM    H8T11335   6.387   3.457   9.817 -0.6474 -0.8249  0.9406
  110OSM    C9S11336   6.444   3.667   9.754 -0.8767  0.9489  0.5008
  110OSM    H9S11337   6.544   3.693   9.795 -0.9491  0.7492  0.8165
  110OSM    H9T11338   6.378   3.756   9.757 -0.8375  0.9528  1.7486
  110OSM   C10S11339   6.449   3.628   9.606 -0.1235  0.3161  0.7830
  110OSM   H10S11340   6.516   3.540   9.595  0.7783  1.2587 -2.5920
  110OSM   H10T11341   6.498   3.706   9.542 -1.3383 -0.1990 -0.8578
  110OSM   C11S11342   6.322   3.596   9.534 -0.2261 -0.1392 -0.2425
  110OSM   H11S11343   6.247   3.674   9.559 -0.1302  0.6246 -2.1542
  110OSM   H11T11344   6.283   3.496   9.563  0.1107 -0.3067 -0.3577
  110OSM   C12S11345   6.319   3.606   9.381  0.4841 -0.0223  0.2376
  110OSM   H12S11346   6.356   3.704   9.345  0.2232 -0.5612 -1.6025
  110OSM   H12T11347   6.210   3.615   9.361  0.6364  1.5294  0.0197
  110OSM   C13S11348   6.383   3.486   9.314  0.5282 -0.5561 -0.2331
  110OSM   H13S11349   6.327   3.401   9.359  0.1021 -0.6938 -0.9908
  110OSM   H13T11350   6.490   3.481   9.342  0.7498 -1.6200 -1.1703
  110OSM   C14S11351   6.371   3.492   9.163 -0.2538  0.0085 -0.4109
  110OSM   H14S11352   6.412   3.588   9.128  3.5775 -1.1538  0.4189
  110OSM   H14T11353   6.262   3.482   9.143 -0.6229  3.5246 -0.6212
  110OSM   C15S11354   6.449   3.384   9.090 -0.0480 -0.3390 -0.8166
  110OSM   H15S11355   6.444   3.288   9.146  1.4364 -0.9016 -1.5797
  110OSM   H15T11356   6.556   3.414   9.093 -0.1047 -0.2023  1.2978
  110OSM   C16S11357   6.389   3.372   8.953  0.0437  0.6381 -0.1431
  110OSM   H16S11358   6.288   3.327   8.963  0.6542 -0.5654  1.0725
  110OSM   H16T11359   6.452   3.304   8.892 -0.9072 -0.8550  0.4761
  110OSM   C17S11360   6.380   3.499   8.867  0.1857  0.0735  0.0452
  110OSM   H17S11361   6.468   3.560   8.898  0.1270  0.8001 -1.1347
  110OSM   H17T11362   6.284   3.551   8.888 -0.0808 -0.5625  0.4195
  110OSM   C18S11363   6.387   3.469   8.714 -0.0607  0.1289  0.1018
  110OSM   H18S11364   6.289   3.423   8.689  0.4001 -0.3882 -0.8137
  110OSM   H18T11365   6.463   3.400   8.671  2.1691  1.7054  1.3499
  110OSM   H18U11366   6.394   3.557   8.647 -1.2593 -1.9503 -2.9957
  110OSM    C1F11367   6.280   3.100  10.482  0.4450  0.5417 -0.0411
  110OSM     OF11368   6.194   3.061  10.554 -0.2938  0.6500 -0.1098
  110OSM    C2F11369   6.369   3.007  10.415 -0.7028  0.0650  0.1392
  110OSM    H2F11370   6.403   2.939  10.496 -0.9145 -1.3722 -0.9408
  110OSM    H2G11371   6.465   3.056  10.389  1.3276 -1.3776  4.0071
  110OSM    C3F11372   6.301   2.942  10.295 -0.6515 -0.2264 -0.0137
  110OSM    H3F11373   6.207   2.891  10.326 -1.6436 -0.0394 -2.4605
  110OSM    H3G11374   6.370   2.858  10.268  0.1038  0.7259 -1.1363
  110OSM    C4F11375   6.288   3.031  10.173  0.7030 -0.2818 -0.2464
  110OSM    H4F11376   6.389   3.064  10.142  1.1715  1.1173  2.5440
  110OSM    H4G11377   6.235   3.126  10.194  1.3680 -0.0456  0.3839
  110OSM    C5F11378   6.230   2.941  10.049  0.1254 -0.4113  0.1863
  110OSM    H5F11379   6.147   2.878  10.089 -0.9846 -0.1581 -1.6055
  110OSM    H5G11380   6.301   2.858  10.033  1.0383  0.4433 -0.2519
  110OSM    C6F11381   6.175   3.027   9.935  0.2030 -0.6386  0.4741
  110OSM    H6F11382   6.241   3.110   9.903  2.7102 -2.9966 -0.8847
  110OSM    H6G11383   6.083   3.073   9.977 -0.3685 -2.4430  1.3194
  110OSM    C7F11384   6.153   2.952   9.804  0.5982 -0.2362 -0.0994
  110OSM    H7F11385   6.087   3.012   9.738 -0.8343 -2.2036 -0.5385
  110OSM    H7G11386   6.092   2.862   9.824 -2.1113  1.1608 -1.5147
  110OSM    C8F11387   6.284   2.893   9.738  0.1819  0.1393 -0.3862
  110OSM    H8F11388   6.265   2.824   9.652  0.7477 -1.0653  0.4352
  110OSM    H8G11389   6.333   2.826   9.811 -1.6562  0.3656  1.1392
  110OSM    C9F11390   6.387   2.995   9.695  0.0458  0.0269 -0.0829
  110OSM    H9F11391   6.480   3.013   9.751 -0.9040  1.0828  1.2135
  110OSM   C10F11392   6.380   3.061   9.574 -0.2110  0.1412 -0.0344
  110OSM   H10F11393   6.453   3.139   9.546 -0.2264  0.4331  0.6972
  110OSM   C11F11394   6.268   3.039   9.471  0.1023  0.0230  0.0240
  110OSM   H11F11395   6.224   3.137   9.443  0.3732 -0.5625 -2.8112
  110OSM   H11G11396   6.194   2.962   9.500  0.4531 -0.7340 -1.0317
  110OSM   C12F11397   6.321   2.980   9.336  0.6046 -0.3937  0.1316
  110OSM   H12F11398   6.370   2.887   9.373 -0.9316 -1.5220 -0.5065
  110OSM   H12G11399   6.404   3.038   9.292 -0.3440  0.8402 -0.0904
  110OSM   C13F11400   6.212   2.954   9.237 -0.4328  0.0616  0.6110
  110OSM   H13F11401   6.152   3.048   9.234  1.2635  1.3397  3.2513
  110OSM   H13G11402   6.137   2.876   9.262 -0.1419 -0.4751 -0.1476
  110OSM   C14F11403   6.266   2.915   9.092  0.2171 -0.2709  0.0904
  110OSM   H14F11404   6.308   2.812   9.091  0.9590  0.0324 -0.2338
  110OSM   H14G11405   6.349   2.978   9.054 -0.7405  1.6829  1.1136
  110OSM   C15F11406   6.148   2.918   8.989 -0.4009  0.6672 -0.1303
  110OSM   H15F11407   6.114   3.024   8.982  0.7057  1.1601  1.5592
  110OSM   H15G11408   6.066   2.853   9.025  1.2146 -0.8847  0.8776
  110OSM   C16F11409   6.209   2.886   8.853  0.7257  0.0298  0.0681
  110OSM   H16F11410   6.126   2.847   8.791  1.3496 -0.1710 -0.6562
  110OSM   H16G11411   6.288   2.809   8.871  1.6395  0.4647 -1.8278
  110OSM   C17F11412   6.278   3.009   8.792  0.1528 -0.5389  0.4125
  110OSM   H17F11413   6.353   3.048   8.864  0.1282 -0.2694  0.2922
  110OSM   H17G11414   6.194   3.081   8.782  0.9439  0.2595 -0.6389
  110OSM   C18F11415   6.350   2.982   8.664  0.2534  0.0412 -0.1868
  110OSM   H18F11416   6.280   2.989   8.578 -3.6025  1.0600  2.8011
  110OSM   H18G11417   6.409   2.888   8.664 -1.3830 -1.0365  1.6490
  110OSM   H18H11418   6.419   3.069   8.657  0.0511  0.2738  0.6463
  111OSM      N11419   0.974   1.118  10.820  0.3400  0.8827 -0.5769
  111OSM    C1511420   1.061   1.123  10.940 -0.3245 -0.5358 -0.8176
  111OSM   H15A11421   1.030   1.210  10.996  0.6525 -0.4234 -0.4363
  111OSM   H15B11422   1.166   1.125  10.916 -0.4192  2.4768 -1.3132
  111OSM   H15C11423   1.054   1.044  11.014  0.5282  0.1551  0.0395
  111OSM    C1411424   1.018   1.220  10.723  0.5313 -0.4533  0.7093
  111OSM   H14A11425   1.015   1.318  10.768  0.6334 -0.2762  0.3317
  111OSM   H14B11426   0.956   1.211  10.635 -1.7033 -2.4851  2.3259
  111OSM   H14C11427   1.120   1.213  10.689 -0.8370 -2.0297 -3.8487
  111OSM    C1311428   0.992   0.981  10.758 -0.7767 -0.7204  0.2023
  111OSM   H13A11429   1.098   0.966  10.741 -1.0628 -0.6314 -1.8769
  111OSM   H13B11430   0.950   0.984  10.659  0.8028  1.8639 -0.4634
  111OSM   H13C11431   0.939   0.900  10.807 -1.1273 -1.4742 -1.3441
  111OSM    C1211432   0.832   1.145  10.860  0.1773  0.2839 -0.8061
  111OSM   H12A11433   0.822   1.239  10.914  3.6308  0.5416 -0.4276
  111OSM   H12B11434   0.799   1.082  10.941  0.2060  0.9422 -0.2657
  111OSM    C1111435   0.729   1.139  10.742 -0.4718  0.4789  0.1737
  111OSM   H11A11436   0.631   1.159  10.791 -1.9107 -0.3457 -2.1962
  111OSM   H11B11437   0.716   1.032  10.715 -1.4941 -0.3602  3.4791
  111OSM      P11438   0.718   1.361  10.609  0.1452 -0.0250  0.0136
  111OSM    O1311439   0.591   1.387  10.675 -0.2269  0.6761  0.1570
  111OSM    O1411440   0.832   1.440  10.653  0.0614  0.0871  0.5744
  111OSM    O1111441   0.696   1.379  10.454 -0.6509  0.2762 -0.6968
  111OSM    O1211442   0.756   1.208  10.623 -0.2024  0.1943  0.0402
  111OSM    C1S11443   0.820   1.399  10.383  0.2319  0.0486 -0.3431
  111OSM    H1S11444   0.901   1.334  10.421  1.4100  1.6027 -0.1072
  111OSM    H1T11445   0.853   1.506  10.383 -0.5029  0.3087  0.9556
  111OSM     NF11446   0.906   1.374  10.156 -0.2482 -0.6081 -0.0328
  111OSM    HNF11447   0.920   1.465  10.118  1.9044 -1.0911 -0.5525
  111OSM    C2S11448   0.783   1.368  10.232 -0.2879 -0.1339  0.6194
  111OSM    H2S11449   0.743   1.264  10.232 -0.0610 -0.2227  0.2857
  111OSM    C3S11450   0.675   1.457  10.176 -0.6480 -0.0317 -0.2011
  111OSM    H3S11451   0.726   1.556  10.175  1.3616 -0.9372  2.2289
  111OSM     O311452   0.554   1.457  10.260  0.5490 -1.0045 -0.3118
  111OSM    HO311453   0.595   1.438  10.345  0.3017 -1.5607 -0.3158
  111OSM    C4S11454   0.642   1.418  10.039  0.4739  0.8114  0.4574
  111OSM    H4S11455   0.612   1.314  10.021  2.3695  0.1585  0.8099
  111OSM    C5S11456   0.637   1.500   9.934  0.5789 -0.0344 -0.1896
  111OSM    H5S11457   0.662   1.606   9.946 -1.6602  0.2553  3.6104
  111OSM    C6S11458   0.611   1.476   9.786 -0.0028 -0.8154  0.0189
  111OSM    H6S11459   0.522   1.537   9.758  0.3399 -0.5027 -0.4007
  111OSM    H6T11460   0.600   1.367   9.767  0.2986 -0.9341  0.5175
  111OSM    C7S11461   0.720   1.532   9.703 -0.4020  0.2079 -0.0998
  111OSM    H7S11462   0.818   1.503   9.744 -0.7297  1.7796  1.9699
  111OSM    H7T11463   0.718   1.643   9.691 -2.4195  0.2002 -0.2127
  111OSM    C8S11464   0.701   1.491   9.552  0.4680 -0.1099  0.8062
  111OSM    H8S11465   0.613   1.551   9.522 -1.6122 -1.7607  3.2457
  111OSM    H8T11466   0.674   1.384   9.543  2.3713 -0.5127 -0.6886
  111OSM    C9S11467   0.812   1.537   9.462  0.8346  0.6804  0.1492
  111OSM    H9S11468   0.910   1.498   9.496  0.7413  1.2601  1.1495
  111OSM    H9T11469   0.807   1.648   9.471  0.2122  0.5375  2.0322
  111OSM   C10S11470   0.802   1.502   9.313 -0.2513 -0.5173 -0.0567
  111OSM   H10S11471   0.701   1.519   9.269 -1.2530 -1.0880  1.8763
  111OSM   H10T11472   0.825   1.393   9.313  1.5300 -0.1711  0.4479
  111OSM   C11S11473   0.916   1.561   9.235  0.5685  0.1807 -0.8539
  111OSM   H11S11474   1.018   1.554   9.279  0.7973 -2.1727 -1.6090
  111OSM   H11T11475   0.908   1.672   9.232 -2.3322  0.2111  2.1283
  111OSM   C12S11476   0.909   1.515   9.085 -0.1100 -0.4880 -0.1347
  111OSM   H12S11477   0.806   1.517   9.043 -0.7679  0.4479  1.4177
  111OSM   H12T11478   0.937   1.408   9.073 -0.1663 -0.3344 -1.7669
  111OSM   C13S11479   0.995   1.612   8.991 -0.0891  0.3973 -0.4463
  111OSM   H13S11480   0.943   1.706   9.018  0.7922  0.7107  0.1845
  111OSM   H13T11481   0.975   1.576   8.888 -0.1621 -1.8877  0.3027
  111OSM   C14S11482   1.146   1.619   9.022 -0.2662 -0.6783 -0.5367
  111OSM   H14S11483   1.150   1.674   9.119  1.1569  0.8798 -1.4213
  111OSM   H14T11484   1.190   1.692   8.951 -2.8740  2.0837  0.4914
  111OSM   C15S11485   1.231   1.495   9.014  0.0147 -0.3717 -0.4058
  111OSM   H15S11486   1.193   1.419   9.087 -0.4277  1.3112  1.2008
  111OSM   H15T11487   1.338   1.509   9.040 -0.1871 -0.1302  0.3277
  111OSM   C16S11488   1.228   1.417   8.878 -0.2988 -0.3136 -0.7298
  111OSM   H16S11489   1.130   1.369   8.856 -0.9757  1.0307 -0.6996
  111OSM   H16T11490   1.302   1.334   8.884 -0.1031 -0.1000 -0.1822
  111OSM   C17S11491   1.272   1.496   8.751 -0.6810 -0.3480  0.1753
  111OSM   H17S11492   1.325   1.582   8.798  0.8570  0.2204 -2.4114
  111OSM   H17T11493   1.191   1.543   8.692 -0.4010  0.9779  0.8098
  111OSM   C18S11494   1.378   1.424   8.655  0.1452  0.0410  0.1397
  111OSM   H18S11495   1.409   1.483   8.567  0.7315  1.0047  0.9792
  111OSM   H18T11496   1.327   1.333   8.616 -2.7154  1.0745  1.2216
  111OSM   H18U11497   1.473   1.401   8.707  0.2142 -0.3196 -0.1347
  111OSM    C1F11498   1.008   1.286  10.153  1.3082 -0.5477  0.6151
  111OSM     OF11499   1.004   1.188  10.228 -0.3485  0.0279 -0.2038
  111OSM    C2F11500   1.132   1.317  10.078 -0.3653  0.3734  0.2383
  111OSM    H2F11501   1.209   1.310  10.158 -1.0839 -2.0630  0.8061
  111OSM    H2G11502   1.116   1.418  10.035  1.2458  1.6865  2.5019
  111OSM    C3F11503   1.168   1.224   9.960 -0.3330 -1.0176 -0.6338
  111OSM    H3F11504   1.146   1.119   9.991 -0.4935 -0.4682  1.2637
  111OSM    H3G11505   1.273   1.231   9.925 -0.1481  0.6330  0.1669
  111OSM    C4F11506   1.088   1.257   9.832 -0.1313 -0.1942  0.2866
  111OSM    H4F11507   1.132   1.344   9.779  1.9140 -0.6810  1.0808
  111OSM    H4G11508   0.988   1.276   9.876  0.8157  1.3830  1.9005
  111OSM    C5F11509   1.077   1.139   9.738  0.3410 -0.3014  0.3018
  111OSM    H5F11510   1.033   1.054   9.795 -0.7547 -0.0362 -0.1251
  111OSM    H5G11511   1.178   1.111   9.703  1.0063  2.5830 -0.3073
  111OSM    C6F11512   0.992   1.179   9.620 -0.9312  0.3621 -0.8519
  111OSM    H6F11513   0.930   1.264   9.657  0.5271  0.9114  0.4472
  111OSM    H6G11514   0.921   1.097   9.596 -0.2501 -1.0656  1.6349
  111OSM    C7F11515   1.073   1.210   9.490 -0.4731 -0.7276 -0.5338
  111OSM    H7F11516   1.133   1.303   9.500  0.9188 -1.2747 -2.8803
  111OSM    H7G11517   0.997   1.235   9.412 -1.5532  0.3413  0.8146
  111OSM    C8F11518   1.157   1.099   9.438 -0.2919 -0.1322 -0.0304
  111OSM    H8F11519   1.099   1.012   9.400  2.0077 -0.9196 -2.0297
  111OSM    H8G11520   1.219   1.051   9.517  1.5378  0.6268 -0.9268
  111OSM    C9F11521   1.257   1.148   9.331  0.2264 -0.1532  0.0857
  111OSM    H9F11522   1.332   1.223   9.360 -0.0104  0.6777 -1.4109
  111OSM   C10F11523   1.246   1.105   9.202  0.2539  0.3481  0.2673
  111OSM   H10F11524   1.326   1.142   9.136 -0.1750  0.1093 -0.3910
  111OSM   C11F11525   1.156   1.000   9.147  1.0678 -0.0927 -0.1131
  111OSM   H11F11526   1.054   1.006   9.192  1.1379  0.6458 -0.0534
  111OSM   H11G11527   1.202   0.908   9.192  1.6650  0.5960  0.7240
  111OSM   C12F11528   1.162   1.003   8.992 -0.4310  0.5393 -0.7248
  111OSM   H12F11529   1.266   0.970   8.967 -1.0250 -1.3139 -0.8870
  111OSM   H12G11530   1.141   1.106   8.956  0.9425  0.6855 -1.1763
  111OSM   C13F11531   1.061   0.900   8.937 -0.1288 -0.5704  0.1214
  111OSM   H13F11532   0.963   0.950   8.955 -1.0285 -2.4896  0.7932
  111OSM   H13G11533   1.081   0.811   9.000  2.7721  0.0760  0.2895
  111OSM   C14F11534   1.070   0.874   8.786  0.3398 -0.1550  0.0392
  111OSM   H14F11535   1.169   0.828   8.764 -0.2280 -1.0899 -0.6532
  111OSM   H14G11536   1.052   0.967   8.729  1.1519  1.7205  2.6375
  111OSM   C15F11537   0.974   0.763   8.734  0.0567 -0.5915  0.2257
  111OSM   H15F11538   0.986   0.676   8.801 -1.2203 -0.6586  0.3823
  111OSM   H15G11539   0.997   0.740   8.628 -0.0941  1.5077 -0.3228
  111OSM   C16F11540   0.820   0.799   8.740  0.4089  0.8111 -1.1525
  111OSM   H16F11541   0.794   0.868   8.657  0.5302  0.1253 -1.7695
  111OSM   H16G11542   0.800   0.859   8.831  1.9987 -0.4344  0.0938
  111OSM   C17F11543   0.735   0.673   8.735 -0.2084 -0.0547 -0.6379
  111OSM   H17F11544   0.765   0.609   8.650  0.3883 -2.4657  1.2589
  111OSM   H17G11545   0.632   0.710   8.716 -0.1759  0.0567 -0.5991
  111OSM   C18F11546   0.740   0.584   8.865 -0.5777  0.0450 -0.3704
  111OSM   H18F11547   0.681   0.492   8.845  1.6520 -1.3293 -1.0138
  111OSM   H18G11548   0.692   0.637   8.951 -0.1080  0.4315 -0.3397
  111OSM   H18H11549   0.840   0.536   8.867 -0.8688 -0.7511 -2.5294
  112OSM      N11550   5.969   5.137  11.071  0.2594  0.5320 -0.1725
  112OSM    C1511551   5.998   4.994  11.092  0.0610  0.0321  0.4363
  112OSM   H15A11552   6.104   4.985  11.074  0.6549  3.9263  1.1105
  112OSM   H15B11553   5.948   4.924  11.027  0.2780  1.1399 -0.9534
  112OSM   H15C11554   5.967   4.961  11.190 -2.8612 -1.8389 -0.9706
  112OSM    C1411555   5.830   5.154  11.116  0.7099 -0.2555  0.3920
  112OSM   H14A11556   5.810   5.123  11.218  0.2534  1.1786  0.7692
  112OSM   H14B11557   5.770   5.104  11.042 -0.1478  1.4077 -0.0863
  112OSM   H14C11558   5.801   5.258  11.113 -2.5903 -1.1026 -0.6924
  112OSM    C1311559   6.069   5.212  11.160  0.5018 -0.5687  0.6910
  112OSM   H13A11560   6.173   5.196  11.137  0.5362  0.4131  0.1186
  112OSM   H13B11561   6.054   5.165  11.256  1.5125 -2.1629  0.1122
  112OSM   H13C11562   6.060   5.319  11.173  1.3596 -0.1767 -1.4991
  112OSM    C1211563   5.984   5.180  10.928  0.0162  0.5403 -0.3447
  112OSM   H12A11564   5.935   5.276  10.928 -0.9673  0.0664  0.7089
  112OSM   H12B11565   5.921   5.118  10.866 -1.7143  1.9489 -0.0720
  112OSM    C1111566   6.123   5.183  10.858  0.5635  0.8100 -0.1257
  112OSM   H11A11567   6.095   5.189  10.751  0.5226 -0.8014 -0.2266
  112OSM   H11B11568   6.176   5.087  10.880 -2.1841 -0.9600 -0.6950
  112OSM      P11569   6.160   5.451  10.860  0.6723  0.1832 -0.2409
  112OSM    O1311570   6.010   5.463  10.858 -0.3489 -0.4344  0.4648
  112OSM    O1411571   6.230   5.544  10.952 -0.4320  0.3723 -0.0013
  112OSM    O1111572   6.212   5.472  10.715 -0.2277  0.1916  0.0014
  112OSM    O1211573   6.198   5.304  10.900 -0.3758  0.2894  0.0877
  112OSM    C1S11574   6.123   5.449  10.605  0.7030 -0.2110 -1.0837
  112OSM    H1S11575   6.070   5.543  10.579 -0.1302 -0.3568 -0.0305
  112OSM    H1T11576   6.043   5.375  10.626 -0.5097  1.2344 -0.4091
  112OSM     NF11577   6.127   5.428  10.362  0.1609  0.3589 -0.2458
  112OSM    HNF11578   6.080   5.349  10.323  1.4041  0.4004 -1.9499
  112OSM    C2S11579   6.211   5.401  10.480  0.6864 -0.1417  0.1932
  112OSM    H2S11580   6.302   5.464  10.474  0.3653  0.2098 -1.3390
  112OSM    C3S11581   6.257   5.251  10.492 -0.2482  0.7208 -1.1341
  112OSM    H3S11582   6.175   5.176  10.503  0.3620  0.1828 -0.1675
  112OSM     O311583   6.329   5.215  10.616 -0.1095 -0.1458  0.1143
  112OSM    HO311584   6.333   5.295  10.669  1.2448 -0.0040 -0.1612
  112OSM    C4S11585   6.338   5.217  10.367 -0.0326 -0.3557  0.3399
  112OSM    H4S11586   6.271   5.202  10.281 -3.0224  2.6091  1.9217
  112OSM    C5S11587   6.470   5.215  10.349  0.0858  0.0566 -0.6366
  112OSM    H5S11588   6.533   5.243  10.435 -0.0272  2.7407 -1.3363
  112OSM    C6S11589   6.549   5.177  10.228 -0.7511  0.2632 -0.2580
  112OSM    H6S11590   6.627   5.101  10.250 -0.6289  0.5171  0.2033
  112OSM    H6T11591   6.605   5.272  10.211  2.9666 -1.2468  2.1836
  112OSM    C7S11592   6.468   5.142  10.105  0.1123  0.4156  0.4462
  112OSM    H7S11593   6.378   5.206  10.099 -0.2826 -0.2293 -0.9178
  112OSM    H7T11594   6.443   5.034  10.117  1.3318  0.1738  0.9933
  112OSM    C8S11595   6.554   5.156   9.977  0.0786  0.0383 -0.2306
  112OSM    H8S11596   6.643   5.094  10.002  0.9466  0.8200 -1.2817
  112OSM    H8T11597   6.579   5.263   9.962 -1.2318  0.5510  0.9269
  112OSM    C9S11598   6.480   5.112   9.855  0.7816 -0.4013 -0.6980
  112OSM    H9S11599   6.396   5.178   9.826  0.6050  0.2043  1.0733
  112OSM    H9T11600   6.437   5.010   9.868 -1.7715  0.5757 -0.8480
  112OSM   C10S11601   6.565   5.117   9.727  0.0489  0.1885  0.2155
  112OSM   H10S11602   6.615   5.018   9.716 -0.2883  0.3080 -3.8243
  112OSM   H10T11603   6.647   5.190   9.716  0.4206 -0.3029 -0.3333
  112OSM   C11S11604   6.475   5.122   9.598 -0.1244  0.0612 -0.7542
  112OSM   H11S11605   6.462   5.227   9.566  0.5953 -0.1514 -1.7786
  112OSM   H11T11606   6.371   5.087   9.619 -0.5997  1.9506  0.2452
  112OSM   C12S11607   6.537   5.045   9.481 -0.1925  0.4924  0.2723
  112OSM   H12S11608   6.538   4.939   9.513 -0.1840 -0.2858 -2.1277
  112OSM   H12T11609   6.637   5.088   9.461 -0.6276  0.8085 -1.3056
  112OSM   C13S11610   6.440   5.060   9.364 -0.2413 -0.2055 -0.5398
  112OSM   H13S11611   6.434   5.166   9.332  1.3997  0.0231 -0.2029
  112OSM   H13T11612   6.338   5.017   9.374 -0.5922  0.9963  1.4387
  112OSM   C14S11613   6.499   5.007   9.234  0.2661  0.2826  0.5080
  112OSM   H14S11614   6.514   4.899   9.255 -2.4383 -0.5080 -1.1381
  112OSM   H14T11615   6.594   5.059   9.208  0.7859 -1.2630 -0.8786
  112OSM   C15S11616   6.401   5.004   9.115 -0.2885 -0.3002 -0.5167
  112OSM   H15S11617   6.350   5.102   9.108  2.7014  1.5075  0.9425
  112OSM   H15T11618   6.322   4.928   9.134  0.2013 -1.2267 -2.0004
  112OSM   C16S11619   6.461   4.958   8.981 -0.4394 -0.2301  0.6137
  112OSM   H16S11620   6.492   4.852   8.980 -0.2386 -0.2260 -2.6260
  112OSM   H16T11621   6.549   5.022   8.955  0.2549 -1.8749 -1.2596
  112OSM   C17S11622   6.362   4.967   8.874  0.0402  0.3148  0.0849
  112OSM   H17S11623   6.277   4.902   8.902 -0.5946  1.2784  0.4405
  112OSM   H17T11624   6.407   4.910   8.790  0.7831  0.3730  0.4369
  112OSM   C18S11625   6.314   5.098   8.828 -0.2471 -0.4345 -0.0140
  112OSM   H18S11626   6.251   5.093   8.736  1.5953  2.7268 -1.6368
  112OSM   H18T11627   6.399   5.169   8.818 -2.0867  2.0405  0.8735
  112OSM   H18U11628   6.243   5.139   8.903 -0.9225 -0.5668 -0.5671
  112OSM    C1F11629   6.092   5.547  10.319  0.1214  0.3310 -0.5209
  112OSM     OF11630   6.141   5.647  10.373  0.2025 -0.1829 -0.5563
  112OSM    C2F11631   5.993   5.572  10.210 -0.1622 -0.4117 -0.3751
  112OSM    H2F11632   6.034   5.667  10.169  1.2247 -1.0926 -0.5895
  112OSM    H2G11633   5.898   5.607  10.256  1.2140  1.6337  1.1036
  112OSM    C3F11634   5.983   5.465  10.098 -0.6060  0.1898  0.1396
  112OSM    H3F11635   5.892   5.489  10.039 -1.0571 -0.0173  0.7388
  112OSM    H3G11636   5.954   5.365  10.138  0.3698  0.6210  2.0661
  112OSM    C4F11637   6.104   5.453  10.000 -0.2147  0.9075 -0.4492
  112OSM    H4F11638   6.195   5.436  10.062  0.5745  0.3145 -1.7208
  112OSM    H4G11639   6.115   5.551   9.949  0.4818  1.3420  0.5005
  112OSM    C5F11640   6.083   5.334   9.902 -0.7104 -0.5720 -0.6155
  112OSM    H5F11641   6.145   5.253   9.947  1.7466  0.6305 -1.6159
  112OSM    H5G11642   6.136   5.352   9.807 -0.3777 -0.2875 -0.3781
  112OSM    C6F11643   5.943   5.278   9.862 -0.2338 -0.8920  0.2156
  112OSM    H6F11644   5.882   5.355   9.811 -0.6374 -0.6324  1.0712
  112OSM    H6G11645   5.881   5.246   9.949 -1.2018  2.8676  1.0581
  112OSM    C7F11646   5.960   5.167   9.761  0.5996  0.5546 -0.2152
  112OSM    H7F11647   5.999   5.081   9.820  0.1966  1.9293  2.2240
  112OSM    H7G11648   6.023   5.200   9.676  1.1947  0.3887  0.1548
  112OSM    C8F11649   5.824   5.119   9.699  0.4847 -0.3527 -0.3333
  112OSM    H8F11650   5.790   5.191   9.621 -0.4181  0.0035  0.3637
  112OSM    H8G11651   5.738   5.126   9.770 -0.0966  0.9306 -1.1104
  112OSM    C9F11652   5.840   4.981   9.637 -0.1907  0.0263 -0.3384
  112OSM    H9F11653   5.892   4.917   9.709 -1.7891  1.2096  2.0046
  112OSM   C10F11654   5.818   4.943   9.511 -0.2918 -0.5084 -0.2473
  112OSM   H10F11655   5.835   4.838   9.481  1.7370 -1.0222  2.3777
  112OSM   C11F11656   5.769   5.033   9.401  0.2205  0.0853  0.5696
  112OSM   H11F11657   5.699   5.113   9.433 -1.2433 -0.8770 -0.1391
  112OSM   H11G11658   5.701   4.968   9.341  0.6823 -1.3355  1.5576
  112OSM   C12F11659   5.865   5.103   9.301 -1.1409  0.4961 -0.2284
  112OSM   H12F11660   5.811   5.156   9.220  0.3431  0.8694 -1.0157
  112OSM   H12G11661   5.934   5.024   9.263 -0.6096 -0.1137  1.8696
  112OSM   C13F11662   5.968   5.205   9.377 -0.1940  0.3472  0.2057
  112OSM   H13F11663   6.034   5.149   9.447  0.4415 -0.1161 -0.7536
  112OSM   H13G11664   5.901   5.270   9.439  0.3414  2.4287 -1.2781
  112OSM   C14F11665   6.030   5.286   9.257 -0.1037 -0.8082 -0.3354
  112OSM   H14F11666   5.943   5.338   9.210 -0.9272 -1.3514  0.5543
  112OSM   H14G11667   6.075   5.207   9.193  1.7470 -0.8498  0.9573
  112OSM   C15F11668   6.136   5.381   9.298 -0.4742 -0.6014  0.4162
  112OSM   H15F11669   6.226   5.320   9.322  0.7750  0.7811 -0.6013
  112OSM   H15G11670   6.106   5.440   9.387  1.7407 -0.0279  0.8389
  112OSM   C16F11671   6.176   5.485   9.187 -0.0653  0.2551 -0.2961
  112OSM   H16F11672   6.234   5.562   9.241 -0.4936 -1.4173  2.7873
  112OSM   H16G11673   6.085   5.532   9.143  0.6834  0.8536 -1.2293
  112OSM   C17F11674   6.263   5.434   9.072 -0.2811 -0.2127 -0.0481
  112OSM   H17F11675   6.223   5.339   9.032  0.0270 -0.4574  0.2195
  112OSM   H17G11676   6.362   5.413   9.118 -0.5389  0.3621  0.8123
  112OSM   C18F11677   6.289   5.531   8.953 -0.4225  0.8297 -0.9685
  112OSM   H18F11678   6.346   5.474   8.876  0.7151 -1.6292  1.5244
  112OSM   H18G11679   6.353   5.616   8.983 -1.2398  0.5965  1.7268
  112OSM   H18H11680   6.193   5.572   8.916 -0.5698  0.3630 -1.1151
  113OSM      N11681   0.922   5.478  11.190  0.0135 -0.0986 -0.7240
  113OSM    C1511682   0.983   5.344  11.152  0.3168  0.4039 -0.3219
  113OSM   H15A11683   0.927   5.258  11.187 -1.3048  1.0570 -1.1770
  113OSM   H15B11684   1.076   5.335  11.205 -1.0463 -0.4892  2.0454
  113OSM   H15C11685   1.014   5.346  11.048  0.9729  2.0377 -0.1166
  113OSM    C1411686   0.918   5.491  11.340  0.3975  0.0618  0.1153
  113OSM   H14A11687   0.847   5.423  11.384  0.3154  0.9109  1.3536
  113OSM   H14B11688   0.881   5.589  11.367  0.3675 -0.3123  1.5026
  113OSM   H14C11689   1.018   5.491  11.382  0.0557  3.0881  1.1910
  113OSM    C1311690   1.005   5.590  11.136 -0.4448 -0.2704  0.0429
  113OSM   H13A11691   1.110   5.569  11.146  0.1048  2.4209  0.9158
  113OSM   H13B11692   0.977   5.680  11.189  0.6710 -0.6173  1.2598
  113OSM   H13C11693   0.980   5.596  11.031  0.7423 -0.1906 -0.2472
  113OSM    C1211694   0.781   5.488  11.146 -0.1890  0.5035 -0.2212
  113OSM   H12A11695   0.733   5.583  11.164  1.1487  1.2863 -0.6770
  113OSM   H12B11696   0.724   5.420  11.208  2.4661 -0.5161  1.2341
  113OSM    C1111697   0.752   5.464  10.991  0.0480  0.2536 -0.1213
  113OSM   H11A11698   0.769   5.359  10.957 -1.7660 -0.7552  1.8804
  113OSM   H11B11699   0.831   5.519  10.936 -0.2750  0.2084 -0.6417
  113OSM      P11700   0.591   5.648  10.933 -0.0463 -0.0118 -0.0284
  113OSM    O1311701   0.449   5.665  10.928 -0.0507 -0.0817  0.3655
  113OSM    O1411702   0.654   5.726  11.046 -0.4784  0.3277  0.5339
  113OSM    O1111703   0.662   5.680  10.795 -0.4408 -0.2932 -0.0498
  113OSM    O1211704   0.617   5.497  10.960 -0.4797  0.3321  0.2067
  113OSM    C1S11705   0.588   5.626  10.681 -0.2005 -0.1686 -1.8672
  113OSM    H1S11706   0.478   5.641  10.676 -0.7683 -3.0558 -0.4906
  113OSM    H1T11707   0.608   5.517  10.688  5.3369  0.5631 -1.3499
  113OSM     NF11708   0.551   5.615  10.437 -0.4557  0.5938  0.3928
  113OSM    HNF11709   0.563   5.518  10.418  0.6873  0.5840  1.0787
  113OSM    C2S11710   0.642   5.663  10.541 -0.1810  0.2932  0.2547
  113OSM    H2S11711   0.659   5.773  10.540 -1.4470  0.5027  0.1334
  113OSM    C3S11712   0.791   5.607  10.530 -0.2486 -0.2000  0.1053
  113OSM    H3S11713   0.786   5.498  10.508 -1.3266  0.2049 -1.9283
  113OSM     O311714   0.880   5.611  10.643  0.0191 -0.4092 -0.2576
  113OSM    HO311715   0.828   5.624  10.723 -0.6001  1.2681 -0.8872
  113OSM    C4S11716   0.863   5.682  10.413 -0.1483  0.4614  0.1795
  113OSM    H4S11717   0.868   5.791  10.431 -3.6782  0.8489 -0.5288
  113OSM    C5S11718   0.914   5.629  10.299 -0.9376 -0.1347  0.0429
  113OSM    H5S11719   0.923   5.520  10.287 -0.4758 -0.1706  0.6898
  113OSM    C6S11720   0.958   5.709  10.179  0.1695  0.4882  0.7193
  113OSM    H6S11721   1.062   5.746  10.172  0.3727 -0.1799  0.1332
  113OSM    H6T11722   0.894   5.800  10.174 -1.5333 -0.7622 -1.7061
  113OSM    C7S11723   0.941   5.620  10.055 -0.1636  0.2494 -0.4480
  113OSM    H7S11724   0.833   5.603  10.035 -0.6353  1.4216  0.9088
  113OSM    H7T11725   1.002   5.533  10.085 -0.9615  0.3556  1.6791
  113OSM    C8S11726   0.999   5.697   9.936  0.0954 -0.0533  0.0238
  113OSM    H8S11727   1.098   5.740   9.964 -0.1468  0.7442 -0.3340
  113OSM    H8T11728   0.926   5.768   9.894 -0.7371 -0.5983  0.5294
  113OSM    C9S11729   1.041   5.594   9.820  0.1634 -0.3694  0.0134
  113OSM    H9S11730   0.970   5.508   9.824  0.7200 -0.8896 -0.9682
  113OSM    H9T11731   1.136   5.547   9.850 -1.4914 -2.3564  2.5446
  113OSM   C10S11732   1.047   5.644   9.674  0.0033  0.5351  0.0239
  113OSM   H10S11733   1.134   5.710   9.656  1.6937 -1.5888 -0.0717
  113OSM   H10T11734   0.952   5.699   9.659 -0.5934 -0.8146 -1.4671
  113OSM   C11S11735   1.054   5.522   9.573 -0.5910 -0.2614  0.3897
  113OSM   H11S11736   0.992   5.437   9.608 -1.2121  0.4523  1.0539
  113OSM   H11T11737   1.160   5.488   9.566 -0.6730 -0.2378 -2.1785
  113OSM   C12S11738   1.020   5.576   9.431  0.2052  0.3823  0.1162
  113OSM   H12S11739   1.056   5.679   9.413 -0.6443  0.6416 -0.1387
  113OSM   H12T11740   0.909   5.586   9.436 -0.2410 -2.6459 -1.1343
  113OSM   C13S11741   1.053   5.493   9.305 -0.6946 -0.3346  0.2803
  113OSM   H13S11742   0.995   5.399   9.314 -1.6880  0.1091 -1.0310
  113OSM   H13T11743   1.159   5.461   9.308 -0.3216  0.7917 -0.2643
  113OSM   C14S11744   1.031   5.561   9.170 -0.7134  0.6129 -1.2003
  113OSM   H14S11745   1.103   5.646   9.173  1.2324 -0.9582 -0.7462
  113OSM   H14T11746   0.928   5.602   9.174 -1.6155 -1.6442  0.9955
  113OSM   C15S11747   1.047   5.467   9.054  0.2165  0.6380  0.7366
  113OSM   H15S11748   0.992   5.370   9.054  1.4178 -0.1240 -1.2767
  113OSM   H15T11749   1.157   5.447   9.052 -0.0142 -0.8118  0.9761
  113OSM   C16S11750   1.001   5.540   8.926  1.1835 -0.1364  0.7193
  113OSM   H16S11751   1.034   5.492   8.831 -2.9119 -2.8336  0.3749
  113OSM   H16T11752   1.045   5.641   8.916 -1.2494  0.8623 -0.9860
  113OSM   C17S11753   0.839   5.541   8.918 -0.1968 -0.0715 -0.0516
  113OSM   H17S11754   0.792   5.599   9.000 -0.9617 -1.6428  0.6758
  113OSM   H17T11755   0.802   5.439   8.941 -0.4175  0.4516  2.0811
  113OSM   C18S11756   0.787   5.598   8.781  0.2132  0.2830  0.3955
  113OSM   H18S11757   0.839   5.538   8.703 -0.5965 -0.9698  0.7928
  113OSM   H18T11758   0.804   5.708   8.781  0.2239  0.2947 -0.7000
  113OSM   H18U11759   0.677   5.588   8.774  0.1674  1.4391 -1.7526
  113OSM    C1F11760   0.436   5.669  10.418  0.0677 -0.1414  0.3995
  113OSM     OF11761   0.393   5.765  10.476  0.0754 -0.3287  0.4044
  113OSM    C2F11762   0.354   5.607  10.304 -0.8241 -1.1296 -0.1378
  113OSM    H2F11763   0.321   5.502  10.321  1.4664 -1.8762  0.0551
  113OSM    H2G11764   0.430   5.609  10.223 -0.3044  1.0883  0.3468
  113OSM    C3F11765   0.236   5.703  10.248 -0.5182  0.2587  0.5700
  113OSM    H3F11766   0.292   5.796  10.225 -1.0052  0.2484 -0.6944
  113OSM    H3G11767   0.165   5.720  10.332  0.4943 -1.4475  1.8404
  113OSM    C4F11768   0.166   5.642  10.130  0.1696  0.5162  0.6731
  113OSM    H4F11769   0.088   5.710  10.093 -0.6176 -1.1372 -0.8571
  113OSM    H4G11770   0.121   5.544  10.158  3.0224 -1.3255 -0.7046
  113OSM    C5F11771   0.249   5.608  10.005 -0.1757  0.1142 -0.4677
  113OSM    H5F11772   0.333   5.536  10.017 -0.4879 -0.7735 -2.9442
  113OSM    H5G11773   0.308   5.697   9.972  2.1625 -1.1420  0.0949
  113OSM    C6F11774   0.144   5.579   9.893 -0.3131 -0.1911  0.2396
  113OSM    H6F11775   0.195   5.600   9.796 -0.6096  0.4598  0.2263
  113OSM    H6G11776   0.056   5.645   9.902  1.4538  1.9754  3.8709
  113OSM    C7F11777   0.093   5.436   9.894 -0.3584  0.5877 -0.3040
  113OSM    H7F11778   0.007   5.431   9.823 -0.9032 -2.4570  0.4360
  113OSM    H7G11779   0.044   5.410   9.990 -1.8523 -0.3231 -1.2633
  113OSM    C8F11780   0.197   5.331   9.857 -0.1448  1.4453  0.1650
  113OSM    H8F11781   0.138   5.238   9.872 -1.3622  2.1002 -0.3579
  113OSM    H8G11782   0.277   5.341   9.933  0.5246  0.8066 -0.4419
  113OSM    C9F11783   0.262   5.346   9.719  0.3751  0.3052  0.1906
  113OSM    H9F11784   0.300   5.447   9.697  0.7763  0.3271  0.9414
  113OSM   C10F11785   0.299   5.245   9.631 -0.6201 -0.1306  0.0662
  113OSM   H10F11786   0.356   5.261   9.539 -1.1777 -2.5676 -0.7735
  113OSM   C11F11787   0.256   5.103   9.645  0.2541  0.1131 -0.1513
  113OSM   H11F11788   0.213   5.095   9.747  0.7529 -0.5236  0.0175
  113OSM   H11G11789   0.342   5.031   9.640 -0.2933 -0.8048  2.2207
  113OSM   C12F11790   0.157   5.069   9.544 -0.9023  0.1966  0.3185
  113OSM   H12F11791   0.103   5.157   9.502  0.9442 -0.0660 -2.9969
  113OSM   H12G11792   0.082   5.004   9.595  0.1180 -1.2478  0.0304
  113OSM   C13F11793   0.216   4.994   9.418 -0.1573  0.6744 -0.0535
  113OSM   H13F11794   0.254   4.893   9.441 -0.7136  0.1905 -1.1951
  113OSM   H13G11795   0.302   5.054   9.379 -1.9744  1.4917 -3.1827
  113OSM   C14F11796   0.121   4.980   9.308 -0.1687 -0.2256 -0.0821
  113OSM   H14F11797   0.056   5.065   9.279  1.4143  1.0513 -0.0519
  113OSM   H14G11798   0.053   4.908   9.357  1.2915 -1.6661 -0.0904
  113OSM   C15F11799   0.179   4.928   9.179 -0.0733  0.1920 -0.2710
  113OSM   H15F11800   0.190   4.817   9.180  0.4617  0.2398  1.0899
  113OSM   H15G11801   0.283   4.958   9.155  0.3191 -0.4302  0.5831
  113OSM   C16F11802   0.084   4.964   9.054  0.1747 -0.8076 -0.2293
  113OSM   H16F11803   0.087   5.074   9.042  1.7200 -0.7689  0.3142
  113OSM   H16G11804  -0.023   4.941   9.074  0.3290 -2.2704 -0.9581
  113OSM   C17F11805   0.133   4.902   8.928  0.0074  0.2284  0.1603
  113OSM   H17F11806   0.054   4.915   8.851 -0.5698 -0.4753  0.6139
  113OSM   H17G11807   0.163   4.796   8.946 -0.4603  0.0352 -0.1607
  113OSM   C18F11808   0.257   4.971   8.885 -0.8916 -0.5236  0.8132
  113OSM   H18F11809   0.237   5.070   8.839 -1.4710 -0.7719  0.5155
  113OSM   H18G11810   0.307   4.908   8.808  1.8112  1.1458  1.0796
  113OSM   H18H11811   0.341   4.981   8.958 -1.3178  0.6255  1.1632
  114OSM      N11812   6.663   4.141  11.741  0.4851 -0.5722  0.0422
  114OSM    C1511813   6.718   4.284  11.788 -0.4532  1.0192 -0.1243
  114OSM   H15A11814   6.696   4.301  11.892  1.7692  1.4953  0.3148
  114OSM   H15B11815   6.684   4.356  11.715 -1.6769 -0.8082 -1.4301
  114OSM   H15C11816   6.826   4.280  11.794 -0.4314  1.5499 -0.1194
  114OSM    C1411817   6.694   4.031  11.842  0.5057 -0.4658 -0.8541
  114OSM   H14A11818   6.630   3.949  11.814  1.0193 -1.7749  1.6056
  114OSM   H14B11819   6.663   4.066  11.939  0.7092  0.6493 -1.1728
  114OSM   H14C11820   6.797   3.999  11.844  0.6743  0.1018  0.4526
  114OSM    C1311821   6.511   4.158  11.727  0.2624 -0.4068  0.1879
  114OSM   H13A11822   6.487   4.257  11.691 -1.2725 -1.1640 -1.0000
  114OSM   H13B11823   6.460   4.129  11.818 -3.4316 -0.0077 -1.5756
  114OSM   H13C11824   6.477   4.080  11.660  1.0339 -2.9753  2.5798
  114OSM    C1211825   6.713   4.101  11.603 -0.2984  0.0685  0.3223
  114OSM   H12A11826   6.683   3.999  11.581 -1.5901  0.2906  1.0127
  114OSM   H12B11827   6.821   4.092  11.610 -0.3674 -2.6490 -0.5924
  114OSM    C1111828   6.676   4.188  11.482 -1.2823 -0.2116 -0.1992
  114OSM   H11A11829   6.566   4.192  11.469 -1.2944  1.2916  0.2574
  114OSM   H11B11830   6.714   4.142  11.388 -1.5034  0.2287 -0.5055
  114OSM      P11831   6.863   4.366  11.443 -0.3818  0.4465 -0.2466
  114OSM    O1311832   6.877   4.516  11.443  0.6508 -0.4256  0.1984
  114OSM    O1411833   6.976   4.282  11.500 -0.0451  0.6839 -0.2312
  114OSM    O1111834   6.841   4.322  11.295  0.2137  0.4025 -0.0974
  114OSM    O1211835   6.724   4.325  11.504  0.6326  0.4707 -0.1739
  114OSM    C1S11836   6.734   4.387  11.225 -0.6142  0.2240  0.2346
  114OSM    H1S11837   6.702   4.490  11.249 -1.0858  0.4557 -1.2653
  114OSM    H1T11838   6.644   4.323  11.229  0.6683 -1.8664 -1.7919
  114OSM     NF11839   6.699   4.498  11.006  0.0400 -0.6158  0.3184
  114OSM    HNF11840   6.617   4.472  10.956 -2.0859  0.6290  2.9447
  114OSM    C2S11841   6.780   4.397  11.076 -0.5151  0.3444  0.0948
  114OSM    H2S11842   6.883   4.438  11.073 -0.5822  0.7129  1.7328
  114OSM    C3S11843   6.768   4.254  11.013 -0.9543  0.1578 -0.7465
  114OSM    H3S11844   6.674   4.213  11.054  1.3281 -2.5540  2.2832
  114OSM     O311845   6.864   4.165  11.069 -0.0771 -0.0826 -0.0083
  114OSM    HO311846   6.884   4.215  11.149 -0.1345 -0.1301  0.0359
  114OSM    C4S11847   6.786   4.245  10.866 -0.4735 -0.1876  0.2009
  114OSM    H4S11848   6.891   4.249  10.834 -0.4815 -0.2959  0.1575
  114OSM    C5S11849   6.686   4.226  10.779 -0.8849  0.1304  0.3253
  114OSM    H5S11850   6.589   4.210  10.827  0.0481  1.0493  2.7056
  114OSM    C6S11851   6.700   4.207  10.628 -0.1453  0.2063 -0.7509
  114OSM    H6S11852   6.651   4.302  10.597 -1.7807  0.3392  1.9254
  114OSM    H6T11853   6.635   4.124  10.594  0.1542  0.0832 -1.0289
  114OSM    C7S11854   6.847   4.188  10.571  0.2281 -0.0755  0.1040
  114OSM    H7S11855   6.889   4.096  10.616  0.9788  1.2567  2.3078
  114OSM    H7T11856   6.915   4.274  10.587  0.8138  0.4054 -3.8864
  114OSM    C8S11857   6.849   4.173  10.419  0.1176  0.3103 -0.0890
  114OSM    H8S11858   6.791   4.078  10.407 -2.1068  1.4766  0.8399
  114OSM    H8T11859   6.950   4.156  10.376  0.1195 -0.4925  0.2132
  114OSM    C9S11860   6.793   4.287  10.329  0.1523 -0.3127 -1.5148
  114OSM    H9S11861   6.872   4.359  10.299  0.5058 -0.2052 -0.4059
  114OSM    H9T11862   6.722   4.351  10.387 -0.2892 -1.3240 -0.9021
  114OSM   C10S11863   6.735   4.236  10.195  0.7789 -0.0204 -0.4121
  114OSM   H10S11864   6.675   4.311  10.140  0.2891  0.7046  1.0506
  114OSM   H10T11865   6.667   4.150  10.211  0.9097 -0.1514 -0.5517
  114OSM   C11S11866   6.841   4.182  10.097 -0.8590  0.0794  0.3236
  114OSM   H11S11867   6.901   4.099  10.140  0.8077  1.1694  0.1901
  114OSM   H11T11868   6.920   4.259  10.086 -2.2722  1.8267  1.7666
  114OSM   C12S11869   6.773   4.128   9.973  0.2988  0.0131  0.3739
  114OSM   H12S11870   6.687   4.058   9.983  0.3775 -0.0892  0.3396
  114OSM   H12T11871   6.851   4.073   9.917 -0.9092 -1.5807  0.1878
  114OSM   C13S11872   6.720   4.231   9.877 -0.2865 -0.3590  0.0806
  114OSM   H13S11873   6.795   4.307   9.849 -0.3581  1.1979  3.5962
  114OSM   H13T11874   6.639   4.290   9.925  0.0152  1.3974 -1.4851
  114OSM   C14S11875   6.652   4.169   9.751 -0.4336 -0.3574  0.2148
  114OSM   H14S11876   6.589   4.079   9.768 -1.1311  0.3454  1.4883
  114OSM   H14T11877   6.735   4.132   9.687 -0.5095  0.0850 -0.1510
  114OSM   C15S11878   6.591   4.268   9.648  0.2005  0.1856 -0.2797
  114OSM   H15S11879   6.673   4.339   9.623  0.9382 -1.0403 -1.5030
  114OSM   H15T11880   6.507   4.323   9.695 -0.0092 -0.4132  0.0419
  114OSM   C16S11881   6.544   4.189   9.517  0.6508  0.4655  0.0612
  114OSM   H16S11882   6.639   4.144   9.484  1.0047 -0.1238  1.7687
  114OSM   H16T11883   6.498   4.267   9.452 -1.8817 -1.6864 -0.9111
  114OSM   C17S11884   6.445   4.078   9.544  0.6209  0.3257  0.1216
  114OSM   H17S11885   6.368   4.101   9.621  1.6834  0.6668  1.1231
  114OSM   H17T11886   6.508   3.994   9.581  1.1673 -0.1605 -1.7961
  114OSM   C18S11887   6.375   4.020   9.422 -0.3029  1.0682  0.9612
  114OSM   H18S11888   6.444   4.031   9.335 -0.2160  2.2573  1.1532
  114OSM   H18T11889   6.285   4.079   9.392  0.8961  0.9120 -3.8538
  114OSM   H18U11890   6.351   3.913   9.434  0.9412  0.8128  1.2865
  114OSM    C1F11891   6.711   4.627  11.021 -0.3347  0.4612 -0.7916
  114OSM     OF11892   6.805   4.670  11.085 -0.0288 -0.7554 -0.7166
  114OSM    C2F11893   6.609   4.722  10.966 -0.7926  0.4926  0.0412
  114OSM    H2F11894   6.643   4.822  11.000  1.6223 -0.3810  0.3820
  114OSM    H2G11895   6.504   4.700  10.994 -0.4121 -0.8484  0.4792
  114OSM    C3F11896   6.630   4.732  10.810 -0.3085 -0.1732 -0.4344
  114OSM    H3F11897   6.587   4.635  10.776  0.3600 -0.7739  0.3944
  114OSM    H3G11898   6.732   4.741  10.767 -0.5791 -0.8170 -1.2299
  114OSM    C4F11899   6.559   4.847  10.753 -0.2170  0.3367  0.2054
  114OSM    H4F11900   6.574   4.928  10.827 -0.0330  0.3311  0.1736
  114OSM    H4G11901   6.449   4.834  10.764  0.1149 -1.7317  1.9202
  114OSM    C5F11902   6.593   4.865  10.606 -0.1622  0.1471  0.0614
  114OSM    H5F11903   6.698   4.903  10.601 -0.4680  1.0210  0.0485
  114OSM    H5G11904   6.531   4.952  10.573  2.0684  1.2612 -1.5101
  114OSM    C6F11905   6.584   4.744  10.513  0.2184 -0.5483 -0.2906
  114OSM    H6F11906   6.485   4.696  10.528 -0.6001  1.6855  2.2342
  114OSM    H6G11907   6.657   4.665  10.542 -1.1251 -1.5269  0.5433
  114OSM    C7F11908   6.605   4.814  10.377 -0.4199 -0.0260 -0.5367
  114OSM    H7F11909   6.697   4.876  10.374 -0.9570  0.8183 -0.1829
  114OSM    H7G11910   6.522   4.887  10.363 -0.5217  0.0177  0.2647
  114OSM    C8F11911   6.600   4.717  10.262 -0.0618 -0.2620 -0.1712
  114OSM    H8F11912   6.504   4.661  10.266  0.8300 -1.8323 -0.1404
  114OSM    H8G11913   6.682   4.643  10.272 -0.5056 -0.8725 -0.9424
  114OSM    C9F11914   6.599   4.795  10.125 -0.2402  0.0545  0.3359
  114OSM    H9F11915   6.570   4.900  10.132  0.4813  0.2336  0.7431
  114OSM   C10F11916   6.634   4.753  10.004 -0.0130  0.2149 -0.0125
  114OSM   H10F11917   6.605   4.815   9.918 -0.6609 -1.1928 -0.8561
  114OSM   C11F11918   6.687   4.614   9.968 -0.2244  0.4711 -0.5733
  114OSM   H11F11919   6.600   4.564   9.921 -1.5698  0.8178  1.4027
  114OSM   H11G11920   6.716   4.558  10.060 -0.4496  0.9303 -0.2217
  114OSM   C12F11921   6.789   4.617   9.857 -0.3036  0.3489 -0.0636
  114OSM   H12F11922   6.837   4.517   9.868  1.9913  1.4472  0.6172
  114OSM   H12G11923   6.866   4.694   9.882 -0.1780  0.4716 -0.7823
  114OSM   C13F11924   6.734   4.639   9.717  0.1232 -0.2864  0.1656
  114OSM   H13F11925   6.697   4.743   9.704  2.7479  0.6673 -0.3650
  114OSM   H13G11926   6.653   4.566   9.701  1.3613 -1.4384 -1.0640
  114OSM   C14F11927   6.825   4.595   9.601 -0.4142  0.0312  1.0883
  114OSM   H14F11928   6.863   4.495   9.633  2.4531  0.5450 -0.3007
  114OSM   H14G11929   6.911   4.665   9.587 -0.2992 -0.2718  0.2194
  114OSM   C15F11930   6.753   4.587   9.468  0.0750  0.5091  0.4043
  114OSM   H15F11931   6.713   4.686   9.438  0.7619  0.6429 -0.0970
  114OSM   H15G11932   6.667   4.517   9.465  0.5728 -0.2061  1.9071
  114OSM   C16F11933   6.846   4.542   9.354 -0.4072  0.5691  0.4868
  114OSM   H16F11934   6.860   4.433   9.362 -0.9240  0.4898  0.3294
  114OSM   H16G11935   6.935   4.607   9.371 -1.5446  1.8872  1.6752
  114OSM   C17F11936   6.796   4.578   9.212 -0.0782  0.0183  0.5296
  114OSM   H17F11937   6.766   4.685   9.210  2.2164  0.7407 -2.1649
  114OSM   H17G11938   6.706   4.522   9.176 -0.6102  1.5858 -0.7375
  114OSM   C18F11939   6.913   4.553   9.113 -0.1661  0.5736 -0.1897
  114OSM   H18F11940   6.930   4.444   9.104  2.0736  1.0416 -3.0540
  114OSM   H18G11941   7.001   4.599   9.164  0.7172 -0.9877 -0.2502
  114OSM   H18H11942   6.898   4.599   9.013  2.0725  1.8439 -0.0113
  115OSM      N11943   2.568   1.198   6.186  0.7304  0.3121 -0.6833
  115OSM    C1511944   2.708   1.220   6.215 -0.7068 -0.3140 -0.4045
  115OSM   H15A11945   2.724   1.324   6.240  1.8236 -0.7129 -0.1639
  115OSM   H15B11946   2.779   1.198   6.136  1.6786  2.2330  0.8725
  115OSM   H15C11947   2.747   1.165   6.299  0.6224  2.1310  0.6785
  115OSM    C1411948   2.538   1.046   6.169  0.0454  0.2005 -0.0909
  115OSM   H14A11949   2.587   1.002   6.083  1.0185 -1.9263  1.4736
  115OSM   H14B11950   2.432   1.031   6.163  0.3122 -1.9920 -0.1632
  115OSM   H14C11951   2.572   0.992   6.256  0.4917 -0.0173 -0.3909
  115OSM    C1311952   2.489   1.245   6.312  0.0647  0.4213  0.3939
  115OSM   H13A11953   2.513   1.349   6.325 -2.0923  1.5706 -3.1833
  115OSM   H13B11954   2.512   1.191   6.402 -1.1754  0.2075  0.6086
  115OSM   H13C11955   2.384   1.222   6.296  0.6046 -1.1860 -1.1734
  115OSM    C1211956   2.517   1.277   6.066 -0.3720 -0.0621 -0.0325
  115OSM   H12A11957   2.581   1.248   5.983  0.8257  0.8013  0.5532
  115OSM   H12B11958   2.536   1.381   6.089  0.4587 -0.3438  0.6070
  115OSM    C1111959   2.364   1.262   6.028  0.3373  0.1753  0.6700
  115OSM   H11A11960   2.321   1.162   6.053 -0.9583  1.1346  2.5363
  115OSM   H11B11961   2.352   1.279   5.919  0.4834 -0.6106  0.5273
  115OSM      P11962   2.292   1.506   6.102 -0.3125  0.0564 -0.3158
  115OSM    O1311963   2.435   1.545   6.105  0.3858 -0.8514 -0.5777
  115OSM    O1411964   2.212   1.580   6.001 -0.3114  0.8011 -0.3445
  115OSM    O1111965   2.230   1.539   6.244 -0.0761 -0.5944  0.2331
  115OSM    O1211966   2.269   1.348   6.090 -0.6453 -0.2193 -0.0981
  115OSM    C1S11967   2.140   1.456   6.306  0.2744 -0.0240  0.8073
  115OSM    H1S11968   2.172   1.350   6.301 -1.3142 -0.4662 -1.6463
  115OSM    H1T11969   2.047   1.464   6.245  0.7476  0.1775  0.1120
  115OSM     NF11970   2.057   1.375   6.519  0.4588  0.0771 -0.4717
  115OSM    HNF11971   1.993   1.401   6.591 -2.3649  1.2918 -3.1894
  115OSM    C2S11972   2.137   1.480   6.452 -0.1808  0.2579  0.0015
  115OSM    H2S11973   2.237   1.470   6.499  0.1973 -2.4494 -1.1869
  115OSM    C3S11974   2.084   1.618   6.479  0.1921 -0.4152  0.0914
  115OSM    H3S11975   1.981   1.635   6.440  0.0463  1.7030  1.2124
  115OSM     O311976   2.158   1.724   6.416 -0.0464 -0.6017 -0.3847
  115OSM    HO311977   2.201   1.677   6.344  1.9982  0.0011  0.3898
  115OSM    C4S11978   2.077   1.648   6.625  0.7133 -0.9595 -0.3838
  115OSM    H4S11979   1.984   1.694   6.661  1.5742  0.6077 -0.0718
  115OSM    C5S11980   2.172   1.627   6.714 -0.0191 -0.2705 -0.1002
  115OSM    H5S11981   2.267   1.580   6.685 -0.1706 -1.8762  1.7764
  115OSM    C6S11982   2.161   1.656   6.864 -0.3285  0.6581 -0.4677
  115OSM    H6S11983   2.091   1.586   6.915  0.7367 -0.4123 -0.4347
  115OSM    H6T11984   2.132   1.760   6.889 -0.5187  1.4822 -3.6592
  115OSM    C7S11985   2.285   1.615   6.935  0.2079  0.1005  0.0307
  115OSM    H7S11986   2.373   1.677   6.905  0.1409  1.0866  1.6840
  115OSM    H7T11987   2.297   1.510   6.903 -0.1493  0.1502 -0.2630
  115OSM    C8S11988   2.271   1.631   7.084 -0.2749 -0.7703 -0.2163
  115OSM    H8S11989   2.169   1.613   7.126 -1.2455  1.7932 -1.3238
  115OSM    H8T11990   2.287   1.736   7.116  0.9418 -1.5342  1.8841
  115OSM    C9S11991   2.379   1.553   7.167  0.2539 -0.3071 -0.0877
  115OSM    H9S11992   2.479   1.589   7.134  0.3926 -0.1950  0.4489
  115OSM    H9T11993   2.364   1.447   7.137 -1.5363 -0.5927  1.6314
  115OSM   C10S11994   2.377   1.569   7.321  0.1857  0.4144  0.2286
  115OSM   H10S11995   2.273   1.542   7.350 -0.5193  1.1135 -1.5289
  115OSM   H10T11996   2.393   1.674   7.351  0.9964  1.4607 -3.4552
  115OSM   C11S11997   2.486   1.481   7.380  0.2434  0.3441  0.1285
  115OSM   H11S11998   2.586   1.528   7.383  0.5344 -0.3018  1.0910
  115OSM   H11T11999   2.487   1.389   7.317  0.5560 -0.0835  0.7484
  115OSM   C12S12000   2.455   1.460   7.529  0.0693  0.3866 -0.4191
  115OSM   H12S12001   2.434   1.554   7.585  2.3837 -0.2065  1.5792
  115OSM   H12T12002   2.542   1.410   7.576 -1.3930 -0.1921  1.8251
  115OSM   C13S12003   2.337   1.370   7.549 -0.3626  0.1926 -0.3862
  115OSM   H13S12004   2.351   1.283   7.480 -2.0442 -1.5458  1.3403
  115OSM   H13T12005   2.239   1.420   7.534  0.2166  2.1506  1.7948
  115OSM   C14S12006   2.347   1.304   7.690 -0.4596 -0.7477  0.6930
  115OSM   H14S12007   2.325   1.399   7.743 -0.2923  0.6668 -1.6587
  115OSM   H14T12008   2.452   1.270   7.709 -0.3754  0.4882  2.7274
  115OSM   C15S12009   2.232   1.214   7.720  0.5418  0.0913 -0.9811
  115OSM   H15S12010   2.198   1.154   7.634  1.5551  1.0977 -2.1172
  115OSM   H15T12011   2.148   1.281   7.749  0.9677  0.1730  0.1555
  115OSM   C16S12012   2.261   1.110   7.832 -0.5894 -0.2501 -0.3141
  115OSM   H16S12013   2.332   1.029   7.806 -0.4375 -0.3302  0.3342
  115OSM   H16T12014   2.159   1.066   7.842  0.3018 -2.4753 -0.6386
  115OSM   C17S12015   2.304   1.177   7.962 -0.2963 -0.8113  0.2192
  115OSM   H17S12016   2.292   1.287   7.973  1.2199 -0.7126  1.2427
  115OSM   H17T12017   2.414   1.160   7.955 -0.0138  0.2479  1.6124
  115OSM   C18S12018   2.237   1.117   8.082 -0.5122  0.2971  0.5366
  115OSM   H18S12019   2.302   1.120   8.172  0.4776 -1.5989 -0.0612
  115OSM   H18T12020   2.217   1.010   8.057 -1.6670  0.7181 -0.4632
  115OSM   H18U12021   2.141   1.165   8.111 -0.7506  3.0140 -3.8702
  115OSM    C1F12022   2.093   1.248   6.522  0.4081 -0.8104 -0.4608
  115OSM     OF12023   2.203   1.206   6.479 -0.1529 -0.1693 -0.1696
  115OSM    C2F12024   2.001   1.159   6.601  1.1413 -0.4601 -0.0799
  115OSM    H2F12025   1.968   1.070   6.543 -1.4320  0.2710  0.1298
  115OSM    H2G12026   1.907   1.216   6.618  0.2333 -1.8762 -0.1811
  115OSM    C3F12027   2.067   1.118   6.732  0.3649 -0.4613  0.9759
  115OSM    H3F12028   2.164   1.067   6.714  0.2951  0.8577 -5.3287
  115OSM    H3G12029   1.999   1.042   6.777 -3.0009  1.2410 -0.8540
  115OSM    C4F12030   2.069   1.229   6.828  0.1664 -0.5709  0.2822
  115OSM    H4F12031   1.966   1.270   6.838  1.0897  2.1155 -0.2878
  115OSM    H4G12032   2.133   1.308   6.784 -0.3465 -0.5881 -0.5128
  115OSM    C5F12033   2.130   1.194   6.967  0.0050  0.2806 -0.3658
  115OSM    H5F12034   2.177   1.278   7.022 -0.7222 -0.1485  0.9685
  115OSM    H5G12035   2.204   1.115   6.943  0.9296  0.0218  2.8550
  115OSM    C6F12036   2.028   1.128   7.067 -0.0173 -0.5744 -0.6078
  115OSM    H6F12037   2.015   1.031   7.016  1.7280 -0.4953 -1.2888
  115OSM    H6G12038   1.936   1.189   7.081  1.5361  1.4797  1.3355
  115OSM    C7F12039   2.071   1.109   7.210 -0.2004  0.1819 -0.5038
  115OSM    H7F12040   2.088   1.209   7.256  1.5568 -0.7514  1.0435
  115OSM    H7G12041   2.170   1.059   7.217 -0.1604  0.2712 -0.4227
  115OSM    C8F12042   1.972   1.029   7.298  0.1804 -0.2928  0.3195
  115OSM    H8F12043   1.879   1.087   7.313  0.0873 -0.3686  0.0382
  115OSM    H8G12044   2.019   1.022   7.398 -1.1391 -0.6109  0.9396
  115OSM    C9F12045   1.939   0.892   7.248 -0.0936 -0.2645  0.1447
  115OSM    H9F12046   1.861   0.897   7.171  0.4566  4.0159 -0.3603
  115OSM   C10F12047   1.988   0.776   7.288  0.3852  0.0169  0.1865
  115OSM   H10F12048   1.956   0.685   7.235 -2.7521  1.8449 -1.3679
  115OSM   C11F12049   2.098   0.758   7.391 -0.1667 -0.1028  0.3256
  115OSM   H11F12050   2.153   0.855   7.396 -2.6885  1.3863  1.5712
  115OSM   H11G12051   2.169   0.679   7.360 -0.6158  0.1084 -1.3268
  115OSM   C12F12052   2.049   0.735   7.541 -0.6556 -0.2350 -0.4309
  115OSM   H12F12053   1.983   0.646   7.539 -1.3211  0.2457 -0.2035
  115OSM   H12G12054   1.995   0.829   7.567 -0.9878 -0.1239 -1.4718
  115OSM   C13F12055   2.166   0.699   7.640  0.1058  0.2036  0.6256
  115OSM   H13F12056   2.259   0.746   7.604 -0.8289  2.9280  1.5342
  115OSM   H13G12057   2.176   0.590   7.620  1.2901  0.3746  0.1991
  115OSM   C14F12058   2.141   0.726   7.790  0.1227  0.3274 -0.7469
  115OSM   H14F12059   2.048   0.675   7.822  1.8726 -1.7385  1.4814
  115OSM   H14G12060   2.127   0.834   7.811  3.2896  1.1677 -2.3139
  115OSM   C15F12061   2.246   0.663   7.882  0.1592  0.1977  0.3811
  115OSM   H15F12062   2.334   0.731   7.880  2.5438 -2.4589 -4.3071
  115OSM   H15G12063   2.264   0.562   7.839 -0.7621 -0.0436  0.5357
  115OSM   C16F12064   2.191   0.631   8.024 -0.3938  0.4471 -0.2873
  115OSM   H16F12065   2.097   0.579   7.998 -0.4887  1.0693 -1.2183
  115OSM   H16G12066   2.179   0.719   8.091 -0.3140  0.1379  0.1346
  115OSM   C17F12067   2.282   0.526   8.096 -0.2360 -0.6244 -0.0703
  115OSM   H17F12068   2.275   0.426   8.047 -2.3398 -0.8868  0.6845
  115OSM   H17G12069   2.243   0.504   8.197  1.9319  1.6358  1.3776
  115OSM   C18F12070   2.429   0.571   8.109 -0.3494 -0.2765 -0.0941
  115OSM   H18F12071   2.437   0.669   8.160  0.1929 -0.4207  0.1020
  115OSM   H18G12072   2.479   0.587   8.011 -0.4057 -0.4478 -0.1522
  115OSM   H18H12073   2.477   0.491   8.169  0.0044 -1.2556 -1.6168
  116OSM      N12074   1.154   5.254   6.365 -0.3701  0.8091  0.5517
  116OSM    C1512075   1.085   5.381   6.381  0.3039 -0.4489 -0.2616
  116OSM   H15A12076   1.027   5.398   6.291  1.1029  0.2020 -0.6749
  116OSM   H15B12077   1.142   5.463   6.424  1.2648 -0.2812 -1.7370
  116OSM   H15C12078   1.008   5.356   6.452 -0.5293 -0.3135 -1.1015
  116OSM    C1412079   1.270   5.277   6.272 -0.1005  0.5298 -0.0163
  116OSM   H14A12080   1.320   5.182   6.259 -2.8687 -0.8048 -1.8492
  116OSM   H14B12081   1.333   5.354   6.315  1.2317  0.7345 -2.1877
  116OSM   H14C12082   1.232   5.296   6.174  0.3450  3.2487  0.2692
  116OSM    C1312083   1.213   5.194   6.490  0.6463 -0.0259 -0.8037
  116OSM   H13A12084   1.134   5.185   6.564  0.8585 -0.0303 -0.5740
  116OSM   H13B12085   1.283   5.267   6.529 -2.7206  3.0137  0.0383
  116OSM   H13C12086   1.272   5.105   6.472 -0.0756 -1.2527  2.2449
  116OSM    C1212087   1.053   5.147   6.310 -0.2393 -0.1547  0.2129
  116OSM   H12A12088   0.997   5.110   6.395  1.1887 -1.5281  0.5977
  116OSM   H12B12089   1.112   5.060   6.284  2.1239  0.9124  1.7145
  116OSM    C1112090   0.964   5.197   6.194  0.0864  0.3329  0.7444
  116OSM   H11A12091   0.908   5.108   6.157 -1.6837  0.6842  2.3707
  116OSM   H11B12092   1.021   5.247   6.114  2.9919 -0.4088  2.2105
  116OSM      P12093   0.759   5.341   6.148 -0.1501 -0.1836  0.0655
  116OSM    O1312094   0.836   5.439   6.066 -0.3469  0.0015  0.0129
  116OSM    O1412095   0.682   5.239   6.073 -0.3418  0.0844  0.5963
  116OSM    O1112096   0.659   5.421   6.242  0.1382  0.3105  0.2916
  116OSM    O1212097   0.860   5.280   6.247 -0.0574 -0.1988 -0.2762
  116OSM    C1S12098   0.636   5.366   6.373 -0.1659  0.1990 -0.6097
  116OSM    H1S12099   0.733   5.348   6.425 -1.6212 -1.7836  1.6048
  116OSM    H1T12100   0.582   5.269   6.371  0.6446 -0.2547 -1.7828
  116OSM     NF12101   0.528   5.409   6.609 -0.1706 -0.1131 -0.6644
  116OSM    HNF12102   0.430   5.400   6.629 -0.4771  2.4169 -0.7341
  116OSM    C2S12103   0.547   5.460   6.468 -0.0185  0.0076  0.4783
  116OSM    H2S12104   0.597   5.559   6.470  1.5539 -0.6243 -2.2876
  116OSM    C3S12105   0.407   5.493   6.386  0.0016  0.2686  0.0120
  116OSM    H3S12106   0.353   5.397   6.377  0.6274 -0.1029  0.1403
  116OSM     O312107   0.429   5.539   6.254  0.1338 -0.7218 -0.6515
  116OSM    HO312108   0.518   5.505   6.246  0.5586 -1.3943  4.2775
  116OSM    C4S12109   0.323   5.586   6.461  0.4466 -0.1508  0.7103
  116OSM    H4S12110   0.219   5.550   6.461  0.3251  0.1787 -0.6387
  116OSM    C5S12111   0.359   5.704   6.501  0.8464 -0.7601 -0.1929
  116OSM    H5S12112   0.463   5.739   6.500  1.7161 -2.8113  3.0390
  116OSM    C6S12113   0.260   5.797   6.571  0.3858  0.1326 -0.6436
  116OSM    H6S12114   0.153   5.767   6.562 -0.3905  2.2084  0.9063
  116OSM    H6T12115   0.260   5.900   6.530 -3.0833  1.3911  1.9796
  116OSM    C7S12116   0.291   5.820   6.718  0.1955  0.0556  0.1527
  116OSM    H7S12117   0.235   5.903   6.767  0.9225  0.1496  0.8444
  116OSM    H7T12118   0.398   5.847   6.729  0.3187  0.8750 -2.3706
  116OSM    C8S12119   0.233   5.702   6.800 -0.5840  0.3032 -0.3448
  116OSM    H8S12120   0.280   5.607   6.764 -0.6340 -0.4758  1.5446
  116OSM    H8T12121   0.124   5.694   6.782 -1.2820  3.1190  1.9598
  116OSM    C9S12122   0.259   5.717   6.951 -0.0011 -0.5225  0.1239
  116OSM    H9S12123   0.225   5.811   6.999  1.4250  1.1988 -2.0287
  116OSM    H9T12124   0.369   5.705   6.964 -0.0534  0.4280  1.7607
  116OSM   C10S12125   0.198   5.600   7.043 -0.3516 -0.1493  0.1672
  116OSM   H10S12126   0.230   5.501   7.004 -1.5847 -2.2894  4.0998
  116OSM   H10T12127   0.089   5.613   7.026 -0.4698 -3.6575 -3.0986
  116OSM   C11S12128   0.248   5.635   7.183  0.8068 -0.3240 -0.0453
  116OSM   H11S12129   0.219   5.739   7.212  1.2990 -0.3816  0.6908
  116OSM   H11T12130   0.359   5.627   7.183  0.8504 -0.1016 -1.7121
  116OSM   C12S12131   0.197   5.540   7.282  0.0019 -0.1370  0.1509
  116OSM   H12S12132   0.223   5.439   7.243  0.9355 -0.1557  0.7798
  116OSM   H12T12133   0.089   5.564   7.289 -0.3483 -1.6956  0.4301
  116OSM   C13S12134   0.269   5.565   7.423  0.5182  0.0098  0.2938
  116OSM   H13S12135   0.278   5.674   7.444  1.9934 -0.0707  0.1924
  116OSM   H13T12136   0.367   5.513   7.428  0.2183 -0.5071  1.0959
  116OSM   C14S12137   0.180   5.506   7.533 -0.0730 -0.0185  0.2367
  116OSM   H14S12138   0.157   5.400   7.508 -2.2220 -0.0109  1.8875
  116OSM   H14T12139   0.091   5.570   7.551  0.1313 -0.1761  1.9374
  116OSM   C15S12140   0.262   5.508   7.671  0.5709  0.0801  0.3169
  116OSM   H15S12141   0.259   5.615   7.700  1.4181  0.5087 -1.1208
  116OSM   H15T12142   0.366   5.471   7.658 -0.5931 -2.6964 -2.6033
  116OSM   C16S12143   0.198   5.425   7.791 -0.9648 -0.2332 -0.1616
  116OSM   H16S12144   0.201   5.321   7.755  1.2486 -0.4991  0.6097
  116OSM   H16T12145   0.093   5.459   7.799 -0.3873  1.9316 -0.9549
  116OSM   C17S12146   0.293   5.431   7.914  0.5467 -0.5563 -0.3376
  116OSM   H17S12147   0.390   5.394   7.874  0.5544  0.4824 -1.3518
  116OSM   H17T12148   0.262   5.347   7.979 -0.7297 -0.6619 -1.0573
  116OSM   C18S12149   0.312   5.570   7.978  0.9732  0.5498 -0.3303
  116OSM   H18S12150   0.214   5.620   7.998  0.6239 -0.6242  1.0871
  116OSM   H18T12151   0.373   5.642   7.919  0.7341 -0.6280 -2.0932
  116OSM   H18U12152   0.354   5.557   8.080 -0.1041  0.2391  0.0930
  116OSM    C1F12153   0.621   5.380   6.702  0.0676 -0.4482  0.7040
  116OSM     OF12154   0.743   5.410   6.688 -0.0074  0.3823 -0.3132
  116OSM    C2F12155   0.577   5.311   6.824 -0.0455  0.1713 -0.2531
  116OSM    H2F12156   0.659   5.237   6.837 -0.2531  0.0726  0.5780
  116OSM    H2G12157   0.474   5.268   6.820  0.1226 -0.4634  1.2498
  116OSM    C3F12158   0.568   5.408   6.953 -0.3275 -0.0688  0.0169
  116OSM    H3F12159   0.487   5.475   6.915 -0.2986 -0.9195 -1.6457
  116OSM    H3G12160   0.667   5.458   6.964 -0.3964  0.5843 -1.9418
  116OSM    C4F12161   0.539   5.338   7.085 -0.3945  0.1732  0.7512
  116OSM    H4F12162   0.445   5.280   7.071 -1.0226  1.1349  0.9373
  116OSM    H4G12163   0.533   5.416   7.163  0.1672 -0.0224  0.9972
  116OSM    C5F12164   0.659   5.245   7.121  0.4238 -0.2582  0.1257
  116OSM    H5F12165   0.756   5.299   7.135 -0.6112  1.4055  1.2925
  116OSM    H5G12166   0.677   5.171   7.040 -0.6375 -0.3867  0.0005
  116OSM    C6F12167   0.621   5.172   7.247 -0.1591  0.5567 -0.6402
  116OSM    H6F12168   0.705   5.103   7.268 -0.2993  0.2350 -1.1076
  116OSM    H6G12169   0.537   5.104   7.223 -0.4107  0.8476 -0.5983
  116OSM    C7F12170   0.586   5.246   7.375  0.4068  0.0181  0.5550
  116OSM    H7F12171   0.483   5.285   7.358  0.1029 -0.9979  0.0184
  116OSM    H7G12172   0.664   5.323   7.398  0.0784  0.9931 -1.3824
  116OSM    C8F12173   0.583   5.147   7.499  0.4086 -0.2753 -0.1249
  116OSM    H8F12174   0.679   5.094   7.517 -0.2571 -2.0630 -1.5916
  116OSM    H8G12175   0.505   5.070   7.481  1.5100 -1.1876 -1.1636
  116OSM    C9F12176   0.540   5.232   7.617 -0.9799  0.9834 -0.4667
  116OSM    H9F12177   0.431   5.249   7.620 -1.1245  0.7183 -2.4088
  116OSM   C10F12178   0.629   5.267   7.719  0.0945  0.5545  0.0403
  116OSM   H10F12179   0.594   5.326   7.806  1.1792 -0.8526  1.4994
  116OSM   C11F12180   0.770   5.218   7.735 -0.4539 -0.1490 -0.3700
  116OSM   H11F12181   0.818   5.237   7.636  0.2843 -0.5809 -0.1058
  116OSM   H11G12182   0.785   5.111   7.760  1.8615  0.1912 -0.0162
  116OSM   C12F12183   0.841   5.297   7.847  0.6483  0.4288  0.0092
  116OSM   H12F12184   0.835   5.406   7.824 -0.0000  0.5998  0.9268
  116OSM   H12G12185   0.948   5.276   7.822  0.9453 -3.1724  3.3464
  116OSM   C13F12186   0.807   5.253   7.990 -0.1093  0.3154 -0.3227
  116OSM   H13F12187   0.828   5.144   7.991  1.8756  0.6521 -0.4845
  116OSM   H13G12188   0.703   5.271   8.024  0.0795 -1.3980  1.3485
  116OSM   C14F12189   0.897   5.315   8.100 -0.4271  0.1289 -0.0975
  116OSM   H14F12190   0.893   5.426   8.104 -0.4570  0.1217  0.0440
  116OSM   H14G12191   1.007   5.299   8.091  0.0710  2.9641 -0.2139
  116OSM   C15F12192   0.853   5.264   8.236 -0.1860  0.2159  0.2181
  116OSM   H15F12193   0.829   5.155   8.233  1.4530 -0.1529 -1.6178
  116OSM   H15G12194   0.760   5.314   8.269 -0.1301  1.8809 -1.9314
  116OSM   C16F12195   0.967   5.274   8.341  0.3715 -0.1230 -0.8018
  116OSM   H16F12196   0.973   5.378   8.378  2.4530 -0.7645  0.8550
  116OSM   H16G12197   1.065   5.249   8.296  1.5753  1.0553  1.0097
  116OSM   C17F12198   0.941   5.201   8.468  0.8306  0.3823  0.0118
  116OSM   H17F12199   0.943   5.093   8.441 -0.1620  0.3689 -0.0541
  116OSM   H17G12200   0.833   5.214   8.490  0.2839 -0.8005 -1.7420
  116OSM   C18F12201   1.041   5.229   8.581  0.0826  0.1189  0.4087
  116OSM   H18F12202   1.004   5.298   8.661  0.0632  1.5493 -0.7846
  116OSM   H18G12203   1.135   5.266   8.536 -0.5686  0.9608 -0.3068
  116OSM   H18H12204   1.065   5.132   8.628  0.7443 -0.0931 -0.3519
  117OSM      N12205   1.125   0.264   6.158 -0.2061  0.3140  0.5691
  117OSM    C1512206   1.083   0.182   6.036  0.1750 -0.1433 -0.9767
  117OSM   H15A12207   0.982   0.153   6.063  1.1200 -1.2277  1.6987
  117OSM   H15B12208   1.144   0.094   6.029  0.7259 -0.1578  2.4283
  117OSM   H15C12209   1.083   0.247   5.949 -1.3363 -0.3790 -1.1909
  117OSM    C1412210   1.255   0.320   6.124 -0.0198 -0.8153 -0.1219
  117OSM   H14A12211   1.246   0.381   6.035 -1.5081  0.5407  0.9095
  117OSM   H14B12212   1.338   0.252   6.110 -0.5508 -1.5941  0.4197
  117OSM   H14C12213   1.282   0.395   6.197 -1.1991  1.4330 -1.8592
  117OSM    C1312214   1.026   0.380   6.167  0.0306  0.2537 -0.4704
  117OSM   H13A12215   1.002   0.430   6.074 -4.7634 -0.6774 -0.0025
  117OSM   H13B12216   1.064   0.449   6.240 -0.9778  1.1135 -0.7314
  117OSM   H13C12217   0.925   0.350   6.194  0.6178 -0.4456  1.0690
  117OSM    C1212218   1.134   0.187   6.286  0.0398  0.1360 -0.4102
  117OSM   H12A12219   1.177   0.254   6.359  0.2361 -0.7448  0.2926
  117OSM   H12B12220   1.207   0.112   6.260 -0.0457 -0.5521  1.2206
  117OSM    C1112221   1.009   0.117   6.347  0.4944 -0.0316 -0.1448
  117OSM   H11A12222   0.942   0.193   6.392 -0.7166 -2.5900  2.7644
  117OSM   H11B12223   1.052   0.062   6.433 -0.3570 -0.6324 -0.0891
  117OSM      P12224   1.019  -0.124   6.245 -0.4931 -0.6874 -0.3859
  117OSM    O1312225   0.936  -0.205   6.160  0.7102 -0.2220  0.5911
  117OSM    O1412226   1.162  -0.107   6.217 -0.0480 -0.1987  0.4867
  117OSM    O1112227   1.010  -0.178   6.392 -0.5953 -0.3685 -0.5906
  117OSM    O1212228   0.951   0.016   6.258  0.3129  0.0893 -0.7289
  117OSM    C1S12229   0.974  -0.316   6.426 -0.0897 -0.1489  0.0517
  117OSM    H1S12230   1.054  -0.388   6.397  0.4861  1.1317 -1.7402
  117OSM    H1T12231   0.880  -0.355   6.382 -2.2582  1.6940  2.7589
  117OSM     NF12232   0.953  -0.467   6.621  0.0805 -0.4877  0.0420
  117OSM    HNF12233   0.868  -0.515   6.640 -0.1197 -1.2650 -2.4913
  117OSM    C2S12234   0.947  -0.330   6.574 -0.1026 -0.9686  0.2245
  117OSM    H2S12235   1.016  -0.274   6.641 -0.8955 -0.5844  0.7371
  117OSM    C3S12236   0.812  -0.266   6.618  0.3713  0.1570 -0.2744
  117OSM    H3S12237   0.729  -0.329   6.578  0.2158  0.5068 -0.5087
  117OSM     O312238   0.790  -0.135   6.560 -0.1212 -0.2355  0.6188
  117OSM    HO312239   0.868  -0.130   6.506  0.0128  0.3024  0.8523
  117OSM    C4S12240   0.789  -0.272   6.771 -0.4671 -0.3149 -1.0603
  117OSM    H4S12241   0.754  -0.367   6.813 -0.8217 -0.3032 -1.3246
  117OSM    C5S12242   0.826  -0.170   6.851  0.4178  0.0223 -0.2203
  117OSM    H5S12243   0.880  -0.081   6.816  0.1997  0.9636  1.6918
  117OSM    C6S12244   0.822  -0.181   7.003 -0.0911  0.1885  0.0822
  117OSM    H6S12245   0.923  -0.167   7.047 -0.5274  2.4605  0.4915
  117OSM    H6T12246   0.792  -0.283   7.035 -2.3115  0.6288 -0.4057
  117OSM    C7S12247   0.738  -0.064   7.069  0.0807 -0.0680  0.3411
  117OSM    H7S12248   0.629  -0.081   7.052  0.6286 -2.2317 -1.5905
  117OSM    H7T12249   0.757   0.038   7.030  0.3661  0.6412  2.2263
  117OSM    C8S12250   0.768  -0.061   7.219  0.5534 -0.3668 -0.2171
  117OSM    H8S12251   0.729   0.033   7.264 -1.7732 -1.0547 -0.6550
  117OSM    H8T12252   0.873  -0.081   7.247 -0.0217 -2.2380  0.8441
  117OSM    C9S12253   0.679  -0.170   7.288  0.0626  0.5581 -0.7994
  117OSM    H9S12254   0.709  -0.275   7.268  2.8814  0.7250  1.8581
  117OSM    H9T12255   0.571  -0.165   7.262  0.1265 -1.0647 -1.4573
  117OSM   C10S12256   0.687  -0.139   7.441  0.1295 -0.2251  0.0740
  117OSM   H10S12257   0.632  -0.047   7.469 -1.2534 -0.6245 -1.2414
  117OSM   H10T12258   0.789  -0.147   7.486 -0.2884  0.0753  1.1036
  117OSM   C11S12259   0.624  -0.247   7.530 -0.3795  0.3136  0.0516
  117OSM   H11S12260   0.679  -0.343   7.527 -0.0435  0.4814 -3.0321
  117OSM   H11T12261   0.518  -0.258   7.498  0.0244 -1.1505 -0.9186
  117OSM   C12S12262   0.609  -0.204   7.681  0.4369 -0.1768  0.7336
  117OSM   H12S12263   0.557  -0.106   7.687 -2.6378 -1.3319 -3.1094
  117OSM   H12T12264   0.707  -0.190   7.731  0.2758  2.1367  0.5187
  117OSM   C13S12265   0.524  -0.305   7.746  0.0630  0.3785  0.2296
  117OSM   H13S12266   0.583  -0.394   7.776 -0.2826  0.6143  1.6714
  117OSM   H13T12267   0.445  -0.340   7.676  1.1149 -0.3250 -0.6338
  117OSM   C14S12268   0.465  -0.270   7.886 -0.1236 -0.1384 -0.1422
  117OSM   H14S12269   0.410  -0.362   7.914 -1.7551 -0.5731 -4.1033
  117OSM   H14T12270   0.380  -0.199   7.892  0.4865  0.5083  4.5534
  117OSM   C15S12271   0.562  -0.232   7.997  0.0447 -0.2507 -0.1765
  117OSM   H15S12272   0.587  -0.125   7.984  1.8331 -0.6084  0.0290
  117OSM   H15T12273   0.656  -0.291   7.986 -0.1295 -0.6608  0.4558
  117OSM   C16S12274   0.499  -0.245   8.135 -0.4088  0.5093  0.2743
  117OSM   H16S12275   0.451  -0.344   8.149 -1.7381  1.3268  1.9359
  117OSM   H16T12276   0.420  -0.167   8.141 -0.9552 -0.0411  0.3562
  117OSM   C17S12277   0.587  -0.226   8.262  0.0205 -0.0390 -0.9976
  117OSM   H17S12278   0.684  -0.276   8.242 -0.0622 -0.4154 -0.4820
  117OSM   H17T12279   0.549  -0.278   8.352 -0.1082  0.8172 -0.5477
  117OSM   C18S12280   0.603  -0.085   8.316  0.8342  0.5438 -0.5347
  117OSM   H18S12281   0.620  -0.017   8.230 -3.1265  1.5456 -0.7309
  117OSM   H18T12282   0.685  -0.078   8.391  1.2833  1.3710 -1.0809
  117OSM   H18U12283   0.511  -0.047   8.366  0.6980  0.6643 -0.8733
  117OSM    C1F12284   1.071  -0.534   6.608  1.1494  0.4759 -0.3448
  117OSM     OF12285   1.176  -0.479   6.586  0.1253 -0.5013  0.2980
  117OSM    C2F12286   1.057  -0.686   6.605  0.7245 -0.4221  0.1270
  117OSM    H2F12287   1.119  -0.718   6.519 -0.5196 -1.5720 -0.3851
  117OSM    H2G12288   0.949  -0.709   6.591  0.1382  0.9732  1.9491
  117OSM    C3F12289   1.104  -0.755   6.729  0.6254  0.7326 -0.6097
  117OSM    H3F12290   1.212  -0.760   6.753  0.1397 -1.4422  1.5720
  117OSM    H3G12291   1.089  -0.864   6.714  0.9974  0.5774  0.0853
  117OSM    C4F12292   1.040  -0.710   6.864 -0.3222 -0.1263  0.5777
  117OSM    H4F12293   0.935  -0.688   6.835 -0.3033 -3.4161 -2.7751
  117OSM    H4G12294   1.095  -0.625   6.911  0.0537  0.0215 -0.1151
  117OSM    C5F12295   1.050  -0.825   6.962  0.1728 -0.3316 -0.5005
  117OSM    H5F12296   1.158  -0.848   6.966  0.0966 -1.1822 -2.2105
  117OSM    H5G12297   1.003  -0.919   6.926 -1.2240  0.1198  0.0673
  117OSM    C6F12298   1.005  -0.775   7.093 -0.1489 -0.1516 -0.5227
  117OSM    H6F12299   0.901  -0.742   7.073  0.2479 -0.8061 -4.2373
  117OSM    H6G12300   1.066  -0.693   7.135 -0.2331  0.5034 -1.6411
  117OSM    C7F12301   0.991  -0.906   7.175  0.2216 -0.5491 -0.1338
  117OSM    H7F12302   1.076  -0.977   7.165  0.9947  0.6276 -2.9806
  117OSM    H7G12303   0.906  -0.959   7.125 -1.1241 -2.0846  3.4500
  117OSM    C8F12304   0.944  -0.872   7.327  0.2386 -0.9323  0.5796
  117OSM    H8F12305   0.896  -0.965   7.365 -0.5627 -0.2970  1.1656
  117OSM    H8G12306   0.856  -0.806   7.310  2.1581  2.2506  1.8942
  117OSM    C9F12307   1.040  -0.805   7.420  0.8960 -1.0139  0.3064
  117OSM    H9F12308   1.136  -0.854   7.403  1.3734  0.7381 -2.8157
  117OSM   C10F12309   1.015  -0.701   7.504 -0.6775 -0.0562  0.4632
  117OSM   H10F12310   1.099  -0.661   7.563 -0.5233 -0.1151  0.2812
  117OSM   C11F12311   0.894  -0.619   7.530  0.3869  0.0503  0.5669
  117OSM   H11F12312   0.801  -0.680   7.534 -0.7720  1.7338  0.2393
  117OSM   H11G12313   0.882  -0.545   7.448 -1.7736 -0.0786  0.7062
  117OSM   C12F12314   0.913  -0.542   7.664  0.0692  0.7734 -0.4932
  117OSM   H12F12315   0.828  -0.471   7.655 -2.2017 -1.7564 -0.5781
  117OSM   H12G12316   1.011  -0.490   7.661  2.1481 -2.5086  2.2330
  117OSM   C13F12317   0.897  -0.624   7.793  0.4195  0.7749  0.2228
  117OSM   H13F12318   0.985  -0.689   7.809  1.8423  1.3569 -4.0584
  117OSM   H13G12319   0.803  -0.684   7.785 -0.1573  1.8188 -1.3957
  117OSM   C14F12320   0.876  -0.530   7.909  0.7162  0.1277  0.3469
  117OSM   H14F12321   0.788  -0.464   7.891 -0.7691 -1.8367  0.0592
  117OSM   H14G12322   0.966  -0.467   7.922  1.7635 -1.2071 -0.1843
  117OSM   C15F12323   0.849  -0.618   8.043  0.6458  0.1132 -0.0739
  117OSM   H15F12324   0.936  -0.686   8.052  1.2479  0.8776 -0.0306
  117OSM   H15G12325   0.750  -0.668   8.039  0.5434  0.0852  1.9057
  117OSM   C16F12326   0.861  -0.528   8.173 -0.6963  0.1021 -0.7147
  117OSM   H16F12327   0.784  -0.449   8.166  0.3841  1.3737  0.9842
  117OSM   H16G12328   0.954  -0.467   8.177 -0.9338  0.4029  2.0212
  117OSM   C17F12329   0.859  -0.594   8.313  0.0006 -0.3735 -1.4638
  117OSM   H17F12330   0.918  -0.687   8.305 -0.7963 -0.9260 -1.0687
  117OSM   H17G12331   0.905  -0.529   8.391 -1.1685 -0.9789 -0.2253
  117OSM   C18F12332   0.727  -0.630   8.359  0.5420  0.5824  0.1118
  117OSM   H18F12333   0.663  -0.683   8.285 -0.1202  0.9637  0.3981
  117OSM   H18G12334   0.664  -0.545   8.394  1.2668  0.5119  1.6809
  117OSM   H18H12335   0.738  -0.706   8.440  1.1037 -0.1103 -0.5991
  118OSM      N12336   2.960   2.552   6.351  0.1872 -0.4177 -0.1721
  118OSM    C1512337   3.015   2.693   6.370  0.3113 -0.9155  0.4178
  118OSM   H15A12338   3.017   2.710   6.476 -0.3580  1.1446  0.1443
  118OSM   H15B12339   2.951   2.759   6.313  0.7237 -1.2551 -0.4713
  118OSM   H15C12340   3.112   2.702   6.322 -0.1759 -1.6242 -0.7449
  118OSM    C1412341   2.820   2.552   6.400 -0.0735  0.0753  0.6583
  118OSM   H14A12342   2.780   2.454   6.381  0.3842  0.4059 -2.5739
  118OSM   H14B12343   2.755   2.614   6.340 -0.3173  0.2137  1.0618
  118OSM   H14C12344   2.805   2.590   6.500  3.9465  0.1335  1.3825
  118OSM    C1312345   2.966   2.519   6.201  0.1136 -0.2419  0.9739
  118OSM   H13A12346   2.944   2.606   6.140  2.4334 -0.0595  0.3161
  118OSM   H13B12347   2.906   2.436   6.168 -0.2266 -0.6675  2.5697
  118OSM   H13C12348   3.066   2.493   6.172 -0.1003 -1.4904  1.2935
  118OSM    C1212349   3.050   2.455   6.431 -0.3137 -0.3683  0.3283
  118OSM   H12A12350   3.041   2.485   6.535 -2.4700 -1.9936  0.6713
  118OSM   H12B12351   3.152   2.470   6.400 -0.3737  0.6809  0.5895
  118OSM    C1112352   3.013   2.313   6.424 -0.8155  1.3157  0.3139
  118OSM   H11A12353   2.908   2.298   6.456 -0.6145 -2.1872 -0.3150
  118OSM   H11B12354   3.069   2.261   6.504 -0.7630  0.6687 -0.1356
  118OSM      P12355   3.188   2.217   6.242 -0.4334  0.1076  0.1854
  118OSM    O1312356   3.188   2.112   6.141 -0.2398  0.2474  0.0882
  118OSM    O1412357   3.255   2.342   6.203 -0.4277  0.7376 -0.1748
  118OSM    O1112358   3.251   2.161   6.381 -0.0923  0.2509  0.1147
  118OSM    O1212359   3.041   2.255   6.293  0.3208 -0.2131 -0.1838
  118OSM    C1S12360   3.398   2.154   6.401 -0.0537  0.2056  0.1977
  118OSM    H1S12361   3.451   2.224   6.333 -0.4178  1.6772  1.3755
  118OSM    H1T12362   3.439   2.054   6.375 -0.1404  0.5701 -1.4865
  118OSM     NF12363   3.574   2.199   6.550  0.1241 -0.2423 -0.2445
  118OSM    HNF12364   3.622   2.112   6.557  0.3746  0.0178  1.8697
  118OSM    C2S12365   3.429   2.191   6.544 -0.0491 -0.3565 -0.2223
  118OSM    H2S12366   3.390   2.292   6.569  0.3848  0.2619 -1.8991
  118OSM    C3S12367   3.371   2.092   6.641  0.0710  0.0606 -0.5097
  118OSM    H3S12368   3.399   1.991   6.605 -3.0840 -0.9350 -0.4214
  118OSM     O312369   3.228   2.092   6.654 -0.0125  0.5526  0.4513
  118OSM    HO312370   3.202   2.141   6.575  0.6786 -0.0643 -0.1818
  118OSM    C4S12371   3.422   2.128   6.774 -0.7541  0.2687  0.3465
  118OSM    H4S12372   3.393   2.228   6.810 -1.9899  0.8407 -2.0504
  118OSM    C5S12373   3.498   2.042   6.849  0.5478 -0.4402 -0.7682
  118OSM    H5S12374   3.529   1.948   6.800  0.5025 -0.5288 -0.6267
  118OSM    C6S12375   3.548   2.065   6.991  0.9636  0.3478  0.1943
  118OSM    H6S12376   3.548   1.969   7.046 -2.8524  0.2086  0.2035
  118OSM    H6T12377   3.463   2.115   7.043 -1.5021 -0.8557 -2.4198
  118OSM    C7S12378   3.683   2.127   7.010 -0.5562 -0.1950  0.1820
  118OSM    H7S12379   3.700   2.226   6.962  2.0543 -0.6405  0.0438
  118OSM    H7T12380   3.764   2.069   6.960 -0.7553  0.9217 -1.4993
  118OSM    C8S12381   3.705   2.151   7.163 -0.2951 -0.1270 -0.1699
  118OSM    H8S12382   3.626   2.219   7.202 -0.6595 -1.1777  0.9911
  118OSM    H8T12383   3.802   2.205   7.166  0.0728 -0.6395 -1.7636
  118OSM    C9S12384   3.722   2.034   7.254 -0.0313  0.5090  0.6184
  118OSM    H9S12385   3.796   1.958   7.221 -1.4506  0.2637 -2.3917
  118OSM    H9T12386   3.632   1.969   7.243  0.9173 -1.3709  3.0437
  118OSM   C10S12387   3.730   2.057   7.406  0.1416  0.3979  0.2985
  118OSM   H10S12388   3.623   2.066   7.436  0.9330  2.4641  2.8790
  118OSM   H10T12389   3.782   2.147   7.443  1.3084 -0.1875  0.1332
  118OSM   C11S12390   3.772   1.932   7.479  0.1053  0.3073  0.0820
  118OSM   H11S12391   3.883   1.927   7.470 -0.0195 -1.0505 -0.8416
  118OSM   H11T12392   3.738   1.844   7.422  1.9487 -2.3095  2.6814
  118OSM   C12S12393   3.727   1.932   7.622 -0.3795  0.4817 -0.0032
  118OSM   H12S12394   3.616   1.936   7.614 -0.3494  0.2679 -0.5500
  118OSM   H12T12395   3.758   2.026   7.674 -1.6236  2.0319 -1.9274
  118OSM   C13S12396   3.764   1.806   7.702 -0.3084 -0.6363 -0.2817
  118OSM   H13S12397   3.873   1.800   7.722 -0.4424 -0.0492  0.7082
  118OSM   H13T12398   3.751   1.716   7.640  0.4836 -0.6469 -0.4466
  118OSM   C14S12399   3.696   1.805   7.837  0.2309 -0.0194 -0.8373
  118OSM   H14S12400   3.615   1.733   7.808  0.1394  0.0777 -0.8248
  118OSM   H14T12401   3.642   1.899   7.860 -0.6414 -0.8620  0.7385
  118OSM   C15S12402   3.780   1.765   7.966  0.3155 -0.7117  0.0950
  118OSM   H15S12403   3.862   1.838   7.979  0.7768 -1.7480  4.5066
  118OSM   H15T12404   3.827   1.669   7.938  1.1858 -0.5830  1.0547
  118OSM   C16S12405   3.681   1.777   8.087 -0.0776  0.2456  0.5819
  118OSM   H16S12406   3.578   1.750   8.055  0.4061  1.0263 -1.8190
  118OSM   H16T12407   3.672   1.881   8.125 -1.5962 -0.7796  3.2911
  118OSM   C17S12408   3.740   1.695   8.203 -0.4263 -0.1771  0.1005
  118OSM   H17S12409   3.845   1.729   8.218 -0.6248  1.2214 -1.4729
  118OSM   H17T12410   3.746   1.590   8.167  1.1222 -0.1102  0.0645
  118OSM   C18S12411   3.649   1.710   8.326 -0.1007 -0.8156  0.1489
  118OSM   H18S12412   3.681   1.643   8.409  0.4446  0.1128  0.7162
  118OSM   H18T12413   3.547   1.686   8.291 -0.5707 -0.4377  1.2243
  118OSM   H18U12414   3.644   1.814   8.366  1.0289 -0.9190  0.6047
  118OSM    C1F12415   3.644   2.311   6.524  0.5326 -0.1778 -0.4357
  118OSM     OF12416   3.583   2.411   6.484 -0.8730 -0.0880  0.0281
  118OSM    C2F12417   3.789   2.294   6.528 -0.2408 -0.4627  0.4124
  118OSM    H2F12418   3.806   2.300   6.419  3.2569  0.8511  0.9114
  118OSM    H2G12419   3.823   2.200   6.575 -0.0200 -1.2895 -1.3300
  118OSM    C3F12420   3.865   2.405   6.606  0.2974 -0.1430 -0.1177
  118OSM    H3F12421   3.841   2.510   6.579  1.2774  0.3908  0.9484
  118OSM    H3G12422   3.975   2.409   6.590  0.0127 -0.7632 -2.4991
  118OSM    C4F12423   3.829   2.409   6.764  0.2751 -0.0421 -0.0319
  118OSM    H4F12424   3.872   2.315   6.803 -1.5825 -1.2383 -0.7121
  118OSM    H4G12425   3.718   2.402   6.772  0.1708  0.8201 -0.5429
  118OSM    C5F12426   3.890   2.525   6.846  0.2310  0.5328  0.4827
  118OSM    H5F12427   3.876   2.622   6.794  1.8806 -0.0263 -1.1141
  118OSM    H5G12428   3.996   2.495   6.830 -0.3897 -0.3733 -2.6131
  118OSM    C6F12429   3.842   2.543   6.996 -0.4431  0.2235  0.6056
  118OSM    H6F12430   3.738   2.508   7.012 -0.2007  0.4790  3.3192
  118OSM    H6G12431   3.845   2.650   7.026  1.8545  0.8148 -1.3973
  118OSM    C7F12432   3.938   2.477   7.095 -0.0246 -0.0368  0.7416
  118OSM    H7F12433   4.043   2.510   7.082 -1.0042  2.3919 -2.1132
  118OSM    H7G12434   3.929   2.368   7.074 -0.6914 -0.1497  1.5487
  118OSM    C8F12435   3.905   2.471   7.246  0.1963 -0.0447 -0.1645
  118OSM    H8F12436   3.966   2.385   7.280  1.3468  0.7378 -0.1718
  118OSM    H8G12437   3.801   2.435   7.259  0.5500 -0.8204  0.6043
  118OSM    C9F12438   3.934   2.595   7.323  0.5400 -0.1082 -0.2807
  118OSM    H9F12439   3.954   2.687   7.265  0.3267  0.8111  1.0546
  118OSM   C10F12440   3.951   2.593   7.458 -0.6564 -0.6355 -0.0932
  118OSM   H10F12441   3.980   2.680   7.518 -2.7012  0.3784 -0.4885
  118OSM   C11F12442   3.940   2.465   7.540 -0.5868 -0.1485  0.7405
  118OSM   H11F12443   4.043   2.448   7.580 -0.4355 -1.2782 -0.0858
  118OSM   H11G12444   3.935   2.378   7.472  0.8594  1.3330 -1.4058
  118OSM   C12F12445   3.825   2.455   7.637 -0.0481  0.3974  0.0535
  118OSM   H12F12446   3.811   2.350   7.668  1.3612 -0.2813 -1.4843
  118OSM   H12G12447   3.729   2.485   7.591 -0.2582 -0.9667 -0.4379
  118OSM   C13F12448   3.837   2.548   7.759 -0.0089 -0.9920  0.5445
  118OSM   H13F12449   3.749   2.525   7.824  0.8574 -0.7931  1.8270
  118OSM   H13G12450   3.823   2.654   7.731  0.6779 -0.4026  2.2791
  118OSM   C14F12451   3.961   2.520   7.845  0.8584  0.3278 -0.0383
  118OSM   H14F12452   4.058   2.528   7.791  0.4656 -1.9386 -1.2331
  118OSM   H14G12453   3.947   2.414   7.877  0.9078 -0.3225 -1.9917
  118OSM   C15F12454   3.956   2.607   7.974 -0.0307  0.6445 -0.2695
  118OSM   H15F12455   3.864   2.594   8.035  0.7248  0.1924  0.8166
  118OSM   H15G12456   3.972   2.713   7.947 -0.7896  0.9285  0.3530
  118OSM   C16F12457   4.070   2.571   8.076  1.0384 -0.2099 -0.1112
  118OSM   H16F12458   4.164   2.545   8.021  1.6021  0.2945  0.5911
  118OSM   H16G12459   4.029   2.481   8.126 -0.2462  0.4286  0.0108
  118OSM   C17F12460   4.094   2.684   8.176 -0.4682  0.0907  0.1295
  118OSM   H17F12461   4.113   2.777   8.118 -2.2188 -0.6914 -1.8281
  118OSM   H17G12462   4.193   2.673   8.225 -0.5707  0.3405  0.3996
  118OSM   C18F12463   3.993   2.698   8.287  0.6966 -0.9866  0.2260
  118OSM   H18F12464   3.896   2.714   8.235  0.9536  0.8637  0.2713
  118OSM   H18G12465   4.000   2.796   8.339 -2.0694 -0.6542  0.1464
  118OSM   H18H12466   3.979   2.614   8.359  0.2269 -0.3786  0.8529
  119OSM      N12467   4.242   0.684   6.042  0.5186  0.2532 -0.3628
  119OSM    C1512468   4.127   0.783   6.035  0.2300  0.2811 -0.2746
  119OSM   H15A12469   4.129   0.832   5.939 -1.0501  2.7469  0.8634
  119OSM   H15B12470   4.135   0.867   6.103  1.2752  2.0439 -2.4417
  119OSM   H15C12471   4.030   0.737   6.047  1.0770 -1.3346  0.7331
  119OSM    C1412472   4.231   0.601   6.163 -0.1740 -0.8368  0.1143
  119OSM   H14A12473   4.196   0.662   6.245 -2.5812 -2.3500  0.2990
  119OSM   H14B12474   4.316   0.540   6.188 -2.6755 -4.0384  1.5680
  119OSM   H14C12475   4.153   0.528   6.149  0.2580 -1.5731  1.3704
  119OSM    C1312476   4.229   0.582   5.931 -0.2286 -0.2207  0.2996
  119OSM   H13A12477   4.129   0.541   5.928 -0.3679  0.0929 -2.3913
  119OSM   H13B12478   4.298   0.503   5.955  0.7062  0.3323 -0.4596
  119OSM   H13C12479   4.247   0.623   5.832 -0.3562  0.4364  0.5434
  119OSM    C1212480   4.374   0.761   6.039 -0.0622  0.8159  0.0827
  119OSM   H12A12481   4.373   0.820   5.949 -0.2629  0.4848 -0.1330
  119OSM   H12B12482   4.457   0.692   6.035 -0.4907  0.2238  0.9180
  119OSM    C1112483   4.405   0.856   6.150  0.0658 -0.1423 -0.0410
  119OSM   H11A12484   4.510   0.887   6.134 -0.1424  0.3729 -0.4200
  119OSM   H11B12485   4.403   0.785   6.235 -0.5123  0.1762  0.2161
  119OSM      P12486   4.321   1.076   6.054  0.0876 -0.3323 -0.1970
  119OSM    O1312487   4.393   1.026   5.936  0.1546  0.4191  0.6854
  119OSM    O1412488   4.180   1.121   6.037  0.0300  0.4597  0.3798
  119OSM    O1112489   4.399   1.191   6.129 -0.7683  0.4447 -0.0707
  119OSM    O1212490   4.315   0.964   6.160  0.0149  0.0570  0.1537
  119OSM    C1S12491   4.366   1.212   6.269 -0.8897 -0.4721  0.1854
  119OSM    H1S12492   4.289   1.140   6.302 -1.5694  1.1762  2.5023
  119OSM    H1T12493   4.314   1.310   6.270 -0.4715 -0.2462  0.0658
  119OSM     NF12494   4.433   1.223   6.510 -0.0465 -0.3767 -0.8999
  119OSM    HNF12495   4.469   1.300   6.563 -1.4013  0.1771 -0.7305
  119OSM    C2S12496   4.482   1.202   6.376  0.0090 -0.4949  0.1715
  119OSM    H2S12497   4.520   1.097   6.371 -2.9434 -1.5709 -2.2424
  119OSM    C3S12498   4.597   1.300   6.326 -0.0524 -0.3253 -0.1065
  119OSM    H3S12499   4.557   1.403   6.319 -0.9775 -0.6614  0.2254
  119OSM     O312500   4.636   1.260   6.204 -0.5235  0.1533 -0.1459
  119OSM    HO312501   4.553   1.227   6.168 -1.4293  1.2841  0.8031
  119OSM    C4S12502   4.717   1.291   6.421 -0.3090 -0.8389 -0.1294
  119OSM    H4S12503   4.754   1.189   6.439  1.1327 -0.7026 -2.0399
  119OSM    C5S12504   4.759   1.401   6.488 -0.0806  0.6710 -0.6224
  119OSM    H5S12505   4.709   1.498   6.480  1.4261  1.4836 -0.5450
  119OSM    C6S12506   4.867   1.385   6.592  0.0138 -0.2081  0.0567
  119OSM    H6S12507   4.836   1.433   6.687 -1.1991  0.9259 -0.8749
  119OSM    H6T12508   4.936   1.467   6.563  0.5195 -0.6439  0.0251
  119OSM    C7S12509   4.925   1.249   6.635 -0.6600  0.0324 -0.0194
  119OSM    H7S12510   4.995   1.224   6.553  0.1813  1.2739  0.2972
  119OSM    H7T12511   4.849   1.172   6.663 -0.1243  0.8842  4.6131
  119OSM    C8S12512   5.006   1.262   6.764 -1.1114  0.3251 -0.0847
  119OSM    H8S12513   4.937   1.277   6.850 -0.0195  2.0405  0.5386
  119OSM    H8T12514   5.068   1.353   6.756 -0.6322 -0.0532 -0.8184
  119OSM    C9S12515   5.100   1.143   6.786  0.3247 -0.1212 -0.4240
  119OSM    H9S12516   5.174   1.131   6.704 -0.4792  0.7581 -1.3059
  119OSM    H9T12517   5.031   1.057   6.784  1.2167 -0.8416 -0.7767
  119OSM   C10S12518   5.182   1.158   6.918  0.1283 -0.6594  0.3532
  119OSM   H10S12519   5.119   1.195   7.002 -2.3061 -1.1008 -1.1662
  119OSM   H10T12520   5.251   1.242   6.897  0.8975 -1.5396 -0.7993
  119OSM   C11S12521   5.255   1.022   6.945  0.0650 -0.1363 -0.1224
  119OSM   H11S12522   5.270   0.976   6.845  0.8877  1.4945 -0.8004
  119OSM   H11T12523   5.177   0.963   6.997 -0.7769  0.4580 -0.6683
  119OSM   C12S12524   5.388   1.030   7.015 -0.1247  0.4927  0.1802
  119OSM   H12S12525   5.454   1.094   6.953  1.0437 -0.6570  0.1912
  119OSM   H12T12526   5.431   0.929   7.032  1.9029  0.9305 -1.7802
  119OSM   C13S12527   5.390   1.105   7.146  0.5860  0.0318  0.0436
  119OSM   H13S12528   5.347   1.206   7.135 -2.9372 -1.1815  1.1513
  119OSM   H13T12529   5.492   1.111   7.189  0.5461 -0.5467  0.2384
  119OSM   C14S12530   5.315   1.024   7.257  0.3691 -0.2262 -0.0952
  119OSM   H14S12531   5.382   0.943   7.294  0.3011  0.2945  1.1967
  119OSM   H14T12532   5.224   0.977   7.214  0.4629 -2.5472  2.0176
  119OSM   C15S12533   5.263   1.105   7.371  1.2125 -0.1476  0.2002
  119OSM   H15S12534   5.172   1.157   7.336  0.4746 -1.7125 -0.3180
  119OSM   H15T12535   5.342   1.181   7.390  0.6601  0.8987 -1.4535
  119OSM   C16S12536   5.235   1.023   7.498 -0.0632 -0.1751 -0.6383
  119OSM   H16S12537   5.159   0.944   7.478 -0.7580 -0.0227  1.1704
  119OSM   H16T12538   5.189   1.081   7.581  2.7069 -0.6282  1.3730
  119OSM   C17S12539   5.353   0.950   7.560  0.4279 -0.3362 -0.2836
  119OSM   H17S12540   5.378   0.863   7.496 -2.1933 -2.1013  0.9262
  119OSM   H17T12541   5.312   0.910   7.655  0.6526  0.4379  0.1484
  119OSM   C18S12542   5.480   1.030   7.592  0.2911  0.4511  0.0495
  119OSM   H18S12543   5.449   1.117   7.654  1.1693 -0.0392  1.2323
  119OSM   H18T12544   5.534   1.054   7.499  2.4268 -0.4698  0.9932
  119OSM   H18U12545   5.545   0.963   7.653  0.8153 -0.1161 -1.1018
  119OSM    C1F12546   4.363   1.129   6.578  0.2303 -0.7730  0.4331
  119OSM     OF12547   4.370   1.010   6.542  0.2809 -0.1803 -0.2562
  119OSM    C2F12548   4.283   1.171   6.698 -0.0332 -0.1312  0.3130
  119OSM    H2F12549   4.199   1.105   6.726 -0.1662  0.6428  1.8543
  119OSM    H2G12550   4.252   1.278   6.701  1.1934  0.2298  1.0554
  119OSM    C3F12551   4.366   1.147   6.825  0.4419  0.4766  0.5382
  119OSM    H3F12552   4.469   1.189   6.824  0.0797  1.3969  0.1457
  119OSM    H3G12553   4.384   1.038   6.829  0.2931  0.4310  0.0484
  119OSM    C4F12554   4.302   1.202   6.953 -0.3022  0.7107  0.0438
  119OSM    H4F12555   4.196   1.168   6.958 -0.0579  0.0419  1.5873
  119OSM    H4G12556   4.295   1.312   6.943  1.6263  0.7149 -1.5937
  119OSM    C5F12557   4.367   1.151   7.087 -0.2183 -1.0152  0.7375
  119OSM    H5F12558   4.458   1.213   7.104 -2.1689  2.2079  0.1110
  119OSM    H5G12559   4.399   1.046   7.070 -2.3528 -1.7548  1.0005
  119OSM    C6F12560   4.287   1.149   7.216 -0.1760  0.2098 -0.5412
  119OSM    H6F12561   4.196   1.090   7.195  0.0432  0.1027 -1.2252
  119OSM    H6G12562   4.259   1.250   7.250  1.3630  0.0776  1.2909
  119OSM    C7F12563   4.376   1.069   7.324  0.4338  0.3487 -0.7644
  119OSM    H7F12564   4.466   1.127   7.352  0.7829 -0.0736 -1.0170
  119OSM    H7G12565   4.414   0.980   7.271 -0.5674 -0.2434 -0.5215
  119OSM    C8F12566   4.304   1.033   7.461 -0.2397 -0.0519  0.2313
  119OSM    H8F12567   4.368   0.956   7.509  1.0029 -0.7038 -2.2591
  119OSM    H8G12568   4.203   0.991   7.445  0.6846 -2.3744  0.0671
  119OSM    C9F12569   4.295   1.150   7.559  0.5909  0.4094  0.3723
  119OSM    H9F12570   4.306   1.248   7.509 -1.7753 -0.7536 -2.7225
  119OSM   C10F12571   4.323   1.135   7.690  0.3402  0.4751 -0.3857
  119OSM   H10F12572   4.331   1.229   7.747  0.5490 -0.2708  0.8623
  119OSM   C11F12573   4.349   1.006   7.761  0.8385  0.3091  0.3765
  119OSM   H11F12574   4.449   0.971   7.727  0.3457  0.8789 -1.7739
  119OSM   H11G12575   4.267   0.937   7.732  1.2904  0.4234 -1.2707
  119OSM   C12F12576   4.333   1.016   7.910 -0.2768 -0.2278  0.2793
  119OSM   H12F12577   4.402   1.100   7.934 -0.9975  0.8342 -1.1932
  119OSM   H12G12578   4.376   0.924   7.954  1.9206  0.0074 -1.1573
  119OSM   C13F12579   4.200   1.042   7.976 -0.3729  1.4389  0.0509
  119OSM   H13F12580   4.144   1.118   7.917 -3.1579  0.0240  0.6685
  119OSM   H13G12581   4.212   1.087   8.077  0.1458 -0.2563  0.7796
  119OSM   C14F12582   4.109   0.915   7.979 -0.2593 -0.1231 -0.3111
  119OSM   H14F12583   4.085   0.877   7.877  1.4838  0.7547 -1.0959
  119OSM   H14G12584   4.014   0.954   8.022  0.1256  0.8256 -0.2960
  119OSM   C15F12585   4.176   0.813   8.081  1.1581 -0.2701 -0.9559
  119OSM   H15F12586   4.232   0.869   8.160  3.4046 -2.2259 -1.0497
  119OSM   H15G12587   4.252   0.752   8.029  1.5767 -0.3342 -0.2831
  119OSM   C16F12588   4.075   0.708   8.134  0.5113 -0.7582  0.2758
  119OSM   H16F12589   4.021   0.663   8.048 -1.8226  2.8894 -0.4016
  119OSM   H16G12590   3.994   0.755   8.193  0.1610  1.1022 -1.5724
  119OSM   C17F12591   4.148   0.604   8.221 -0.8123 -0.3878  0.9442
  119OSM   H17F12592   4.203   0.540   8.149 -3.6430 -0.7771 -1.0693
  119OSM   H17G12593   4.076   0.533   8.268  0.4680 -1.8439  0.8127
  119OSM   C18F12594   4.239   0.661   8.322  0.2898 -0.2902 -0.1282
  119OSM   H18F12595   4.183   0.746   8.364  0.2783 -0.4480  0.1780
  119OSM   H18G12596   4.340   0.680   8.279  0.9401 -1.6206  0.7357
  119OSM   H18H12597   4.258   0.587   8.404 -0.5535 -1.2889 -0.8003
  120OSM      N12598   1.182   5.920   5.984 -0.1019  0.7362  0.5959
  120OSM    C1512599   1.244   5.781   5.972 -1.0076 -0.2499 -0.7707
  120OSM   H15A12600   1.206   5.710   6.044  1.0157 -0.6067  0.0177
  120OSM   H15B12601   1.349   5.792   5.993 -1.5560 -1.4472  3.5490
  120OSM   H15C12602   1.241   5.746   5.870 -0.4826 -0.1227 -0.8336
  120OSM    C1412603   1.256   6.008   5.884  0.5184  0.2069  0.2088
  120OSM   H14A12604   1.363   6.018   5.892  0.8022  1.1917 -3.1830
  120OSM   H14B12605   1.215   6.107   5.900  1.1178  0.4172  0.4826
  120OSM   H14C12606   1.229   5.980   5.783 -0.0159  0.8229  0.1746
  120OSM    C1312607   1.045   5.912   5.929 -0.5305  0.3450  0.1618
  120OSM   H13A12608   1.036   5.853   5.839 -0.7083  1.1902 -0.3902
  120OSM   H13B12609   1.016   6.013   5.906  0.7507  0.8673  0.7813
  120OSM   H13C12610   0.969   5.880   5.999 -2.1523  1.7926 -0.8344
  120OSM    C1212611   1.179   5.963   6.129 -0.2527  0.2537 -0.0676
  120OSM   H12A12612   1.111   6.045   6.143 -1.9378 -0.8593 -1.3836
  120OSM   H12B12613   1.279   6.002   6.141  0.6055 -1.3612 -1.5001
  120OSM    C1112614   1.144   5.858   6.236 -0.1341 -0.3576  0.0190
  120OSM   H11A12615   1.158   5.901   6.338 -0.0911 -0.8639  0.2322
  120OSM   H11B12616   1.215   5.773   6.245 -0.0390 -0.4782 -1.6599
  120OSM      P12617   0.889   5.890   6.264  0.3484 -0.1885  0.1689
  120OSM    O1312618   0.907   6.032   6.228  0.0376  0.3399  0.0938
  120OSM    O1412619   0.769   5.824   6.221  0.0261  0.5901 -0.1335
  120OSM    O1112620   0.915   5.871   6.420 -0.4000 -0.1318  0.5438
  120OSM    O1212621   1.014   5.808   6.211 -0.1738  0.3161  0.7541
  120OSM    C1S12622   0.927   5.751   6.489 -0.0657 -1.0048 -0.2146
  120OSM    H1S12623   1.037   5.736   6.491  0.3624  1.6889 -0.1760
  120OSM    H1T12624   0.871   5.671   6.437 -1.6279  0.3907 -0.7459
  120OSM     NF12625   0.905   5.624   6.705  0.1991 -0.1622  0.4427
  120OSM    HNF12626   0.835   5.553   6.707  0.5949 -0.6255 -0.8339
  120OSM    C2S12627   0.881   5.754   6.642 -0.2572  0.5834  0.0647
  120OSM    H2S12628   0.954   5.821   6.693  1.7366 -1.1999 -0.3165
  120OSM    C3S12629   0.740   5.800   6.655 -0.4532 -0.7090 -0.2578
  120OSM    H3S12630   0.668   5.719   6.630 -0.4652 -0.9482  0.5356
  120OSM     O312631   0.695   5.908   6.568  0.1588  0.4833  0.9398
  120OSM    HO312632   0.766   5.918   6.505  0.6896  1.5346  1.6639
  120OSM    C4S12633   0.718   5.842   6.799  0.1979 -0.4422  0.5880
  120OSM    H4S12634   0.750   5.946   6.816 -1.9584  0.8129 -2.1229
  120OSM    C5S12635   0.633   5.781   6.887 -0.6690  0.0647  0.1278
  120OSM    H5S12636   0.570   5.699   6.850  3.7464 -2.3134 -3.1779
  120OSM    C6S12637   0.603   5.834   7.027  0.3521  0.1966  0.2940
  120OSM    H6S12638   0.498   5.865   7.040  0.7611  1.9014 -0.2194
  120OSM    H6T12639   0.652   5.932   7.047  0.1328 -0.0250  2.1228
  120OSM    C7S12640   0.634   5.736   7.142  0.7506  0.2850 -0.9207
  120OSM    H7S12641   0.743   5.715   7.142  0.8344  0.6571 -0.0399
  120OSM    H7T12642   0.563   5.653   7.122  0.6430  0.1899 -0.1881
  120OSM    C8S12643   0.601   5.797   7.275 -0.4915 -0.0213  0.2640
  120OSM    H8S12644   0.493   5.820   7.278 -1.0212 -1.8616 -2.0158
  120OSM    H8T12645   0.652   5.895   7.281  1.6274 -1.1182  1.7566
  120OSM    C9S12646   0.634   5.712   7.400 -0.9338 -0.6363 -1.1098
  120OSM    H9S12647   0.729   5.657   7.381  0.8364  1.2283  1.5494
  120OSM    H9T12648   0.553   5.636   7.411 -0.7931 -0.5313  1.2017
  120OSM   C10S12649   0.627   5.795   7.530  0.1687  0.1531 -0.4109
  120OSM   H10S12650   0.518   5.814   7.540  0.4237  1.7687 -0.4406
  120OSM   H10T12651   0.666   5.899   7.518 -1.6424  1.4505  3.3353
  120OSM   C11S12652   0.683   5.727   7.651  0.0313 -0.2157 -0.3718
  120OSM   H11S12653   0.791   5.701   7.646  0.2230  0.3351  0.5621
  120OSM   H11T12654   0.637   5.627   7.663 -1.4983  0.3870 -0.9777
  120OSM   C12S12655   0.674   5.804   7.789 -0.1728  0.2840  0.2761
  120OSM   H12S12656   0.569   5.834   7.812 -0.1985  1.4694 -1.2216
  120OSM   H12T12657   0.738   5.894   7.774  0.9338 -0.4839  0.2317
  120OSM   C13S12658   0.725   5.724   7.917  0.0127 -0.9684 -0.6060
  120OSM   H13S12659   0.814   5.665   7.888 -1.6749 -2.9670 -2.0097
  120OSM   H13T12660   0.643   5.653   7.943  0.4602 -1.5258 -0.7101
  120OSM   C14S12661   0.730   5.812   8.045  0.0656  1.2543 -0.2193
  120OSM   H14S12662   0.638   5.872   8.058  1.1903  2.8850  0.5696
  120OSM   H14T12663   0.821   5.876   8.048  1.7852 -0.9861  3.9530
  120OSM   C15S12664   0.740   5.707   8.155  0.5312  0.0410 -0.4173
  120OSM   H15S12665   0.831   5.646   8.135 -0.3733 -1.7779  0.6591
  120OSM   H15T12666   0.653   5.638   8.147  1.9021 -1.5168 -3.5996
  120OSM   C16S12667   0.758   5.773   8.300  0.3135  0.2153  0.8131
  120OSM   H16S12668   0.668   5.833   8.324  0.2402  0.6079 -0.4003
  120OSM   H16T12669   0.835   5.853   8.297  0.0964  0.3956 -1.0322
  120OSM   C17S12670   0.783   5.666   8.412 -0.4456  0.2722 -0.1227
  120OSM   H17S12671   0.719   5.578   8.389 -2.9911  2.1258 -0.5939
  120OSM   H17T12672   0.760   5.700   8.515 -2.4347 -1.8847  0.2363
  120OSM   C18S12673   0.940   5.639   8.423  0.6311 -0.3783 -0.7225
  120OSM   H18S12674   0.958   5.563   8.502 -0.2075 -1.3264 -1.4179
  120OSM   H18T12675   0.993   5.732   8.452  2.1178 -1.8987  1.8282
  120OSM   H18U12676   0.981   5.596   8.329  2.0248 -0.7502  0.0243
  120OSM    C1F12677   1.019   5.587   6.753 -0.3988  0.2000 -0.4542
  120OSM     OF12678   1.126   5.646   6.733 -0.2500 -0.7630  1.0122
  120OSM    C2F12679   1.014   5.461   6.825  0.4864  0.2666  0.0185
  120OSM    H2F12680   1.003   5.384   6.746 -1.8910 -0.1685  0.7097
  120OSM    H2G12681   0.919   5.450   6.881 -0.8394  0.4608 -2.1161
  120OSM    C3F12682   1.119   5.424   6.929  0.5198  0.3974  0.2101
  120OSM    H3F12683   1.221   5.431   6.885  0.0741 -0.5113 -1.0027
  120OSM    H3G12684   1.097   5.321   6.965  2.5537 -0.1753 -0.0723
  120OSM    C4F12685   1.129   5.524   7.044  0.7024  0.3237  0.2167
  120OSM    H4F12686   1.035   5.582   7.039  0.1435 -0.6753 -2.4074
  120OSM    H4G12687   1.210   5.599   7.028  0.3305  0.8918  0.9515
  120OSM    C5F12688   1.153   5.463   7.182 -0.3613  0.0331 -0.5392
  120OSM    H5F12689   1.264   5.463   7.194 -0.4474  1.7551  0.5327
  120OSM    H5G12690   1.116   5.358   7.185  1.9523 -0.8354  1.0982
  120OSM    C6F12691   1.092   5.548   7.297 -0.0012 -0.0514  0.0357
  120OSM    H6F12692   0.982   5.541   7.290 -0.0031 -0.6445  0.6280
  120OSM    H6G12693   1.125   5.654   7.294  0.5156 -0.1894  0.6345
  120OSM    C7F12694   1.122   5.486   7.432 -0.1339  0.1646  0.7542
  120OSM    H7F12695   1.225   5.515   7.462 -0.1031 -0.0315  0.8402
  120OSM    H7G12696   1.136   5.377   7.417  1.0541  0.2794  0.9332
  120OSM    C8F12697   1.025   5.521   7.543 -0.1158  0.3678 -0.2969
  120OSM    H8F12698   1.047   5.457   7.631 -1.2024  3.0486  2.0939
  120OSM    H8G12699   0.917   5.512   7.518  0.1699  2.7672 -2.7959
  120OSM    C9F12700   1.043   5.668   7.571  0.1554  0.4195  0.3942
  120OSM    H9F12701   0.968   5.738   7.532 -0.1147  0.0184  0.1768
  120OSM   C10F12702   1.127   5.714   7.664  0.0815  0.6002 -0.1613
  120OSM   H10F12703   1.140   5.822   7.676 -1.1548  0.7258  0.1720
  120OSM   C11F12704   1.231   5.633   7.736  0.0662  0.3443  0.1447
  120OSM   H11F12705   1.333   5.671   7.715  1.9536 -2.4132  3.2937
  120OSM   H11G12706   1.244   5.534   7.687  0.8109  0.2176  0.5866
  120OSM   C12F12707   1.199   5.595   7.879  0.3950 -0.1897 -0.0851
  120OSM   H12F12708   1.267   5.509   7.897  0.8065 -0.1735 -1.4594
  120OSM   H12G12709   1.106   5.541   7.909  1.6217 -1.7668  1.0178
  120OSM   C13F12710   1.235   5.702   7.975  0.4197 -0.0095 -0.5322
  120OSM   H13F12711   1.160   5.784   7.973 -1.7466 -1.9146 -1.2854
  120OSM   H13G12712   1.327   5.758   7.946  0.1108  0.0566 -1.4162
  120OSM   C14F12713   1.273   5.651   8.120  0.7587  0.5787  0.1827
  120OSM   H14F12714   1.321   5.552   8.106  0.5620  0.6522 -1.1301
  120OSM   H14G12715   1.177   5.629   8.171  0.3472 -0.4354 -0.9677
  120OSM   C15F12716   1.353   5.750   8.204 -0.1023  0.4674  0.4788
  120OSM   H15F12717   1.314   5.854   8.200  0.1211  0.5274 -3.1590
  120OSM   H15G12718   1.455   5.753   8.159 -0.8991 -3.4852 -2.0754
  120OSM   C16F12719   1.358   5.697   8.350  0.6382  0.2101  0.8574
  120OSM   H16F12720   1.377   5.587   8.342 -1.6418 -0.1166 -1.1659
  120OSM   H16G12721   1.259   5.707   8.399 -0.4059  1.0763 -1.3166
  120OSM   C17F12722   1.469   5.753   8.440 -0.3327 -0.0106 -0.6261
  120OSM   H17F12723   1.476   5.686   8.529 -1.6755  3.9624  2.8152
  120OSM   H17G12724   1.443   5.853   8.480 -0.6328 -0.4006  0.1889
  120OSM   C18F12725   1.612   5.769   8.386 -0.1899 -0.8132 -0.3528
  120OSM   H18F12726   1.620   5.856   8.317  1.9011 -0.7688 -0.1100
  120OSM   H18G12727   1.644   5.681   8.326 -1.0436 -1.4048  0.0316
  120OSM   H18H12728   1.680   5.791   8.470 -0.1067 -0.9933 -0.3742
  121OSM      N12729   4.069   6.627   6.248  0.2814 -0.0029  0.3672
  121OSM    C1512730   4.161   6.540   6.326  0.6581 -0.1744 -0.0351
  121OSM   H15A12731   4.224   6.604   6.387  0.2008 -0.3155  0.6002
  121OSM   H15B12732   4.215   6.469   6.265  1.0880  0.0851  0.0368
  121OSM   H15C12733   4.106   6.480   6.397 -1.0131  0.6497 -0.5844
  121OSM    C1412734   3.971   6.532   6.192 -0.2005 -0.8173  0.2972
  121OSM   H14A12735   3.882   6.581   6.156 -0.2234 -0.9180  0.2155
  121OSM   H14B12736   3.934   6.463   6.267 -0.9728 -0.5683  0.1578
  121OSM   H14C12737   4.005   6.458   6.121 -2.3903 -2.2278  0.5993
  121OSM    C1312738   4.009   6.725   6.341  0.1719 -0.0145 -0.7427
  121OSM   H13A12739   3.988   6.677   6.435 -3.3220  1.1115 -0.8088
  121OSM   H13B12740   3.915   6.763   6.304 -0.6341 -1.0903  0.1267
  121OSM   H13C12741   4.074   6.809   6.362  1.2794 -1.5484  2.4906
  121OSM    C1212742   4.149   6.701   6.134  0.3213  0.1247 -0.3004
  121OSM   H12A12743   4.186   6.623   6.069  0.6967 -0.0490  0.1175
  121OSM   H12B12744   4.230   6.756   6.180 -1.1594 -0.0059  2.6755
  121OSM    C1112745   4.077   6.799   6.039  0.1240 -0.5055  0.4580
  121OSM   H11A12746   3.988   6.742   6.006  1.2615 -2.3762  0.5284
  121OSM   H11B12747   4.142   6.810   5.950  0.9000 -1.1690  0.9203
  121OSM      P12748   4.060   7.063   6.059  0.1850 -0.1745  0.2163
  121OSM    O1312749   4.193   7.078   5.992 -0.3126 -0.1944 -0.8804
  121OSM    O1412750   3.936   7.097   5.989 -0.2165  0.1642 -0.0097
  121OSM    O1112751   4.075   7.140   6.201  0.4407  0.9380  0.2903
  121OSM    O1212752   4.049   6.921   6.115  0.3587 -0.2093 -0.3394
  121OSM    C1S12753   3.999   7.091   6.312  0.1535  0.5638  0.0726
  121OSM    H1S12754   4.049   7.002   6.354  0.5765  1.4196  1.4345
  121OSM    H1T12755   3.893   7.065   6.291 -0.0881  0.7459  1.0246
  121OSM     NF12756   3.967   7.138   6.556  0.3628 -0.6573  0.1708
  121OSM    HNF12757   3.875   7.154   6.591 -0.1673 -2.3482 -0.3531
  121OSM    C2S12758   4.012   7.192   6.431  0.3141  0.7566 -0.3507
  121OSM    H2S12759   4.115   7.228   6.450 -0.1884  2.3497 -0.4723
  121OSM    C3S12760   3.934   7.326   6.414  0.1241 -0.1317  0.7043
  121OSM    H3S12761   3.824   7.308   6.412 -0.1768  1.2288  2.1739
  121OSM     O312762   3.961   7.389   6.293 -0.2811  0.3168  0.8735
  121OSM    HO312763   3.973   7.312   6.237  0.6308 -0.6180  2.2754
  121OSM    C4S12764   3.948   7.430   6.519 -0.3677  0.0252 -0.2253
  121OSM    H4S12765   4.045   7.481   6.528 -0.6139  0.2476  1.5750
  121OSM    C5S12766   3.845   7.476   6.597 -0.4139  0.8271 -0.5723
  121OSM    H5S12767   3.744   7.434   6.584  0.0800  0.0518 -2.1181
  121OSM    C6S12768   3.854   7.584   6.708  0.2170  0.6739  0.0782
  121OSM    H6S12769   3.786   7.565   6.793  1.0964 -0.2840  0.5852
  121OSM    H6T12770   3.803   7.675   6.670  1.3951  1.6184  0.6950
  121OSM    C7S12771   3.997   7.616   6.763  0.1935  0.4512 -0.4409
  121OSM    H7S12772   4.077   7.632   6.688  1.7672 -0.4093  0.9937
  121OSM    H7T12773   4.013   7.527   6.827 -1.1546  1.6753  1.7314
  121OSM    C8S12774   3.997   7.743   6.844 -0.0219 -0.4279 -0.7692
  121OSM    H8S12775   3.968   7.829   6.781  2.8363  0.0304 -1.5784
  121OSM    H8T12776   4.100   7.762   6.883 -0.2937 -1.4018  0.5167
  121OSM    C9S12777   3.896   7.746   6.964  0.3976  0.2186 -0.9435
  121OSM    H9S12778   3.796   7.740   6.916 -1.1031  1.8671  1.6980
  121OSM    H9T12779   3.899   7.846   7.013 -0.3992  0.1680 -0.7790
  121OSM   C10S12780   3.926   7.641   7.079 -0.0430 -0.7096  0.1335
  121OSM   H10S12781   3.940   7.545   7.024 -2.8128 -0.3201 -1.4356
  121OSM   H10T12782   3.838   7.632   7.146 -0.9471 -0.7444 -1.0354
  121OSM   C11S12783   4.042   7.681   7.163 -0.3199  0.7781 -0.6398
  121OSM   H11S12784   4.021   7.784   7.199  0.0501 -0.5046  3.8372
  121OSM   H11T12785   4.140   7.691   7.111  0.1979 -2.0570 -0.3871
  121OSM   C12S12786   4.076   7.590   7.283 -0.3550  0.4122 -0.2867
  121OSM   H12S12787   4.168   7.637   7.325  1.1660 -0.4801 -2.4231
  121OSM   H12T12788   4.107   7.485   7.267  0.2778  0.1017  2.4834
  121OSM   C13S12789   3.963   7.583   7.386 -0.2051  0.2073  0.0205
  121OSM   H13S12790   3.875   7.527   7.349 -0.9246 -1.2457  3.5646
  121OSM   H13T12791   3.936   7.688   7.411  0.1888  0.0236  1.2944
  121OSM   C14S12792   4.012   7.523   7.516  0.0858  0.8592 -0.3639
  121OSM   H14S12793   4.097   7.589   7.545  1.8772 -0.4254 -2.3862
  121OSM   H14T12794   4.054   7.420   7.513  0.1934  0.7529  2.5071
  121OSM   C15S12795   3.897   7.524   7.619 -0.0923 -0.4889 -0.9959
  121OSM   H15S12796   3.798   7.513   7.569 -1.1461 -1.3514  1.1551
  121OSM   H15T12797   3.889   7.612   7.686 -0.4101 -1.0542 -0.2753
  121OSM   C16S12798   3.901   7.407   7.717  0.0873  0.0695  0.8625
  121OSM   H16S12799   3.999   7.387   7.765  0.7214  2.7691  0.9056
  121OSM   H16T12800   3.873   7.317   7.659 -0.8124  0.8580  0.0228
  121OSM   C17S12801   3.796   7.431   7.825  0.1621  0.1925 -0.2442
  121OSM   H17S12802   3.698   7.457   7.780 -0.2165 -0.9520 -0.1051
  121OSM   H17T12803   3.824   7.516   7.891  1.6888 -1.6849  1.6760
  121OSM   C18S12804   3.782   7.310   7.916 -0.2758 -0.5423  0.6209
  121OSM   H18S12805   3.737   7.225   7.862 -1.4944  0.1371  0.5125
  121OSM   H18T12806   3.711   7.329   8.000 -1.2582 -2.0518  0.1726
  121OSM   H18U12807   3.881   7.280   7.955  0.4314  1.0877  0.1576
  121OSM    C1F12808   4.044   7.054   6.622  0.7972 -0.2141  0.0266
  121OSM     OF12809   4.157   7.034   6.592 -1.0338  0.0068 -0.3922
  121OSM    C2F12810   3.983   6.969   6.731  0.0410  0.3494  0.0872
  121OSM    H2F12811   3.918   6.891   6.684 -1.0669  0.5347  1.2701
  121OSM    H2G12812   3.919   7.035   6.794  1.4614  1.9066 -0.0501
  121OSM    C3F12813   4.096   6.905   6.821 -0.6181  0.2543 -0.0167
  121OSM    H3F12814   4.167   6.984   6.854 -0.1631 -0.5295  0.9500
  121OSM    H3G12815   4.144   6.823   6.763 -1.8683 -0.0655 -0.6186
  121OSM    C4F12816   4.036   6.846   6.953 -0.1208 -0.0475  0.0517
  121OSM    H4F12817   3.973   6.919   7.007 -0.9807 -0.2061 -0.7213
  121OSM    H4G12818   4.128   6.831   7.013 -1.1438 -1.4491  1.3487
  121OSM    C5F12819   3.970   6.710   6.933  0.1354  0.2000 -0.0785
  121OSM    H5F12820   4.023   6.628   6.879  0.4709  0.3045  0.0912
  121OSM    H5G12821   3.877   6.731   6.876 -1.0124  0.2588  1.7279
  121OSM    C6F12822   3.919   6.671   7.071  0.2755  0.1718 -0.1606
  121OSM    H6F12823   3.857   6.757   7.106  0.4307 -0.3256  1.4063
  121OSM    H6G12824   3.999   6.662   7.147 -0.3885 -3.0574  0.2855
  121OSM    C7F12825   3.851   6.530   7.067 -0.3184 -0.0227 -0.5153
  121OSM    H7F12826   3.911   6.448   7.021 -1.1310  0.5894 -2.7677
  121OSM    H7G12827   3.762   6.539   7.001 -0.5286 -2.6355 -0.6981
  121OSM    C8F12828   3.799   6.486   7.208  0.7455 -0.7151  0.2878
  121OSM    H8F12829   3.714   6.416   7.200 -0.1806  0.3669  0.4013
  121OSM    H8G12830   3.758   6.577   7.258  2.6502  1.0932 -1.2402
  121OSM    C9F12831   3.902   6.412   7.277  0.0853  0.1601  0.5520
  121OSM    H9F12832   3.933   6.312   7.242  2.2229  0.9022  0.1676
  121OSM   C10F12833   3.963   6.453   7.390 -0.5125  0.9867 -0.5132
  121OSM   H10F12834   4.047   6.393   7.426 -1.6834 -0.2913  0.1755
  121OSM   C11F12835   3.951   6.576   7.466 -0.3100 -0.5651 -0.3750
  121OSM   H11F12836   3.934   6.659   7.394 -0.5709 -2.7141 -2.9334
  121OSM   H11G12837   4.039   6.607   7.526 -1.0757 -1.0978  1.0749
  121OSM   C12F12838   3.837   6.584   7.565  0.6082  0.1619 -0.5471
  121OSM   H12F12839   3.751   6.522   7.532 -0.6111 -0.3711  3.1522
  121OSM   H12G12840   3.803   6.688   7.583 -2.1145 -0.6069 -0.7507
  121OSM   C13F12841   3.867   6.513   7.700  0.3015  0.2518 -0.6827
  121OSM   H13F12842   3.946   6.566   7.758  1.8932 -3.2829  0.6518
  121OSM   H13G12843   3.913   6.414   7.680 -2.3289 -1.0055 -0.9276
  121OSM   C14F12844   3.737   6.489   7.788 -0.6067 -0.5390  0.1893
  121OSM   H14F12845   3.772   6.417   7.865  0.3796 -0.4752 -0.1964
  121OSM   H14G12846   3.660   6.433   7.730  0.0571 -0.3594 -0.9008
  121OSM   C15F12847   3.681   6.614   7.853 -0.8792 -0.1038 -0.2175
  121OSM   H15F12848   3.604   6.583   7.927  0.7761 -1.7908  0.8610
  121OSM   H15G12849   3.625   6.680   7.783  0.3505  0.6512 -0.5081
  121OSM   C16F12850   3.783   6.705   7.929 -0.0271  0.0526  0.5676
  121OSM   H16F12851   3.830   6.773   7.855 -2.7896 -0.7085 -2.1303
  121OSM   H16G12852   3.863   6.638   7.967 -0.4498 -1.0532 -0.4139
  121OSM   C17F12853   3.715   6.791   8.034  0.2569 -0.5759 -0.6743
  121OSM   H17F12854   3.796   6.848   8.084 -0.7786 -1.5116  2.2993
  121OSM   H17G12855   3.663   6.728   8.110 -0.4918  0.9019  0.0674
  121OSM   C18F12856   3.608   6.892   7.977 -0.2222 -0.1393  0.4871
  121OSM   H18F12857   3.632   6.909   7.870  0.4490  1.2959  0.8335
  121OSM   H18G12858   3.593   6.984   8.038 -2.4109 -0.8936  1.1933
  121OSM   H18H12859   3.503   6.856   7.973 -1.0190  2.0554 -0.0529
  122OSM      N12860   2.596   3.248   6.285  0.2821 -0.1919 -0.2522
  122OSM    C1512861   2.613   3.196   6.148 -0.4359 -0.2195  0.4108
  122OSM   H15A12862   2.521   3.179   6.094 -0.9058 -0.5118  1.2872
  122OSM   H15B12863   2.676   3.108   6.151  1.3647  1.0067  0.4548
  122OSM   H15C12864   2.667   3.261   6.081  0.0820  0.8564  1.8151
  122OSM    C1412865   2.721   3.293   6.342  0.4006  0.1395 -0.1907
  122OSM   H14A12866   2.711   3.346   6.435  1.2076  2.3625 -1.2743
  122OSM   H14B12867   2.759   3.361   6.267  0.0086 -0.9546 -1.4195
  122OSM   H14C12868   2.783   3.205   6.347  0.7253  0.2046 -2.1834
  122OSM    C1312869   2.507   3.365   6.265  0.3847  0.1873  0.5233
  122OSM   H13A12870   2.472   3.395   6.362 -2.1718  2.0880 -0.8564
  122OSM   H13B12871   2.421   3.348   6.201 -1.3052  2.4690  2.0389
  122OSM   H13C12872   2.561   3.450   6.225  0.0529  0.0908 -0.1494
  122OSM    C1212873   2.532   3.148   6.373  0.3994 -0.2068  0.0012
  122OSM   H12A12874   2.436   3.121   6.331 -0.0351  0.7334  0.3416
  122OSM   H12B12875   2.508   3.202   6.464 -1.1271 -0.8035 -0.0190
  122OSM    C1112876   2.602   3.018   6.400 -0.3677 -0.5372  0.2814
  122OSM   H11A12877   2.584   2.971   6.499 -0.3796 -1.8490 -0.3138
  122OSM   H11B12878   2.712   3.037   6.403 -0.3108 -0.3336 -1.5536
  122OSM      P12879   2.464   2.833   6.256 -0.3103 -0.1214 -0.2555
  122OSM    O1312880   2.382   2.910   6.163 -0.2669 -0.2620 -0.0150
  122OSM    O1412881   2.522   2.712   6.196 -0.3518 -0.0217 -0.4294
  122OSM    O1112882   2.388   2.800   6.389  0.1442 -0.0695  0.3212
  122OSM    O1212883   2.584   2.928   6.298 -0.6839  0.4708 -0.2993
  122OSM    C1S12884   2.442   2.692   6.465  0.3412  0.8161 -0.1489
  122OSM    H1S12885   2.551   2.680   6.452  0.7340  4.1426 -0.8082
  122OSM    H1T12886   2.396   2.596   6.433 -0.4434  0.6046  1.4651
  122OSM     NF12887   2.444   2.584   6.693 -0.5639  0.0374 -0.2770
  122OSM    HNF12888   2.382   2.521   6.739  0.7877 -1.0012  0.1998
  122OSM    C2S12889   2.413   2.703   6.616 -0.5488  0.4863 -0.2388
  122OSM    H2S12890   2.469   2.793   6.650 -0.1057 -1.1090  3.7797
  122OSM    C3S12891   2.264   2.731   6.653  0.5079 -0.3310  0.5596
  122OSM    H3S12892   2.206   2.639   6.633  0.1815  0.3039 -1.6720
  122OSM     O312893   2.199   2.827   6.575 -0.3231  0.4397 -0.4390
  122OSM    HO312894   2.256   2.853   6.503  1.4589  4.2171  1.9926
  122OSM    C4S12895   2.259   2.776   6.796 -0.0757 -0.0804 -0.4519
  122OSM    H4S12896   2.307   2.871   6.824 -1.7760  0.4689  0.7689
  122OSM    C5S12897   2.191   2.716   6.891  0.1275 -0.3244  1.1846
  122OSM    H5S12898   2.144   2.618   6.874 -0.0405  0.0388 -0.7027
  122OSM    C6S12899   2.184   2.753   7.034 -0.4106  0.7473 -0.1214
  122OSM    H6S12900   2.080   2.776   7.066 -0.8767 -0.5826 -0.6099
  122OSM    H6T12901   2.238   2.848   7.055 -0.7296  1.0287 -0.5530
  122OSM    C7S12902   2.247   2.648   7.126  0.5228 -0.8306 -0.5024
  122OSM    H7S12903   2.351   2.626   7.093  1.2216  0.9760  0.3435
  122OSM    H7T12904   2.190   2.554   7.109  1.1047 -1.1825 -0.5527
  122OSM    C8S12905   2.252   2.679   7.269  0.9524 -0.3467  0.0939
  122OSM    H8S12906   2.150   2.675   7.313 -0.3593 -0.8482 -2.7639
  122OSM    H8T12907   2.293   2.781   7.285  0.3910 -0.2257  0.8373
  122OSM    C9S12908   2.338   2.587   7.352 -0.5446 -0.3265 -0.0922
  122OSM    H9S12909   2.442   2.616   7.326 -1.2326  1.8410 -0.5673
  122OSM    H9T12910   2.330   2.478   7.328 -0.1569 -0.3137 -0.2939
  122OSM   C10S12911   2.327   2.611   7.505 -0.1146 -0.2316  0.6365
  122OSM   H10S12912   2.220   2.589   7.527 -0.1534  1.0385  1.8629
  122OSM   H10T12913   2.342   2.718   7.534  0.3712 -0.1098 -0.0391
  122OSM   C11S12914   2.429   2.521   7.576 -0.2830 -0.3398  0.0108
  122OSM   H11S12915   2.526   2.575   7.574 -0.6826  0.3663 -0.5253
  122OSM   H11T12916   2.433   2.429   7.513  1.2677 -1.7975  2.1108
  122OSM   C12S12917   2.382   2.492   7.715  0.4485 -0.0579 -0.5996
  122OSM   H12S12918   2.305   2.412   7.709 -0.7911  1.1812 -3.2550
  122OSM   H12T12919   2.340   2.589   7.751  0.8389 -0.2840  0.4741
  122OSM   C13S12920   2.496   2.451   7.809 -0.1576 -0.3917 -0.1979
  122OSM   H13S12921   2.572   2.532   7.801 -0.1666 -0.5968 -3.8909
  122OSM   H13T12922   2.533   2.359   7.759 -2.1550 -0.3895 -1.7803
  122OSM   C14S12923   2.435   2.425   7.947 -0.0489 -0.4287  0.3797
  122OSM   H14S12924   2.361   2.344   7.929  1.2874 -1.6134 -0.0710
  122OSM   H14T12925   2.381   2.517   7.976  1.1515 -0.7821  4.3748
  122OSM   C15S12926   2.528   2.378   8.058 -0.7869  0.4019  0.6033
  122OSM   H15S12927   2.622   2.437   8.051 -2.4617  3.1434 -0.7014
  122OSM   H15T12928   2.555   2.272   8.043  0.2873  0.8637 -0.9031
  122OSM   C16S12929   2.475   2.408   8.202 -0.1828 -0.2123  0.3337
  122OSM   H16S12930   2.412   2.327   8.244  0.3038 -1.4399 -1.2272
  122OSM   H16T12931   2.414   2.501   8.198  1.9386  1.2244 -1.5668
  122OSM   C17S12932   2.596   2.431   8.293 -0.7878 -0.0924  0.0755
  122OSM   H17S12933   2.652   2.518   8.252 -1.3826 -0.1259 -0.8550
  122OSM   H17T12934   2.660   2.342   8.274 -0.5763 -0.0852  0.7336
  122OSM   C18S12935   2.570   2.441   8.444  0.0765  0.0655 -0.8927
  122OSM   H18S12936   2.662   2.456   8.504 -0.7878  0.3454  0.3997
  122OSM   H18T12937   2.510   2.360   8.491 -1.0668  0.3053 -1.8518
  122OSM   H18U12938   2.507   2.530   8.465 -0.3414 -0.4567  0.1433
  122OSM    C1F12939   2.573   2.549   6.691 -0.4686  0.3847 -0.6332
  122OSM     OF12940   2.670   2.618   6.656  0.4889 -0.1102 -0.0445
  122OSM    C2F12941   2.602   2.419   6.752  0.1916  0.4154 -0.3935
  122OSM    H2F12942   2.570   2.342   6.679  1.5122 -0.1748 -0.3749
  122OSM    H2G12943   2.544   2.418   6.847  1.6446  0.8542  0.5395
  122OSM    C3F12944   2.750   2.395   6.806  0.4902  1.5941 -0.1007
  122OSM    H3F12945   2.823   2.421   6.726 -1.3009 -0.2925 -2.5395
  122OSM    H3G12946   2.756   2.284   6.816  0.4328  1.0200 -4.3289
  122OSM    C4F12947   2.767   2.459   6.947 -0.2143 -0.2939  0.1198
  122OSM    H4F12948   2.731   2.563   6.960  0.3984  0.3336 -2.5369
  122OSM    H4G12949   2.876   2.468   6.968 -0.5048  0.7069  1.2692
  122OSM    C5F12950   2.705   2.364   7.052 -0.2768  0.0890  0.4779
  122OSM    H5F12951   2.730   2.259   7.025 -1.6519 -0.0028 -0.5880
  122OSM    H5G12952   2.594   2.363   7.039 -0.0620 -2.0954 -2.1071
  122OSM    C6F12953   2.749   2.387   7.190  0.2901 -0.0646 -0.4766
  122OSM    H6F12954   2.747   2.497   7.206 -1.1773 -0.1849  0.3159
  122OSM    H6G12955   2.851   2.343   7.184 -0.6868 -2.5847  0.1589
  122OSM    C7F12956   2.664   2.309   7.292  0.5719 -0.3982  0.3906
  122OSM    H7F12957   2.677   2.198   7.287  0.9241 -0.5382  3.0066
  122OSM    H7G12958   2.558   2.332   7.266  0.7963 -0.9241 -1.0955
  122OSM    C8F12959   2.696   2.350   7.442  0.8106  0.1469  0.1230
  122OSM    H8F12960   2.613   2.308   7.502 -1.8093  1.1483 -2.5365
  122OSM    H8G12961   2.701   2.461   7.445  0.4620  0.2513 -1.6732
  122OSM    C9F12962   2.830   2.291   7.482  0.8304  0.0248  0.4161
  122OSM    H9F12963   2.875   2.219   7.413  0.9590  0.6073 -0.1149
  122OSM   C10F12964   2.888   2.293   7.599  1.0299  0.5304  0.2592
  122OSM   H10F12965   2.985   2.243   7.614  0.9452  0.2050 -0.2312
  122OSM   C11F12966   2.834   2.357   7.722 -0.0019  0.6721 -0.8812
  122OSM   H11F12967   2.737   2.409   7.708 -0.0105  1.3202  1.2211
  122OSM   H11G12968   2.908   2.430   7.764  0.1766  1.1341 -1.9671
  122OSM   C12F12969   2.815   2.253   7.837 -0.5842 -0.0521 -0.7675
  122OSM   H12F12970   2.779   2.155   7.798  1.0292 -1.3221  0.7276
  122OSM   H12G12971   2.744   2.297   7.910  2.0114 -0.8120  2.4834
  122OSM   C13F12972   2.947   2.229   7.913 -0.3766  0.1418 -0.4174
  122OSM   H13F12973   2.999   2.327   7.911 -1.9935  1.1437  1.8613
  122OSM   H13G12974   3.000   2.145   7.863 -0.5018 -0.7583  0.9001
  122OSM   C14F12975   2.922   2.191   8.058 -0.3751 -0.0644 -0.5297
  122OSM   H14F12976   2.882   2.088   8.059 -1.9685  0.5347  0.5651
  122OSM   H14G12977   2.843   2.260   8.095 -0.1192 -0.5252  0.9188
  122OSM   C15F12978   3.046   2.203   8.139 -0.6007 -0.0617 -0.9117
  122OSM   H15F12979   3.092   2.301   8.114 -1.3909  1.1108  1.8039
  122OSM   H15G12980   3.112   2.117   8.117  0.9542  0.6976  0.5132
  122OSM   C16F12981   3.027   2.203   8.296  0.7674 -0.3660  0.1196
  122OSM   H16F12982   2.979   2.104   8.312  2.5788 -1.4921 -1.0508
  122OSM   H16G12983   2.969   2.295   8.319  1.2056 -0.3688  1.3033
  122OSM   C17F12984   3.159   2.201   8.379 -0.8816 -0.1717  0.4237
  122OSM   H17F12985   3.220   2.109   8.363  0.1315  0.3074  1.4804
  122OSM   H17G12986   3.131   2.191   8.486  0.7213  0.3544  0.9128
  122OSM   C18F12987   3.254   2.319   8.347 -0.2345 -1.0138  0.2390
  122OSM   H18F12988   3.209   2.416   8.378 -1.9025 -0.5898 -3.0305
  122OSM   H18G12989   3.268   2.325   8.236  0.7711  0.9849  0.4308
  122OSM   H18H12990   3.353   2.297   8.391 -0.4927 -1.5843  0.5479
  123OSM      N12991   5.965   5.251   6.484 -0.0396 -1.2834 -0.6468
  123OSM    C1512992   6.111   5.207   6.505  0.6541 -0.0043  0.1823
  123OSM   H15A12993   6.155   5.242   6.597 -3.5727  0.6659  2.1618
  123OSM   H15B12994   6.168   5.232   6.417 -1.1489 -3.4865 -2.2041
  123OSM   H15C12995   6.109   5.099   6.511 -0.1554 -0.0544 -0.7617
  123OSM    C1412996   5.967   5.402   6.487  0.1936  0.0237  0.5867
  123OSM   H14A12997   6.015   5.441   6.399  0.0415 -0.5958  0.2182
  123OSM   H14B12998   6.016   5.448   6.571  0.9457  2.0260 -0.8693
  123OSM   H14C12999   5.864   5.435   6.484 -0.2999 -1.4798 -1.8546
  123OSM    C1313000   5.917   5.213   6.348 -0.2028 -0.1761 -0.5630
  123OSM   H13A13001   5.811   5.228   6.333  0.1797  1.0967 -2.3724
  123OSM   H13B13002   5.922   5.107   6.330 -0.7983 -0.4180  0.6088
  123OSM   H13C13003   5.966   5.277   6.275  1.5243 -1.2979 -0.4574
  123OSM    C1213004   5.876   5.197   6.599  0.4914  0.0753  0.4924
  123OSM   H12A13005   5.770   5.205   6.579  0.6791  0.0805 -0.5358
  123OSM   H12B13006   5.903   5.251   6.689  1.1683 -1.1430  1.0475
  123OSM    C1113007   5.892   5.045   6.642  0.4285  0.4426 -0.0251
  123OSM   H11A13008   5.817   5.033   6.722 -0.5079  0.1907 -0.9107
  123OSM   H11B13009   5.992   5.027   6.686 -0.1697 -0.6608  0.9180
  123OSM      P13010   5.965   4.846   6.482 -0.1397  0.0129 -0.4753
  123OSM    O1313011   5.889   4.724   6.441  0.0473  0.0486  0.1849
  123OSM    O1413012   6.054   4.910   6.380 -0.2509 -0.5124 -0.5739
  123OSM    O1113013   6.055   4.810   6.613  0.5794 -0.6977 -0.1330
  123OSM    O1213014   5.864   4.954   6.529 -0.8516 -0.1880 -0.2530
  123OSM    C1S13015   6.021   4.721   6.713  0.1141 -0.2844  0.0636
  123OSM    H1S13016   6.017   4.619   6.669  1.4398 -0.1108 -0.5067
  123OSM    H1T13017   5.920   4.746   6.753 -0.5407 -0.0125 -1.6993
  123OSM     NF13018   6.098   4.615   6.909 -0.6350 -0.0490 -0.6424
  123OSM    HNF13019   6.071   4.642   7.001 -3.2483 -2.8328 -0.4195
  123OSM    C2S13020   6.135   4.721   6.822  0.2917 -0.8713 -0.0241
  123OSM    H2S13021   6.229   4.690   6.773  0.0609 -2.9660  0.7534
  123OSM    C3S13022   6.151   4.859   6.896 -0.0338  0.2718  0.2630
  123OSM    H3S13023   6.055   4.886   6.945 -0.9864  1.4422 -2.1001
  123OSM     O313024   6.179   4.966   6.804  0.0053 -0.6134 -0.3947
  123OSM    HO313025   6.165   4.918   6.722 -3.1543 -0.1023 -0.2873
  123OSM    C4S13026   6.258   4.855   6.997  0.4059 -0.5119  0.3494
  123OSM    H4S13027   6.208   4.845   7.094 -2.2938  0.8840 -0.7955
  123OSM    C5S13028   6.394   4.880   6.985  0.0024  0.1641 -0.5176
  123OSM    H5S13029   6.449   4.901   6.892  2.4238 -2.1079  0.2789
  123OSM    C6S13030   6.503   4.872   7.100  0.0794  0.8751 -0.2841
  123OSM    H6S13031   6.546   4.972   7.118  1.0296  0.4502 -0.1632
  123OSM    H6T13032   6.582   4.803   7.065  1.4955  2.1013  0.4054
  123OSM    C7S13033   6.440   4.815   7.229  0.7469  0.0353  0.7606
  123OSM    H7S13034   6.415   4.711   7.200 -0.4479  0.7640 -0.9910
  123OSM    H7T13035   6.353   4.874   7.264  0.0309  0.6633 -1.8788
  123OSM    C8S13036   6.539   4.806   7.343  0.2327  0.1898 -0.8497
  123OSM    H8S13037   6.594   4.897   7.377 -0.0318 -0.1792  0.6077
  123OSM    H8T13038   6.617   4.728   7.329  0.5521  0.1677  0.9082
  123OSM    C9S13039   6.460   4.771   7.474  0.5303  0.0190  0.0748
  123OSM    H9S13040   6.432   4.664   7.467  2.8292 -0.5848 -0.8068
  123OSM    H9T13041   6.373   4.839   7.490  0.8958  0.1329  1.6868
  123OSM   C10S13042   6.541   4.789   7.603 -0.8566 -0.7435 -0.0181
  123OSM   H10S13043   6.577   4.894   7.607 -1.0648 -0.6890  0.6367
  123OSM   H10T13044   6.629   4.725   7.580  0.2369  1.8398 -3.9136
  123OSM   C11S13045   6.472   4.744   7.738 -0.6472 -0.2082 -0.0448
  123OSM   H11S13046   6.476   4.633   7.729 -1.2156 -0.1421 -1.3386
  123OSM   H11T13047   6.364   4.769   7.738 -0.5059  0.4871 -1.4178
  123OSM   C12S13048   6.567   4.787   7.852 -0.5595 -0.0516 -0.1390
  123OSM   H12S13049   6.588   4.896   7.853 -1.8080  0.2089 -0.6647
  123OSM   H12T13050   6.667   4.745   7.832  0.3456  1.0144  1.8534
  123OSM   C13S13051   6.520   4.740   7.992  0.2857 -0.5641  0.1922
  123OSM   H13S13052   6.504   4.630   7.996  0.4802 -0.5621  1.5303
  123OSM   H13T13053   6.424   4.784   8.026  0.1470  0.8438 -1.8422
  123OSM   C14S13054   6.626   4.783   8.099  0.7464 -0.3552  0.0234
  123OSM   H14S13055   6.640   4.890   8.073 -0.9146  0.1327  0.9643
  123OSM   H14T13056   6.725   4.733   8.090  0.4206 -0.8154 -1.1842
  123OSM   C15S13057   6.567   4.745   8.241  1.1069  0.3032  0.0722
  123OSM   H15S13058   6.555   4.635   8.256 -0.9156  0.6001  0.9143
  123OSM   H15T13059   6.463   4.783   8.243 -0.5903 -3.6922 -1.5562
  123OSM   C16S13060   6.648   4.794   8.363 -0.1815 -0.6201 -0.4692
  123OSM   H16S13061   6.749   4.747   8.362 -0.0616 -0.3887  0.4573
  123OSM   H16T13062   6.606   4.752   8.457  0.4683  2.5019  1.3573
  123OSM   C17S13063   6.672   4.946   8.382 -0.7492 -0.2777  0.6812
  123OSM   H17S13064   6.576   4.988   8.417 -0.5663 -0.1960  1.0935
  123OSM   H17T13065   6.705   4.987   8.284 -2.6502  2.4512  1.0811
  123OSM   C18S13066   6.778   4.988   8.487 -0.4229  0.0824 -0.1502
  123OSM   H18S13067   6.823   5.088   8.468  1.5713 -0.7819 -0.2210
  123OSM   H18T13068   6.863   4.917   8.482  0.4786  1.1100  0.1711
  123OSM   H18U13069   6.728   4.980   8.586  0.8489 -0.5358  0.4629
  123OSM    C1F13070   6.109   4.484   6.883  0.0505 -1.0399  0.0693
  123OSM     OF13071   6.171   4.455   6.781  0.0894  0.3675  0.7606
  123OSM    C2F13072   6.038   4.384   6.970 -0.0558 -0.6696 -0.3832
  123OSM    H2F13073   5.936   4.423   6.989  1.4039  3.6669 -0.4210
  123OSM    H2G13074   6.084   4.396   7.070 -2.1897  1.5782  0.4061
  123OSM    C3F13075   6.042   4.239   6.912 -0.4587  0.0977  0.2928
  123OSM    H3F13076   6.143   4.193   6.921 -0.4539 -0.0085 -0.3150
  123OSM    H3G13077   6.005   4.230   6.808  0.2685 -0.3731  0.0659
  123OSM    C4F13078   5.949   4.142   6.973  0.1827  0.4553 -0.4271
  123OSM    H4F13079   5.964   4.044   6.922  2.4272  0.2822  0.4312
  123OSM    H4G13080   5.846   4.170   6.943 -0.2378  1.6461  1.8996
  123OSM    C5F13081   5.964   4.128   7.127  0.0855 -0.0423  0.0521
  123OSM    H5F13082   5.900   4.206   7.172  0.5916  0.2128  0.3358
  123OSM    H5G13083   6.068   4.144   7.161  0.7468 -2.3563 -0.6748
  123OSM    C6F13084   5.913   3.994   7.178  0.1505  0.7993 -0.1801
  123OSM    H6F13085   5.966   3.910   7.128 -1.8371 -0.7227  0.1256
  123OSM    H6G13086   5.809   3.977   7.142 -0.7772  0.0853  2.5804
  123OSM    C7F13087   5.915   3.989   7.333 -0.2884  0.6823  0.4892
  123OSM    H7F13088   5.853   4.073   7.372 -1.6295 -0.0258 -0.0435
  123OSM    H7G13089   6.014   4.023   7.370  0.7881 -1.2956 -0.4177
  123OSM    C8F13090   5.868   3.853   7.391 -0.0695 -0.1584  0.0796
  123OSM    H8F13091   5.936   3.775   7.351 -0.3528  0.9328 -2.7712
  123OSM    H8G13092   5.762   3.845   7.360  0.1198  1.5455 -1.1200
  123OSM    C9F13093   5.889   3.871   7.537 -0.1965 -0.1923  0.0871
  123OSM    H9F13094   5.979   3.922   7.571 -1.4403  2.2883 -0.1517
  123OSM   C10F13095   5.804   3.828   7.631  0.3565 -0.3503 -0.1570
  123OSM   H10F13096   5.833   3.843   7.735  0.3287 -1.4577  0.0227
  123OSM   C11F13097   5.677   3.749   7.610 -0.6349  0.6719  0.0569
  123OSM   H11F13098   5.670   3.682   7.698  1.1306  0.5743  0.1517
  123OSM   H11G13099   5.675   3.690   7.516  1.3302 -1.7225  1.3930
  123OSM   C12F13100   5.547   3.819   7.607  0.2608 -0.1165 -0.7169
  123OSM   H12F13101   5.538   3.891   7.523 -0.2915  1.4460  0.6151
  123OSM   H12G13102   5.540   3.883   7.698 -1.0266  0.1985 -1.0172
  123OSM   C13F13103   5.413   3.733   7.590  0.3254 -0.1516 -0.5214
  123OSM   H13F13104   5.422   3.646   7.659 -3.0964 -0.4696 -0.2912
  123OSM   H13G13105   5.416   3.694   7.486  2.3917 -0.0382 -0.5413
  123OSM   C14F13106   5.290   3.810   7.635  0.5446  0.5166 -0.0929
  123OSM   H14F13107   5.280   3.888   7.557 -0.7479  1.3130  0.8412
  123OSM   H14G13108   5.294   3.849   7.739  0.8899 -2.0758  0.9531
  123OSM   C15F13109   5.163   3.724   7.628  0.1339  0.7185 -0.5800
  123OSM   H15F13110   5.078   3.783   7.668 -0.5889 -1.3783  1.1833
  123OSM   H15G13111   5.187   3.632   7.686 -0.4052  1.3664  0.6863
  123OSM   C16F13112   5.124   3.681   7.485  0.4024  0.4234  0.1067
  123OSM   H16F13113   5.198   3.614   7.436  0.5865  1.3619 -0.9308
  123OSM   H16G13114   5.110   3.777   7.431 -0.7318 -0.7475 -1.7969
  123OSM   C17F13115   4.990   3.601   7.472 -0.0534 -0.0555 -0.0514
  123OSM   H17F13116   4.898   3.645   7.516 -0.0159  0.0766 -0.1060
  123OSM   H17G13117   5.010   3.503   7.520  2.5111  0.6719  0.5070
  123OSM   C18F13118   4.954   3.565   7.325 -0.5186  0.3718  0.1760
  123OSM   H18F13119   4.864   3.500   7.320 -1.8524  2.2624 -2.8194
  123OSM   H18G13120   5.034   3.511   7.270 -1.4958  0.4988 -1.4000
  123OSM   H18H13121   4.932   3.659   7.270  0.1278 -1.6281 -3.7972
  124OSM      N13122   0.832   0.967   6.196 -0.9660 -0.1815  0.2860
  124OSM    C1513123   0.807   1.042   6.073  0.1896 -0.5739  0.1619
  124OSM   H15A13124   0.703   1.032   6.045  0.2568 -0.2841 -0.2060
  124OSM   H15B13125   0.868   0.999   5.994 -1.1086 -1.1285 -0.5639
  124OSM   H15C13126   0.823   1.149   6.086 -0.3118 -0.4772 -0.0220
  124OSM    C1413127   0.738   1.019   6.304 -0.4286 -0.3206  0.8798
  124OSM   H14A13128   0.760   1.124   6.318 -0.5070  0.1494 -2.0493
  124OSM   H14B13129   0.737   0.958   6.393 -4.6594 -0.6808  0.7517
  124OSM   H14C13130   0.640   1.014   6.261 -0.2591  0.6606  0.3626
  124OSM    C1313131   0.806   0.828   6.168 -0.5614 -0.5337 -0.5661
  124OSM   H13A13132   0.872   0.789   6.092 -1.3163 -1.2417 -0.8699
  124OSM   H13B13133   0.704   0.821   6.136 -1.0511  0.6668  0.6289
  124OSM   H13C13134   0.820   0.767   6.256  0.4755  2.4926  1.5313
  124OSM    C1213135   0.977   0.987   6.241 -0.6791  0.5681  0.1801
  124OSM   H12A13136   1.039   0.971   6.154 -0.6739  1.9659 -0.1050
  124OSM   H12B13137   1.010   0.902   6.299  1.2358  0.2210 -1.3095
  124OSM    C1113138   1.026   1.114   6.312  0.1609  0.3459 -0.1479
  124OSM   H11A13139   1.137   1.108   6.320  0.3068 -1.3491 -2.5356
  124OSM   H11B13140   0.983   1.132   6.413  0.6883 -1.6086  0.4587
  124OSM      P13141   1.088   1.295   6.138 -0.0064  0.2141 -0.2735
  124OSM    O1313142   1.156   1.182   6.061 -0.6193 -0.7744  0.4043
  124OSM    O1413143   1.024   1.408   6.068  0.1288 -0.2534  0.1021
  124OSM    O1113144   1.190   1.349   6.243 -0.8307 -0.4870 -0.0836
  124OSM    O1213145   0.984   1.228   6.235 -0.1143 -0.3273 -0.1117
  124OSM    C1S13146   1.153   1.445   6.342  0.3690  0.1558  0.0893
  124OSM    H1S13147   1.048   1.476   6.321  0.6110 -0.8103 -3.0187
  124OSM    H1T13148   1.211   1.539   6.328  0.8550 -0.1232  0.2146
  124OSM     NF13149   1.103   1.512   6.573 -0.2395  0.3499 -0.3624
  124OSM    HNF13150   1.161   1.578   6.621  1.6858 -2.3047  1.2267
  124OSM    C2S13151   1.160   1.403   6.493  0.2113 -0.1178  0.6213
  124OSM    H2S13152   1.087   1.320   6.500 -1.1503  0.9694 -0.1598
  124OSM    C3S13153   1.312   1.366   6.524  0.6653 -0.1595 -0.0932
  124OSM    H3S13154   1.372   1.458   6.509  1.3787  0.1902  3.8542
  124OSM     O313155   1.369   1.270   6.431 -0.4683 -0.4680 -0.6596
  124OSM    HO313156   1.300   1.244   6.369  0.9772 -2.1612 -1.6551
  124OSM    C4S13157   1.319   1.321   6.660  0.4626  0.9082 -0.3848
  124OSM    H4S13158   1.267   1.225   6.669 -1.5737  1.9792  0.0306
  124OSM    C5S13159   1.389   1.370   6.765 -0.0558  0.0022 -0.0660
  124OSM    H5S13160   1.434   1.471   6.764 -0.3986  0.1593 -0.7255
  124OSM    C6S13161   1.407   1.308   6.900  0.7510  0.6623 -0.3004
  124OSM    H6S13162   1.313   1.258   6.933  0.6082  0.6434 -0.7292
  124OSM    H6T13163   1.423   1.393   6.970 -0.0868  0.3702  0.2684
  124OSM    C7S13164   1.538   1.220   6.916 -1.0473  0.2649 -0.1269
  124OSM    H7S13165   1.633   1.270   6.890 -0.3728 -1.1120 -0.3800
  124OSM    H7T13166   1.547   1.135   6.845 -0.6167  1.6475 -1.7894
  124OSM    C8S13167   1.554   1.172   7.061  0.0058  0.3588 -1.0533
  124OSM    H8S13168   1.548   1.261   7.127 -3.2482 -0.9971  0.7401
  124OSM    H8T13169   1.654   1.124   7.070 -0.8007 -1.4222 -1.1492
  124OSM    C9S13170   1.451   1.054   7.092  0.6224 -0.4089 -0.7904
  124OSM    H9S13171   1.438   1.003   6.994 -1.4462  0.7563 -1.1865
  124OSM    H9T13172   1.351   1.091   7.125  0.4627 -1.8833  0.5069
  124OSM   C10S13173   1.493   0.964   7.207 -0.5001  0.0588  0.0844
  124OSM   H10S13174   1.597   0.934   7.180 -0.5484 -0.0874  0.0593
  124OSM   H10T13175   1.427   0.875   7.206 -0.6989  0.1803  1.2559
  124OSM   C11S13176   1.484   1.035   7.336 -0.3433  0.0918  0.2143
  124OSM   H11S13177   1.381   1.075   7.350  0.1043  0.8036  1.5797
  124OSM   H11T13178   1.545   1.128   7.328 -1.2297  0.5743 -2.0086
  124OSM   C12S13179   1.530   0.964   7.463  0.0436 -0.6211  0.0508
  124OSM   H12S13180   1.458   0.887   7.497  1.5473 -1.3354  1.8614
  124OSM   H12T13181   1.529   1.030   7.552 -2.3157  0.1137 -0.4685
  124OSM   C13S13182   1.670   0.903   7.456  0.2935  0.1008 -0.7422
  124OSM   H13S13183   1.742   0.986   7.438 -0.1632  0.6793  0.0222
  124OSM   H13T13184   1.680   0.838   7.367  0.4233  0.0190 -0.6682
  124OSM   C14S13185   1.708   0.829   7.582  0.1054  0.2586 -0.1338
  124OSM   H14S13186   1.795   0.764   7.558 -0.4457 -0.7567  0.5404
  124OSM   H14T13187   1.632   0.752   7.607  0.0385  0.1581 -0.6418
  124OSM   C15S13188   1.722   0.905   7.717 -0.0026  0.0839  0.8500
  124OSM   H15S13189   1.624   0.939   7.756  1.3671  2.5643  2.3898
  124OSM   H15T13190   1.794   0.989   7.712  0.7335 -0.5384  0.6960
  124OSM   C16S13191   1.784   0.812   7.821  0.2919  0.2704  0.0004
  124OSM   H16S13192   1.887   0.795   7.785  0.4298  3.1877 -1.2228
  124OSM   H16T13193   1.741   0.710   7.828  0.2437  0.1675 -1.4465
  124OSM   C17S13194   1.789   0.876   7.959 -0.6590  0.2132 -0.4697
  124OSM   H17S13195   1.691   0.859   8.009 -0.5353  1.8088  0.3496
  124OSM   H17T13196   1.795   0.986   7.949 -0.3962  0.0407 -3.1314
  124OSM   C18S13197   1.895   0.824   8.061  0.2568  0.2828  0.8462
  124OSM   H18S13198   1.879   0.714   8.073 -0.5116  0.2446 -0.3212
  124OSM   H18T13199   1.877   0.881   8.155  1.8868  1.6459  0.3732
  124OSM   H18U13200   2.001   0.836   8.031  1.6234 -0.6518  4.6873
  124OSM    C1F13201   0.977   1.531   6.606 -0.5842 -0.9546 -0.3702
  124OSM     OF13202   0.895   1.455   6.558 -0.1489  0.0364 -0.4096
  124OSM    C2F13203   0.946   1.656   6.681 -0.0608 -0.9108  1.0116
  124OSM    H2F13204   0.991   1.733   6.615 -0.5979 -0.8334  0.7326
  124OSM    H2G13205   1.007   1.652   6.773  2.0889  1.1405 -0.2130
  124OSM    C3F13206   0.791   1.681   6.711 -0.7789  0.0692  1.0014
  124OSM    H3F13207   0.763   1.599   6.780 -0.9399 -0.4377  0.3342
  124OSM    H3G13208   0.741   1.661   6.614  1.6518  1.1234 -0.5731
  124OSM    C4F13209   0.773   1.825   6.760 -0.2687  0.2436 -0.3710
  124OSM    H4F13210   0.669   1.864   6.769 -0.7651 -1.2324  0.5634
  124OSM    H4G13211   0.814   1.890   6.680 -2.3116  0.6172 -1.2035
  124OSM    C5F13212   0.835   1.853   6.895 -1.0420 -0.3512 -0.4084
  124OSM    H5F13213   0.824   1.957   6.933 -1.6458  0.3233 -2.3194
  124OSM    H5G13214   0.942   1.823   6.893 -0.8192  0.3013  0.7695
  124OSM    C6F13215   0.767   1.778   7.009 -0.2231  0.4133  1.0959
  124OSM    H6F13216   0.770   1.667   7.006 -0.9331  0.3291  2.6770
  124OSM    H6G13217   0.660   1.805   7.016 -0.4499 -0.5740  1.6315
  124OSM    C7F13218   0.812   1.820   7.152 -0.1004  0.4402 -0.1946
  124OSM    H7F13219   0.789   1.925   7.181  1.0786  0.5266  0.5057
  124OSM    H7G13220   0.920   1.796   7.156 -0.7814 -3.2030 -0.1120
  124OSM    C8F13221   0.739   1.730   7.254 -0.6263 -0.3379 -0.7434
  124OSM    H8F13222   0.767   1.624   7.235 -3.0234 -1.1418 -0.1692
  124OSM    H8G13223   0.630   1.745   7.242 -1.3254 -2.2719  2.0170
  124OSM    C9F13224   0.760   1.766   7.398 -0.7287 -0.5618  1.3067
  124OSM    H9F13225   0.802   1.685   7.459  0.5705  2.2849  4.4961
  124OSM   C10F13226   0.714   1.882   7.456 -0.6576  0.5896  0.0557
  124OSM   H10F13227   0.727   1.910   7.561  0.7524 -0.1277  0.0988
  124OSM   C11F13228   0.639   1.997   7.399  0.3093 -0.1855  0.3497
  124OSM   H11F13229   0.609   1.968   7.295 -0.2427 -2.1206  1.0048
  124OSM   H11G13230   0.699   2.090   7.391  0.7135 -0.4458  0.3708
  124OSM   C12F13231   0.512   2.029   7.475 -0.4322 -0.0471  0.1737
  124OSM   H12F13232   0.448   1.939   7.470  0.6554 -0.8685  0.7064
  124OSM   H12G13233   0.462   2.107   7.414 -0.8264  1.4530  2.3084
  124OSM   C13F13234   0.522   2.064   7.626 -0.3658 -0.5544 -0.3717
  124OSM   H13F13235   0.562   1.977   7.683  0.8629 -0.0547 -0.4614
  124OSM   H13G13236   0.422   2.093   7.665 -0.8946 -1.2879 -1.1284
  124OSM   C14F13237   0.616   2.185   7.643 -0.6647  0.0164 -0.2975
  124OSM   H14F13238   0.586   2.261   7.568  0.5227  0.4050 -0.4024
  124OSM   H14G13239   0.718   2.146   7.623 -1.3254 -1.4221 -0.9734
  124OSM   C15F13240   0.634   2.240   7.790 -0.6276  0.2174  0.2710
  124OSM   H15F13241   0.713   2.319   7.787 -1.8538  1.4722 -0.0351
  124OSM   H15G13242   0.673   2.155   7.850 -1.0739 -0.9407 -1.0154
  124OSM   C16F13243   0.516   2.300   7.854  1.0645 -0.7634 -1.1097
  124OSM   H16F13244   0.439   2.225   7.882 -2.0874  3.4362  2.9905
  124OSM   H16G13245   0.457   2.366   7.787  2.8893  1.1261 -0.9336
  124OSM   C17F13246   0.552   2.386   7.980  0.1981  0.2689 -0.3346
  124OSM   H17F13247   0.454   2.421   8.020  0.0141  1.0388 -1.4030
  124OSM   H17G13248   0.607   2.480   7.960  0.1348  0.6402  1.1339
  124OSM   C18F13249   0.638   2.306   8.079  0.6734 -0.3912 -0.5059
  124OSM   H18F13250   0.675   2.389   8.143  0.8495  0.5064 -1.7385
  124OSM   H18G13251   0.722   2.257   8.026  1.0679 -0.2013 -0.0676
  124OSM   H18H13252   0.572   2.238   8.139 -2.0176  1.1381 -1.5492
  125OSM      N13253   4.923   6.597   6.115  0.5062 -0.3676 -0.7698
  125OSM    C1513254   5.031   6.559   6.026  0.0464 -0.0858 -0.3736
  125OSM   H15A13255   5.022   6.598   5.926 -3.5764  0.1449 -0.1039
  125OSM   H15B13256   5.021   6.452   6.011  0.0595 -0.0108 -0.9377
  125OSM   H15C13257   5.127   6.578   6.073 -0.2794 -1.0579  0.7319
  125OSM    C1413258   4.920   6.737   6.128 -0.0413 -0.3027 -0.1661
  125OSM   H14A13259   4.844   6.778   6.192  3.8049  3.7988  2.3878
  125OSM   H14B13260   4.911   6.787   6.033  3.0821  1.6282  0.4204
  125OSM   H14C13261   5.008   6.778   6.176  0.8139  1.4222 -2.9581
  125OSM    C1313262   4.802   6.558   6.052 -0.2917 -0.0746  0.5656
  125OSM   H13A13263   4.780   6.454   6.071  1.5737 -0.5874  0.1206
  125OSM   H13B13264   4.796   6.565   5.944  1.0783 -0.8163  0.4232
  125OSM   H13C13265   4.713   6.616   6.072 -0.2751  1.8568 -3.7193
  125OSM    C1213266   4.939   6.520   6.249  0.0703  0.4832  0.7855
  125OSM   H12A13267   4.844   6.530   6.300 -0.0661 -1.5506  0.9945
  125OSM   H12B13268   5.013   6.569   6.310 -1.1592  3.0023  0.4186
  125OSM    C1113269   4.984   6.373   6.238 -0.2644 -0.1405  0.0893
  125OSM   H11A13270   4.996   6.336   6.342 -0.6934  1.2539  0.6681
  125OSM   H11B13271   5.083   6.374   6.189 -0.4473  0.4000 -0.2808
  125OSM      P13272   4.882   6.138   6.175 -0.0933 -0.1550 -0.0037
  125OSM    O1313273   4.748   6.089   6.136 -0.5258 -0.0219 -0.6503
  125OSM    O1413274   4.995   6.085   6.104 -0.1943 -0.3542 -0.3299
  125OSM    O1113275   4.909   6.119   6.331  0.5314  0.1216  0.2493
  125OSM    O1213276   4.893   6.296   6.155 -0.0392 -0.5510 -0.0712
  125OSM    C1S13277   4.797   6.129   6.424 -0.5180  0.2879 -0.1160
  125OSM    H1S13278   4.723   6.062   6.375  0.4690  0.5264 -2.0350
  125OSM    H1T13279   4.747   6.225   6.445  0.6953  0.3722  2.8937
  125OSM     NF13280   4.725   6.079   6.659  0.5445 -0.3340  0.2329
  125OSM    HNF13281   4.726   6.147   6.732  1.9902 -1.6093  1.4510
  125OSM    C2S13282   4.840   6.079   6.564 -0.2109 -0.2856  0.3785
  125OSM    H2S13283   4.880   5.976   6.556 -0.9439 -0.7051  1.7814
  125OSM    C3S13284   4.956   6.171   6.615 -0.4099  0.2114  0.7332
  125OSM    H3S13285   4.929   6.277   6.595  1.1869  0.2723 -1.4910
  125OSM     O313286   5.078   6.159   6.541 -0.0907  0.3036  0.0917
  125OSM    HO313287   5.053   6.127   6.454  1.2647  1.0621 -0.6039
  125OSM    C4S13288   4.989   6.147   6.762  0.1613 -0.7171  0.6381
  125OSM    H4S13289   5.036   6.049   6.774 -0.9063 -1.5090 -1.1068
  125OSM    C5S13290   4.951   6.231   6.863 -0.3509 -0.1449  0.5597
  125OSM    H5S13291   4.900   6.328   6.847 -0.4732 -0.3779 -0.6122
  125OSM    C6S13292   4.981   6.191   7.010 -0.1056  0.2378 -0.8251
  125OSM    H6S13293   5.042   6.267   7.063  0.9737 -0.8012 -0.5290
  125OSM    H6T13294   5.044   6.100   7.008 -1.9181 -1.1061  0.2251
  125OSM    C7S13295   4.860   6.157   7.094 -0.5802  0.4727  0.3281
  125OSM    H7S13296   4.796   6.078   7.050 -3.0656  1.5263  1.8424
  125OSM    H7T13297   4.802   6.252   7.098 -0.6478  0.4839 -0.7249
  125OSM    C8S13298   4.897   6.108   7.237  0.5138 -0.1095  0.2528
  125OSM    H8S13299   4.944   6.190   7.295  1.5714 -1.7886  1.8674
  125OSM    H8T13300   4.978   6.035   7.219  0.6236  0.1099 -0.1412
  125OSM    C9S13301   4.771   6.055   7.311  0.7200  0.5405 -0.7502
  125OSM    H9S13302   4.741   5.957   7.267 -2.1378  0.4284  1.1487
  125OSM    H9T13303   4.687   6.127   7.319 -0.4453 -0.8903  0.7405
  125OSM   C10S13304   4.811   6.018   7.454 -0.9731  0.3814  0.5609
  125OSM   H10S13305   4.920   6.017   7.473 -1.3228 -1.6662  3.1847
  125OSM   H10T13306   4.780   5.912   7.473  1.6491 -0.4792  0.4154
  125OSM   C11S13307   4.743   6.102   7.562 -0.4011  0.4022 -0.1444
  125OSM   H11S13308   4.638   6.121   7.532 -0.7928  0.8542  1.4082
  125OSM   H11T13309   4.791   6.203   7.564  0.9537 -0.1837  2.8150
  125OSM   C12S13310   4.756   6.040   7.700  0.0990 -0.7626  0.2811
  125OSM   H12S13311   4.728   5.933   7.697  2.0681 -1.3866  1.9239
  125OSM   H12T13312   4.681   6.082   7.771 -3.1233  0.4088 -3.4801
  125OSM   C13S13313   4.896   6.043   7.757 -0.2902 -0.2764  0.3914
  125OSM   H13S13314   4.936   6.146   7.766  2.7145 -1.1616 -1.3279
  125OSM   H13T13315   4.964   5.995   7.682 -0.9945 -0.6248 -0.0350
  125OSM   C14S13316   4.906   5.980   7.899  0.5626  0.0796  0.6137
  125OSM   H14S13317   5.015   5.983   7.922  0.6739  2.1912  0.0471
  125OSM   H14T13318   4.865   5.878   7.910  2.2052 -0.6318  0.5342
  125OSM   C15S13319   4.825   6.062   7.998  0.4076 -0.6920 -0.3882
  125OSM   H15S13320   4.826   6.170   7.974 -1.9881 -0.4718  0.2168
  125OSM   H15T13321   4.875   6.050   8.097  0.4079  0.7049 -0.2074
  125OSM   C16S13322   4.671   6.013   8.028 -0.4908 -0.2386  0.3832
  125OSM   H16S13323   4.645   5.924   7.966 -0.8749  1.2003 -1.5947
  125OSM   H16T13324   4.614   6.104   8.000 -0.1048  0.2891  1.2560
  125OSM   C17S13325   4.644   5.967   8.174  0.2471 -0.1874 -0.0013
  125OSM   H17S13326   4.688   6.047   8.238 -0.2112  1.0578 -1.1726
  125OSM   H17T13327   4.707   5.879   8.195 -1.2637 -1.6160 -1.2210
  125OSM   C18S13328   4.493   5.935   8.193  0.5998 -0.0070  1.3055
  125OSM   H18S13329   4.457   5.885   8.100  0.4162  1.0282  0.8048
  125OSM   H18T13330   4.423   6.021   8.199  1.1856  0.5139  0.8432
  125OSM   H18U13331   4.479   5.856   8.269 -0.7842 -2.5050 -1.3235
  125OSM    C1F13332   4.628   5.990   6.640  0.0770  0.5027  0.1088
  125OSM     OF13333   4.640   5.910   6.543 -0.0614 -0.0596 -0.1357
  125OSM    C2F13334   4.511   5.984   6.735  0.3751  0.4049  1.0643
  125OSM    H2F13335   4.429   6.054   6.709  0.4547  0.8632  2.0172
  125OSM    H2G13336   4.552   6.029   6.827  0.9052 -1.6911  1.9147
  125OSM    C3F13337   4.454   5.840   6.756 -0.6948 -0.3116 -0.0909
  125OSM    H3F13338   4.530   5.761   6.769 -0.5890 -0.3640 -0.9415
  125OSM    H3G13339   4.403   5.809   6.662 -0.1967 -1.0324 -0.1257
  125OSM    C4F13340   4.359   5.823   6.876 -0.2161 -0.0551 -0.4775
  125OSM    H4F13341   4.327   5.717   6.885 -0.2868  0.1422  2.8223
  125OSM    H4G13342   4.272   5.890   6.860  0.7919  1.6392  0.8163
  125OSM    C5F13343   4.444   5.852   7.009  0.5818  0.1670  0.2344
  125OSM    H5F13344   4.498   5.949   7.000  1.7225 -0.4140  0.6523
  125OSM    H5G13345   4.525   5.776   7.007  0.1818 -0.2659 -1.6968
  125OSM    C6F13346   4.349   5.842   7.130  0.1637  0.2494  0.3415
  125OSM    H6F13347   4.303   5.741   7.123  0.5460  0.1932 -2.8579
  125OSM    H6G13348   4.270   5.916   7.109 -0.0511 -0.7124 -2.8429
  125OSM    C7F13349   4.419   5.863   7.263 -0.4355 -0.8871 -0.9716
  125OSM    H7F13350   4.462   5.965   7.267  0.6500 -1.3743  0.4008
  125OSM    H7G13351   4.501   5.789   7.250 -1.2302 -1.8786 -0.5459
  125OSM    C8F13352   4.343   5.825   7.389  0.4745 -0.4847  0.2234
  125OSM    H8F13353   4.317   5.719   7.368  1.0526 -0.3858 -1.0827
  125OSM    H8G13354   4.245   5.876   7.378  1.6439  1.6694 -1.0073
  125OSM    C9F13355   4.420   5.861   7.510 -0.5300  0.0294 -0.2328
  125OSM    H9F13356   4.528   5.875   7.494 -0.1387 -2.2407  0.0744
  125OSM   C10F13357   4.373   5.887   7.630  0.3759  0.3706 -0.6369
  125OSM   H10F13358   4.444   5.915   7.709 -0.2791 -0.6004  0.3239
  125OSM   C11F13359   4.232   5.890   7.676  0.3679  0.1810  0.1702
  125OSM   H11F13360   4.165   5.896   7.588  2.1210  2.1683 -1.1264
  125OSM   H11G13361   4.222   5.986   7.730  1.0714 -1.3418  3.2502
  125OSM   C12F13362   4.200   5.771   7.766 -0.2250  0.4798 -0.2293
  125OSM   H12F13363   4.248   5.680   7.724 -0.5677 -0.2886  1.0028
  125OSM   H12G13364   4.090   5.752   7.765  0.1005 -1.6095 -0.0571
  125OSM   C13F13365   4.238   5.788   7.921  0.2127  0.0726 -0.8584
  125OSM   H13F13366   4.172   5.873   7.949  0.6588  0.7086 -1.6939
  125OSM   H13G13367   4.344   5.818   7.930  0.2742 -0.4200  0.1635
  125OSM   C14F13368   4.221   5.661   8.004  0.4695 -0.1754  0.1566
  125OSM   H14F13369   4.306   5.592   7.985 -0.6012 -1.7645  0.8720
  125OSM   H14G13370   4.134   5.599   7.972 -0.6283  1.7110 -0.6733
  125OSM   C15F13371   4.218   5.680   8.157  0.1867 -0.1815  0.2490
  125OSM   H15F13372   4.111   5.698   8.180  0.1354  0.0785 -0.1861
  125OSM   H15G13373   4.279   5.766   8.191 -0.5200  0.4911 -0.1638
  125OSM   C16F13374   4.245   5.553   8.236 -0.3373  0.2436 -0.7632
  125OSM   H16F13375   4.351   5.522   8.249 -0.4470  0.5188  1.0966
  125OSM   H16G13376   4.190   5.470   8.186 -2.4972  1.1083  0.0678
  125OSM   C17F13377   4.183   5.552   8.384 -0.4688 -0.2839  0.6812
  125OSM   H17F13378   4.074   5.570   8.368 -0.6359 -2.3135 -0.8984
  125OSM   H17G13379   4.220   5.635   8.448 -2.7296  0.3842  1.2122
  125OSM   C18F13380   4.183   5.420   8.465 -0.4891  0.7071 -0.2538
  125OSM   H18F13381   4.287   5.385   8.484 -0.3581  0.4379 -1.3670
  125OSM   H18G13382   4.117   5.347   8.413  1.5677 -1.8935  0.5602
  125OSM   H18H13383   4.130   5.430   8.562 -2.1907 -2.5249 -0.7157
  126OSM      N13384   0.603   4.294   6.271  0.2880  0.5220 -0.6105
  126OSM    C1513385   0.587   4.436   6.215  0.5390 -1.0865 -0.4156
  126OSM   H15A13386   0.598   4.452   6.109 -0.5065 -1.1035 -0.5341
  126OSM   H15B13387   0.654   4.511   6.256  0.6321 -0.7352 -1.1915
  126OSM   H15C13388   0.487   4.464   6.242  1.4172 -0.1052  2.2169
  126OSM    C1413389   0.526   4.201   6.172  0.2749 -0.1306  0.1086
  126OSM   H14A13390   0.540   4.234   6.070  0.2598  0.4893  0.3029
  126OSM   H14B13391   0.423   4.194   6.204  0.6068 -1.5899  0.8975
  126OSM   H14C13392   0.570   4.103   6.169  0.3032 -0.1038 -0.9405
  126OSM    C1313393   0.752   4.260   6.259 -0.2109 -0.0729  0.1476
  126OSM   H13A13394   0.785   4.265   6.156  1.5413  1.0365  0.7140
  126OSM   H13B13395   0.777   4.162   6.299  2.9635  0.1167 -1.0920
  126OSM   H13C13396   0.816   4.330   6.310  0.5298  1.9932 -3.2721
  126OSM    C1213397   0.542   4.287   6.408 -0.6119 -0.5231  0.0627
  126OSM   H12A13398   0.437   4.312   6.406 -0.3540  0.5650 -0.6658
  126OSM   H12B13399   0.588   4.360   6.472  0.8110 -0.6180 -0.8072
  126OSM    C1113400   0.549   4.152   6.479 -0.1763  0.5316  0.1268
  126OSM   H11A13401   0.519   4.073   6.407 -1.1300 -0.8911  1.9980
  126OSM   H11B13402   0.469   4.155   6.556 -0.6564  0.8281 -0.3704
  126OSM      P13403   0.737   4.192   6.652 -0.2991  0.0510 -0.4927
  126OSM    O1313404   0.887   4.167   6.663  0.0461  0.5364  0.3286
  126OSM    O1413405   0.701   4.339   6.658  0.0218  0.5127  0.5924
  126OSM    O1113406   0.647   4.111   6.757 -0.1241  0.1458  0.4156
  126OSM    O1213407   0.679   4.127   6.519  0.0001 -0.4106  0.2010
  126OSM    C1S13408   0.667   4.115   6.901  0.5149 -0.1523 -0.5242
  126OSM    H1S13409   0.769   4.136   6.939 -0.0857 -0.1370  1.2019
  126OSM    H1T13410   0.631   4.021   6.948 -2.5606  2.0320  1.9720
  126OSM     NF13411   0.652   4.261   7.102 -0.8883 -0.3705 -0.2661
  126OSM    HNF13412   0.614   4.231   7.189 -1.6023  3.2432  0.8196
  126OSM    C2S13413   0.592   4.225   6.978 -0.3590 -0.4495 -0.2816
  126OSM    H2S13414   0.601   4.309   6.906 -0.9409 -1.0782 -1.1044
  126OSM    C3S13415   0.440   4.181   6.984 -0.3239  0.0592 -0.0173
  126OSM    H3S13416   0.437   4.082   7.035  1.8951  0.1301  0.3235
  126OSM     O313417   0.386   4.142   6.859  0.5270  0.0890  0.4459
  126OSM    HO313418   0.465   4.133   6.804  1.8258 -0.8263  2.3568
  126OSM    C4S13419   0.350   4.279   7.049  0.1540 -0.0477  1.2910
  126OSM    H4S13420   0.354   4.375   6.995  1.6200  0.0939  1.6186
  126OSM    C5S13421   0.261   4.266   7.145  0.4449 -0.3428 -0.6146
  126OSM    H5S13422   0.244   4.166   7.187 -2.8728  0.0664 -0.7599
  126OSM    C6S13423   0.172   4.372   7.209  0.0481  0.1481  0.2926
  126OSM    H6S13424   0.068   4.349   7.176  0.3040 -4.1650  1.8257
  126OSM    H6T13425   0.201   4.475   7.180 -2.0891  1.0382  1.1359
  126OSM    C7S13426   0.167   4.362   7.361 -0.5330 -0.1992 -0.0168
  126OSM    H7S13427   0.270   4.357   7.403 -0.0800 -1.5247 -1.1582
  126OSM    H7T13428   0.124   4.265   7.393 -2.3774 -0.4243 -2.7569
  126OSM    C8S13429   0.092   4.473   7.426 -0.3143  0.6268 -0.6686
  126OSM    H8S13430  -0.010   4.454   7.387 -1.6267  1.9628  1.8971
  126OSM    H8T13431   0.143   4.563   7.384  1.5738 -1.3024 -2.8193
  126OSM    C9S13432   0.111   4.460   7.581 -0.5535  0.6898  0.4665
  126OSM    H9S13433   0.221   4.454   7.598 -0.2630  0.1749 -1.4517
  126OSM    H9T13434   0.073   4.360   7.609 -0.5969  0.1190 -1.5230
  126OSM   C10S13435   0.071   4.580   7.671 -0.0414  0.1972  0.1083
  126OSM   H10S13436  -0.037   4.595   7.650  0.1998  0.1930 -1.2386
  126OSM   H10T13437   0.126   4.665   7.625 -1.2493 -0.8474 -3.6263
  126OSM   C11S13438   0.103   4.581   7.823 -0.1453 -0.6111  0.4593
  126OSM   H11S13439   0.078   4.679   7.868  2.4544  0.5325 -0.3870
  126OSM   H11T13440   0.213   4.568   7.829  0.2171  2.0428  0.4070
  126OSM   C12S13441   0.036   4.469   7.896 -0.3880 -0.7358  0.4604
  126OSM   H12S13442   0.022   4.379   7.833 -2.6368  0.2084 -0.4806
  126OSM   H12T13443  -0.064   4.506   7.927 -1.2313 -2.1627 -0.4519
  126OSM   C13S13444   0.117   4.421   8.014 -0.7258  0.4639 -0.7635
  126OSM   H13S13445   0.208   4.372   7.971 -1.5532 -1.4095 -0.4974
  126OSM   H13T13446   0.049   4.353   8.070 -0.1180  1.5432  1.3909
  126OSM   C14S13447   0.158   4.538   8.110  0.3991  0.0279 -0.0303
  126OSM   H14S13448   0.064   4.582   8.151  0.0789 -1.7823  1.2993
  126OSM   H14T13449   0.214   4.610   8.048  1.9011 -0.6477  0.4943
  126OSM   C15S13450   0.241   4.487   8.234  0.2099  0.2200  0.0628
  126OSM   H15S13451   0.334   4.445   8.190  0.0404 -0.7326  0.5866
  126OSM   H15T13452   0.183   4.407   8.284 -1.0863 -0.2101 -2.0016
  126OSM   C16S13453   0.256   4.593   8.335 -0.0004  1.1893  0.5071
  126OSM   H16S13454   0.159   4.638   8.367 -1.1572 -0.5565 -0.3211
  126OSM   H16T13455   0.316   4.672   8.287  2.9565 -1.0147  0.3058
  126OSM   C17S13456   0.328   4.553   8.461 -0.7376 -0.0049 -0.4410
  126OSM   H17S13457   0.434   4.529   8.439 -0.2986  2.3593 -1.1001
  126OSM   H17T13458   0.278   4.460   8.496 -2.8828  0.3452 -2.3724
  126OSM   C18S13459   0.330   4.660   8.579 -0.3098  0.4935  0.2360
  126OSM   H18S13460   0.325   4.606   8.676 -0.5271 -2.4395 -1.2965
  126OSM   H18T13461   0.241   4.725   8.566 -0.2834  0.3402 -0.7840
  126OSM   H18U13462   0.428   4.712   8.572  0.5168 -0.9467  0.7565
  126OSM    C1F13463   0.764   4.330   7.112 -0.6020 -0.1060  0.0525
  126OSM     OF13464   0.801   4.399   7.013  0.3266  0.1037 -0.1791
  126OSM    C2F13465   0.847   4.317   7.233  0.3438  0.1142 -0.0611
  126OSM    H2F13466   0.942   4.263   7.210  1.1192  1.4392 -0.0736
  126OSM    H2G13467   0.796   4.261   7.315 -0.3465  1.7215  0.6429
  126OSM    C3F13468   0.874   4.447   7.301  0.0689 -0.3879  0.3502
  126OSM    H3F13469   0.782   4.498   7.337 -0.8964 -3.3398  2.4198
  126OSM    H3G13470   0.919   4.526   7.238  0.9459  1.1535  2.7806
  126OSM    C4F13471   0.961   4.407   7.420 -0.2054 -0.3863 -0.3547
  126OSM    H4F13472   1.008   4.310   7.393 -4.6492 -2.8576 -0.2527
  126OSM    H4G13473   0.904   4.382   7.512  2.0441 -2.8491  0.4785
  126OSM    C5F13474   1.044   4.518   7.464 -0.3945 -0.3434  0.7696
  126OSM    H5F13475   0.985   4.610   7.477 -0.7385 -0.2211 -1.2544
  126OSM    H5G13476   1.120   4.532   7.384  1.9134 -1.8138  2.5365
  126OSM    C6F13477   1.135   4.486   7.585 -0.0747 -0.0737 -0.2514
  126OSM    H6F13478   1.231   4.542   7.586 -0.7480  1.1499  1.5233
  126OSM    H6G13479   1.165   4.381   7.565 -1.8389 -0.5484 -0.5385
  126OSM    C7F13480   1.078   4.506   7.729  0.8262  0.4401  0.3673
  126OSM    H7F13481   0.995   4.438   7.754 -1.1547  3.1203  1.6209
  126OSM    H7G13482   1.034   4.608   7.717 -1.0576 -0.4884 -1.2094
  126OSM    C8F13483   1.186   4.517   7.833  0.8644  0.4300 -0.4440
  126OSM    H8F13484   1.269   4.579   7.792  0.1766  0.2007 -2.2781
  126OSM    H8G13485   1.233   4.417   7.845  0.6688  0.5155  1.3128
  126OSM    C9F13486   1.122   4.571   7.958  0.2684 -0.1811  0.2376
  126OSM    H9F13487   1.124   4.680   7.968 -0.2782 -0.1790  0.3362
  126OSM   C10F13488   1.063   4.504   8.057  0.0956 -0.4855 -0.1662
  126OSM   H10F13489   1.027   4.570   8.137  1.1574  2.8169 -2.2263
  126OSM   C11F13490   1.037   4.355   8.074 -0.7521  0.3973  0.5338
  126OSM   H11F13491   1.016   4.316   7.972 -1.7385 -0.1460  0.9207
  126OSM   H11G13492   0.943   4.345   8.134 -0.3102 -0.6196  1.0912
  126OSM   C12F13493   1.157   4.271   8.126  0.0458 -0.3418 -1.5882
  126OSM   H12F13494   1.254   4.287   8.075  0.9647  1.1475  0.5050
  126OSM   H12G13495   1.130   4.163   8.135 -0.8978 -0.0338 -0.3659
  126OSM   C13F13496   1.196   4.307   8.270 -0.3551 -0.2796 -0.3723
  126OSM   H13F13497   1.103   4.330   8.326 -0.2340  0.6461 -0.5505
  126OSM   H13G13498   1.254   4.401   8.265 -0.4605  0.1544  3.7366
  126OSM   C14F13499   1.268   4.203   8.363  0.0148 -0.5593  0.3336
  126OSM   H14F13500   1.366   4.178   8.318 -0.5101 -1.0967 -0.5399
  126OSM   H14G13501   1.202   4.113   8.365 -1.4729  0.2460 -3.6357
  126OSM   C15F13502   1.295   4.260   8.500 -0.5583  0.0826 -0.9819
  126OSM   H15F13503   1.224   4.337   8.538  0.1112 -0.3665  1.3405
  126OSM   H15G13504   1.392   4.313   8.491 -1.6054  1.8347 -2.7844
  126OSM   C16F13505   1.309   4.155   8.606 -0.3017 -0.3832  0.0288
  126OSM   H16F13506   1.386   4.077   8.587 -0.2656 -0.2692 -0.2971
  126OSM   H16G13507   1.212   4.103   8.615  1.2017 -3.2191  1.1958
  126OSM   C17F13508   1.333   4.211   8.752  0.5979 -0.6350  0.4881
  126OSM   H17F13509   1.245   4.277   8.772 -0.3635 -1.2102 -1.5631
  126OSM   H17G13510   1.417   4.284   8.752 -0.3312  0.4614 -0.0035
  126OSM   C18F13511   1.360   4.100   8.857 -0.9888 -0.4499 -0.4439
  126OSM   H18F13512   1.298   4.011   8.833 -0.9250 -1.2862  2.2235
  126OSM   H18G13513   1.347   4.128   8.964 -3.8076 -0.9961 -0.5462
  126OSM   H18H13514   1.464   4.069   8.835 -1.0887 -0.4417 -0.9471
  127OSM      N13515   4.784   5.588   6.042  0.6147 -0.0796  0.6058
  127OSM    C1513516   4.771   5.742   6.002  0.0653  1.0915  0.1668
  127OSM   H15A13517   4.745   5.757   5.899 -3.1664  1.4961  0.9217
  127OSM   H15B13518   4.873   5.771   6.020  0.3968 -0.4027  0.8013
  127OSM   H15C13519   4.694   5.788   6.064 -1.0754 -1.1227  0.4938
  127OSM    C1413520   4.657   5.525   5.984  0.5010 -0.5754 -0.3168
  127OSM   H14A13521   4.569   5.559   6.036  0.4154 -0.1991 -0.6987
  127OSM   H14B13522   4.671   5.418   5.979  0.0629 -0.6161 -0.7416
  127OSM   H14C13523   4.641   5.555   5.881 -0.6495  0.5808  0.1670
  127OSM    C1313524   4.897   5.530   5.969 -0.9189  0.2282  0.5211
  127OSM   H13A13525   4.986   5.591   5.965 -0.8362  0.1319  0.8441
  127OSM   H13B13526   4.871   5.509   5.866  0.0524  1.9313 -0.1169
  127OSM   H13C13527   4.928   5.431   5.996  2.8443  1.1921  0.3145
  127OSM    C1213528   4.789   5.579   6.192 -0.5189 -0.1675 -0.0302
  127OSM   H12A13529   4.693   5.608   6.233 -1.1134 -0.6637 -1.0203
  127OSM   H12B13530   4.865   5.646   6.229 -0.6638 -0.1040  0.1591
  127OSM    C1113531   4.826   5.439   6.261 -0.0605 -0.9128  0.6623
  127OSM   H11A13532   4.848   5.434   6.370  0.9521 -0.8355  0.4668
  127OSM   H11B13533   4.923   5.410   6.216 -0.0485  0.2475 -0.1086
  127OSM      P13534   4.589   5.345   6.317  0.2198  0.4235 -0.7217
  127OSM    O1313535   4.529   5.473   6.299 -0.2639 -0.0743 -0.2076
  127OSM    O1413536   4.503   5.230   6.280  0.4116  0.0016 -0.0527
  127OSM    O1113537   4.626   5.325   6.471 -0.6835  0.3261  0.5284
  127OSM    O1213538   4.726   5.335   6.239 -0.0206  0.4915 -0.5519
  127OSM    C1S13539   4.716   5.218   6.510 -0.1536 -0.0566 -0.5268
  127OSM    H1S13540   4.823   5.244   6.495  0.0515 -0.1197  0.7312
  127OSM    H1T13541   4.707   5.126   6.449 -1.9399 -0.7443  0.6797
  127OSM     NF13542   4.791   5.103   6.726  0.3797 -0.6668  0.6270
  127OSM    HNF13543   4.781   5.006   6.747 -2.6036 -0.6210 -0.1032
  127OSM    C2S13544   4.675   5.170   6.658  0.6882 -0.1658  0.0090
  127OSM    H2S13545   4.656   5.264   6.714  0.5463 -1.1356  1.6497
  127OSM    C3S13546   4.555   5.071   6.654  0.7621 -0.2500  0.3340
  127OSM    H3S13547   4.579   4.986   6.587  0.9868 -0.4714  0.6925
  127OSM     O313548   4.451   5.143   6.590 -0.5782  0.0001  0.2215
  127OSM    HO313549   4.511   5.194   6.536  1.1524 -0.0595  1.9757
  127OSM    C4S13550   4.514   5.019   6.787 -0.6914 -0.0370 -0.3478
  127OSM    H4S13551   4.503   5.095   6.866  1.2656 -0.1301  0.0554
  127OSM    C5S13552   4.519   4.893   6.831  0.1581 -0.3942 -0.7826
  127OSM    H5S13553   4.547   4.817   6.756 -1.1193 -2.5961  0.8220
  127OSM    C6S13554   4.493   4.835   6.969 -0.2112 -0.6561  0.6613
  127OSM    H6S13555   4.586   4.859   7.023  0.3212 -1.0405 -0.0545
  127OSM    H6T13556   4.483   4.724   6.975  0.5749 -0.6500  3.0001
  127OSM    C7S13557   4.368   4.886   7.039  0.0925 -0.6360  0.1561
  127OSM    H7S13558   4.279   4.880   6.973  0.8668  1.1156 -1.1294
  127OSM    H7T13559   4.382   4.996   7.053 -0.7305 -0.0170 -3.0558
  127OSM    C8S13560   4.319   4.817   7.162 -0.5218  0.0350 -0.1130
  127OSM    H8S13561   4.303   4.707   7.151  2.9963 -0.5545 -0.2504
  127OSM    H8T13562   4.217   4.855   7.187 -0.3370  1.2537 -1.1423
  127OSM    C9S13563   4.416   4.829   7.286 -0.0540 -0.4332 -0.3620
  127OSM    H9S13564   4.438   4.938   7.294  4.2487 -1.1305  0.3170
  127OSM    H9T13565   4.515   4.781   7.269  0.7620  1.2597 -0.6056
  127OSM   C10S13566   4.351   4.762   7.416 -0.0860 -0.6719 -0.8128
  127OSM   H10S13567   4.371   4.654   7.399 -1.4311 -0.8421 -1.4972
  127OSM   H10T13568   4.240   4.771   7.415 -0.1723 -0.6637  1.7812
  127OSM   C11S13569   4.403   4.808   7.554 -0.2048 -0.2525 -0.3117
  127OSM   H11S13570   4.409   4.919   7.556  0.6806 -0.2766 -0.9137
  127OSM   H11T13571   4.510   4.782   7.573  0.2355  1.6600 -0.0448
  127OSM   C12S13572   4.302   4.765   7.660 -0.1710 -0.1158  0.0485
  127OSM   H12S13573   4.294   4.655   7.661 -0.3357 -0.1045  1.0565
  127OSM   H12T13574   4.207   4.815   7.629  0.3099  0.7274 -0.1060
  127OSM   C13S13575   4.329   4.822   7.805 -0.6483  0.3806 -0.6112
  127OSM   H13S13576   4.234   4.814   7.862 -0.6561  0.7790 -0.5677
  127OSM   H13T13577   4.355   4.929   7.791 -1.8327  0.7340 -0.2201
  127OSM   C14S13578   4.431   4.734   7.879  0.8571 -0.2846  0.7705
  127OSM   H14S13579   4.525   4.731   7.821  1.3007 -0.4185  1.4880
  127OSM   H14T13580   4.390   4.631   7.887  0.1063 -0.5554 -3.6581
  127OSM   C15S13581   4.462   4.803   8.012 -0.6775  0.2866  0.7384
  127OSM   H15S13582   4.373   4.806   8.078  0.3808 -0.9045  2.2886
  127OSM   H15T13583   4.490   4.907   7.984  1.1323 -0.5968 -0.9844
  127OSM   C16S13584   4.585   4.731   8.076 -0.5028  0.5496 -0.1704
  127OSM   H16S13585   4.665   4.709   8.002  1.8348 -1.4937  2.7424
  127OSM   H16T13586   4.552   4.635   8.121 -0.7517  0.1221 -1.2437
  127OSM   C17S13587   4.647   4.800   8.202  0.1199 -0.5448  0.2302
  127OSM   H17S13588   4.729   4.867   8.170 -0.4078  0.8534  1.6793
  127OSM   H17T13589   4.691   4.726   8.272 -0.7852 -0.7388  0.6084
  127OSM   C18S13590   4.541   4.880   8.284 -0.0585  0.3616 -0.4879
  127OSM   H18S13591   4.586   4.928   8.373 -0.0995 -0.8681  0.2254
  127OSM   H18T13592   4.460   4.815   8.322  2.7101 -2.7428  0.5891
  127OSM   H18U13593   4.504   4.959   8.215  0.5599  1.5250  0.4915
  127OSM    C1F13594   4.890   5.168   6.776  0.1224 -0.6179 -0.0248
  127OSM     OF13595   4.905   5.291   6.759  0.0836 -0.3418 -0.1696
  127OSM    C2F13596   4.984   5.085   6.858 -0.5432  0.7405 -0.1868
  127OSM    H2F13597   5.059   5.154   6.903 -0.8335 -0.2866  1.9881
  127OSM    H2G13598   5.026   5.018   6.781  2.2042  0.2124  1.6287
  127OSM    C3F13599   4.912   5.001   6.967 -0.1865  0.5228  0.5194
  127OSM    H3F13600   4.994   4.946   7.018  0.1194 -0.6593 -1.1768
  127OSM    H3G13601   4.849   4.925   6.915  0.2478  1.6274 -1.7690
  127OSM    C4F13602   4.834   5.073   7.075  0.9163 -1.0979  1.2355
  127OSM    H4F13603   4.741   5.110   7.027  1.2257 -2.5828 -0.5925
  127OSM    H4G13604   4.888   5.168   7.099 -0.9312  0.0143  1.1746
  127OSM    C5F13605   4.808   4.987   7.209  0.0916  0.1748  0.2448
  127OSM    H5F13606   4.907   4.971   7.255  0.4967 -0.1421 -0.7015
  127OSM    H5G13607   4.761   4.889   7.189  1.0688  0.0238 -1.5374
  127OSM    C6F13608   4.722   5.075   7.298  0.8770  0.1168  0.3290
  127OSM    H6F13609   4.624   5.104   7.254  0.0867 -1.1970  1.1526
  127OSM    H6G13610   4.774   5.173   7.296 -0.9268  1.1061 -1.3792
  127OSM    C7F13611   4.689   5.021   7.438 -0.3744  0.0191 -0.4856
  127OSM    H7F13612   4.611   4.942   7.431 -1.1758  0.4423  2.1975
  127OSM    H7G13613   4.640   5.104   7.495 -1.6042 -0.4477 -0.8311
  127OSM    C8F13614   4.798   4.966   7.523  0.0734 -0.1426 -0.3040
  127OSM    H8F13615   4.890   5.027   7.531  0.1640 -0.3095 -0.0561
  127OSM    H8G13616   4.828   4.872   7.471 -0.0966 -1.3615  1.6780
  127OSM    C9F13617   4.753   4.924   7.665  0.5980  0.8994  0.6852
  127OSM    H9F13618   4.652   4.879   7.674  1.2367 -1.4409 -2.1384
  127OSM   C10F13619   4.827   4.934   7.772 -0.2264  0.0247  0.3021
  127OSM   H10F13620   4.774   4.896   7.860 -4.0979 -0.8991 -2.2156
  127OSM   C11F13621   4.961   5.005   7.787  0.1509  0.2975 -0.0166
  127OSM   H11F13622   4.950   5.112   7.814  0.7423  0.0348  1.4198
  127OSM   H11G13623   5.010   5.009   7.688 -1.6659 -1.3040 -1.0554
  127OSM   C12F13624   5.047   4.924   7.884 -0.5356 -0.1577 -0.2758
  127OSM   H12F13625   5.152   4.948   7.858 -0.2570 -1.9216 -0.9545
  127OSM   H12G13626   5.031   4.815   7.866 -0.7220 -0.0949 -0.4950
  127OSM   C13F13627   5.020   4.953   8.032  0.2007 -0.2038 -0.5782
  127OSM   H13F13628   4.914   4.928   8.053  0.1966  1.7562  2.2817
  127OSM   H13G13629   5.021   5.063   8.043 -4.9841 -0.0180  0.5387
  127OSM   C14F13630   5.125   4.893   8.131 -0.0052  0.1051  0.4431
  127OSM   H14F13631   5.227   4.919   8.097 -0.9304  1.5568 -1.4620
  127OSM   H14G13632   5.113   4.783   8.138 -1.3534  0.2646  1.0276
  127OSM   C15F13633   5.111   4.962   8.268 -0.3693 -0.6592  0.7018
  127OSM   H15F13634   5.005   4.967   8.300  0.1534  0.2894  2.3963
  127OSM   H15G13635   5.137   5.070   8.257  0.2848 -0.9644 -1.1060
  127OSM   C16F13636   5.179   4.888   8.385 -0.2269  0.0957  0.1089
  127OSM   H16F13637   5.152   4.932   8.483 -1.6813  0.8839 -0.6152
  127OSM   H16G13638   5.289   4.901   8.372  0.1177 -1.3930  1.2654
  127OSM   C17F13639   5.155   4.740   8.391  0.8072 -0.2158 -0.0964
  127OSM   H17F13640   5.205   4.698   8.301 -2.2653 -1.3500 -1.4280
  127OSM   H17G13641   5.046   4.722   8.381  0.7360 -1.4065  2.2241
  127OSM   C18F13642   5.186   4.661   8.516 -0.4531  0.1228 -0.0081
  127OSM   H18F13643   5.125   4.716   8.591 -3.0981 -1.9636 -0.4905
  127OSM   H18G13644   5.296   4.669   8.532 -0.3172  1.3472 -1.3391
  127OSM   H18H13645   5.152   4.556   8.507 -1.5579  0.5860 -1.6830
  128OSM      N13646   5.430   2.846   6.261 -0.6073  0.3508  0.0737
  128OSM    C1513647   5.361   2.719   6.243  0.3550  0.5014 -0.6043
  128OSM   H15A13648   5.406   2.644   6.178 -0.4006 -1.5423  1.1074
  128OSM   H15B13649   5.268   2.736   6.190  0.3971  0.3712 -0.7215
  128OSM   H15C13650   5.325   2.676   6.335 -0.9720  1.6569 -0.5525
  128OSM    C1413651   5.373   2.947   6.159  0.0921  0.0001 -0.3302
  128OSM   H14A13652   5.390   2.907   6.060 -1.1072 -2.0856  0.2450
  128OSM   H14B13653   5.426   3.040   6.176  0.1452 -0.1333  0.2401
  128OSM   H14C13654   5.268   2.961   6.182  0.0115 -0.1021 -0.6309
  128OSM    C1313655   5.403   2.902   6.393 -0.0148  0.0849 -0.1591
  128OSM   H13A13656   5.462   2.989   6.419 -1.3421  0.5315  1.5648
  128OSM   H13B13657   5.412   2.828   6.471 -0.5904 -1.7441 -1.7629
  128OSM   H13C13658   5.303   2.939   6.412 -0.0857  0.2950 -0.9281
  128OSM    C1213659   5.581   2.829   6.241  0.4386 -0.4080  0.1765
  128OSM   H12A13660   5.630   2.767   6.315  1.7350 -0.9908 -1.1201
  128OSM   H12B13661   5.622   2.929   6.248  0.1311 -0.3193  0.7859
  128OSM    C1113662   5.631   2.771   6.095  0.9445  0.1995  0.3690
  128OSM   H11A13663   5.740   2.791   6.084  0.7765  0.6537 -0.5377
  128OSM   H11B13664   5.585   2.832   6.015 -0.4950 -1.1877  0.1010
  128OSM      P13665   5.696   2.522   6.147 -0.1416 -0.0043 -0.0570
  128OSM    O1313666   5.624   2.400   6.171 -0.3217 -0.1063 -0.0798
  128OSM    O1413667   5.808   2.510   6.047  0.3854 -0.4679  0.8077
  128OSM    O1113668   5.752   2.580   6.280  0.1823  0.6541 -0.3514
  128OSM    O1213669   5.595   2.634   6.090  0.2036 -0.4565  0.0403
  128OSM    C1S13670   5.723   2.522   6.407 -0.3049  0.2276  0.3677
  128OSM    H1S13671   5.750   2.415   6.405  1.5693  0.6542 -2.2322
  128OSM    H1T13672   5.614   2.529   6.425 -0.4557 -0.0236 -0.4295
  128OSM     NF13673   5.801   2.525   6.645  0.2810 -0.3393  0.2755
  128OSM    HNF13674   5.771   2.574   6.727  1.2796  2.8523 -1.0830
  128OSM    C2S13675   5.816   2.592   6.519  0.4425 -0.0353  0.5318
  128OSM    H2S13676   5.921   2.585   6.484 -0.5517  1.4189 -3.2454
  128OSM    C3S13677   5.790   2.736   6.525 -0.1305 -0.8881 -1.0668
  128OSM    H3S13678   5.685   2.754   6.556 -0.6360 -2.4673 -1.7886
  128OSM     O313679   5.819   2.818   6.413  0.2484  0.1624 -0.7480
  128OSM    HO313680   5.832   2.755   6.342  0.7455  1.4177 -1.8040
  128OSM    C4S13681   5.884   2.799   6.634 -0.2590 -0.2305 -0.2467
  128OSM    H4S13682   5.992   2.790   6.616 -0.0111 -1.3242  1.4598
  128OSM    C5S13683   5.832   2.855   6.745 -0.3943  0.2699 -0.3380
  128OSM    H5S13684   5.722   2.853   6.759 -0.3439 -0.0533  0.0632
  128OSM    C6S13685   5.913   2.921   6.850 -0.4807  0.4599 -0.9934
  128OSM    H6S13686   5.879   3.020   6.887 -1.2277 -1.1732  3.1981
  128OSM    H6T13687   6.016   2.922   6.807 -0.0907 -1.3819 -0.1977
  128OSM    C7S13688   5.925   2.831   6.979  0.3306 -0.2358  0.8622
  128OSM    H7S13689   5.924   2.725   6.946  0.3543  0.1399 -0.3984
  128OSM    H7T13690   5.841   2.850   7.049  0.5824  1.7459  0.6839
  128OSM    C8S13691   6.048   2.861   7.068  0.7547  0.0326  0.0988
  128OSM    H8S13692   6.141   2.825   7.018  1.3077  1.2953  0.1884
  128OSM    H8T13693   6.036   2.801   7.160  0.6097 -0.8588 -0.4872
  128OSM    C9S13694   6.050   3.010   7.109 -0.2519  0.8073 -0.4835
  128OSM    H9S13695   5.948   3.053   7.122 -0.9047 -0.9587  0.5360
  128OSM    H9T13696   6.096   3.063   7.022  1.3160 -0.6427 -0.5839
  128OSM   C10S13697   6.128   3.038   7.238 -0.6630  1.0234 -0.4848
  128OSM   H10S13698   6.122   3.146   7.261 -0.1819  0.6996  1.3686
  128OSM   H10T13699   6.231   2.996   7.234 -0.0893  2.4610 -2.8885
  128OSM   C11S13700   6.062   2.971   7.357  0.4277 -0.0444 -0.7480
  128OSM   H11S13701   6.057   2.860   7.353 -2.0953 -0.0520  0.7741
  128OSM   H11T13702   5.955   2.997   7.342  0.4683  1.0006  0.6101
  128OSM   C12S13703   6.113   3.011   7.497  0.1180  0.7330 -0.0150
  128OSM   H12S13704   6.111   3.122   7.501  0.4680  0.7178  0.8362
  128OSM   H12T13705   6.213   2.970   7.520  0.0450 -0.6444 -1.9478
  128OSM   C13S13706   6.010   2.973   7.602  1.1848  0.0965  0.6457
  128OSM   H13S13707   5.977   2.867   7.603  2.6336 -0.3586  1.8435
  128OSM   H13T13708   5.923   3.037   7.573  0.2634 -1.6584 -0.6636
  128OSM   C14S13709   6.045   3.007   7.744  0.2041 -0.4827  0.0619
  128OSM   H14S13710   6.091   3.108   7.751  0.3155 -0.1139 -3.8038
  128OSM   H14T13711   6.135   2.952   7.777  0.8706 -0.2481 -1.2910
  128OSM   C15S13712   5.930   2.986   7.843 -0.0039 -0.3203  0.1167
  128OSM   H15S13713   5.907   2.879   7.860 -0.4976  0.0530  1.9571
  128OSM   H15T13714   5.841   3.036   7.801  1.0813  1.4474 -0.1992
  128OSM   C16S13715   5.959   3.048   7.978 -0.2716 -0.2427 -0.4302
  128OSM   H16S13716   5.873   3.067   8.046  0.3560  0.9837  0.0398
  128OSM   H16T13717   6.025   3.135   7.962  1.6106 -1.7395 -1.2912
  128OSM   C17S13718   6.054   2.961   8.061 -0.1583  1.1077  0.5392
  128OSM   H17S13719   6.148   2.947   8.005  0.5260  2.6770  1.2249
  128OSM   H17T13720   6.015   2.858   8.072 -1.1703  1.3017 -0.9400
  128OSM   C18S13721   6.092   3.022   8.197  0.7254 -0.1226  0.6211
  128OSM   H18S13722   6.169   2.962   8.251 -0.1262 -1.2969  0.5802
  128OSM   H18T13723   6.003   3.030   8.263  0.0581 -0.3738 -0.2236
  128OSM   H18U13724   6.127   3.126   8.183 -1.8375  0.7014 -0.2501
  128OSM    C1F13725   5.860   2.412   6.674 -0.4131  0.2777 -0.3045
  128OSM     OF13726   5.908   2.349   6.585  0.2687  0.6569  0.1354
  128OSM    C2F13727   5.881   2.375   6.816  0.4151  0.4263  0.7285
  128OSM    H2F13728   5.781   2.379   6.865 -0.3501  1.2574 -0.8328
  128OSM    H2G13729   5.955   2.444   6.862  1.9099 -0.5357 -0.1582
  128OSM    C3F13730   5.916   2.228   6.841  0.1920 -0.3619 -0.5615
  128OSM    H3F13731   6.018   2.204   6.805 -0.2885 -0.4320 -1.9282
  128OSM    H3G13732   5.850   2.165   6.778 -1.0308  1.4574 -1.2160
  128OSM    C4F13733   5.894   2.188   6.990 -0.6031  0.4272 -0.9979
  128OSM    H4F13734   5.924   2.084   7.014  0.9105  1.3624  1.5561
  128OSM    H4G13735   5.789   2.183   7.027  0.1960 -2.0228  1.2230
  128OSM    C5F13736   5.972   2.269   7.101 -0.3471  0.1999  0.0768
  128OSM    H5F13737   5.949   2.377   7.089  0.9908  0.3875 -0.9889
  128OSM    H5G13738   6.080   2.252   7.082 -0.7169 -2.1561 -0.2695
  128OSM    C6F13739   5.942   2.219   7.247  0.4145 -0.7182  1.4480
  128OSM    H6F13740   6.025   2.234   7.320  0.2083  2.2421  1.1692
  128OSM    H6G13741   5.913   2.112   7.253 -0.6018 -0.4188  2.0855
  128OSM    C7F13742   5.827   2.304   7.305 -0.2175 -0.2629 -0.2239
  128OSM    H7F13743   5.728   2.269   7.270  0.5187 -0.2141 -2.5374
  128OSM    H7G13744   5.846   2.413   7.302 -2.2146  0.1561  0.8739
  128OSM    C8F13745   5.819   2.283   7.461 -0.7891 -0.7831 -0.6223
  128OSM    H8F13746   5.754   2.353   7.518  1.0736 -0.8676  1.7712
  128OSM    H8G13747   5.922   2.291   7.503 -0.4059  0.2953 -1.6922
  128OSM    C9F13748   5.766   2.153   7.498 -0.5063  0.1239  0.2160
  128OSM    H9F13749   5.825   2.066   7.465 -0.7440 -0.7724  1.9941
  128OSM   C10F13750   5.657   2.117   7.567 -0.3991 -0.1408 -0.7943
  128OSM   H10F13751   5.640   2.012   7.594 -2.0629  0.6121  1.3712
  128OSM   C11F13752   5.553   2.204   7.614 -0.1290 -0.5694 -0.1742
  128OSM   H11F13753   5.462   2.198   7.552 -1.2638  1.4211  1.1878
  128OSM   H11G13754   5.571   2.313   7.606 -1.0364 -0.2339  1.8085
  128OSM   C12F13755   5.497   2.191   7.758 -0.4065  0.9164 -0.1719
  128OSM   H12F13756   5.472   2.084   7.774  0.5269  0.5757 -0.9209
  128OSM   H12G13757   5.403   2.251   7.762  1.3106  3.7306  1.3695
  128OSM   C13F13758   5.574   2.244   7.878  0.5059 -0.9205 -0.6228
  128OSM   H13F13759   5.607   2.349   7.870  2.2502 -1.2814  0.8466
  128OSM   H13G13760   5.671   2.191   7.890  2.0995  1.8918 -0.2878
  128OSM   C14F13761   5.487   2.219   8.004 -0.0976  0.3749 -0.9881
  128OSM   H14F13762   5.537   2.265   8.092 -0.2502 -0.2088 -0.5854
  128OSM   H14G13763   5.488   2.108   8.011  0.1306  0.4314  0.0591
  128OSM   C15F13764   5.340   2.282   8.015 -0.2432  0.0508 -0.1745
  128OSM   H15F13765   5.275   2.242   7.934 -0.9910  0.2538  0.3059
  128OSM   H15G13766   5.349   2.388   7.982 -0.3312  0.0746 -0.1244
  128OSM   C16F13767   5.281   2.302   8.156  0.6309  0.3387  1.0751
  128OSM   H16F13768   5.196   2.373   8.145 -0.4066 -1.0591 -0.3974
  128OSM   H16G13769   5.354   2.341   8.230  0.6362 -1.3986  2.0150
  128OSM   C17F13770   5.225   2.170   8.204 -0.4561 -0.3306 -0.2795
  128OSM   H17F13771   5.199   2.106   8.118 -1.7735 -1.3045  0.8005
  128OSM   H17G13772   5.127   2.184   8.254 -0.9687 -0.3466 -1.2515
  128OSM   C18F13773   5.319   2.107   8.305 -0.3441  0.0499  0.6993
  128OSM   H18F13774   5.283   2.008   8.340 -0.0722 -0.1545  0.4067
  128OSM   H18G13775   5.354   2.177   8.383 -1.6780  1.1324  0.3772
  128OSM   H18H13776   5.413   2.091   8.247  0.3655  1.2809  1.4737
  129OSM      N13777   3.496   4.388   5.906  0.1636 -0.5927  0.2967
  129OSM    C1513778   3.644   4.415   5.924 -0.2373  0.0797  0.3310
  129OSM   H15A13779   3.698   4.409   5.831 -1.2139 -0.0534 -0.2469
  129OSM   H15B13780   3.689   4.336   5.982 -0.0672 -0.2399 -0.2276
  129OSM   H15C13781   3.665   4.514   5.961 -3.4083  1.0935 -0.2533
  129OSM    C1413782   3.440   4.491   5.813  0.1680 -0.5242  0.2228
  129OSM   H14A13783   3.496   4.539   5.735 -3.0051  1.2463 -1.1742
  129OSM   H14B13784   3.411   4.569   5.883 -1.0442 -1.3925  0.7323
  129OSM   H14C13785   3.351   4.458   5.761 -1.4836  1.7482  1.4310
  129OSM    C1313786   3.487   4.259   5.828  0.0518  0.5254 -0.1036
  129OSM   H13A13787   3.552   4.264   5.742  0.8235  0.2042  0.4528
  129OSM   H13B13788   3.387   4.243   5.789  0.5829 -1.3907 -0.7894
  129OSM   H13C13789   3.521   4.174   5.884  2.2187 -0.9055 -3.2530
  129OSM    C1213790   3.424   4.370   6.042 -0.0887  0.5810 -0.0926
  129OSM   H12A13791   3.468   4.279   6.080 -0.5640 -0.2800 -1.5093
  129OSM   H12B13792   3.322   4.337   6.026  0.1848 -0.1570 -0.3292
  129OSM    C1113793   3.421   4.491   6.135 -0.6677 -0.2473 -0.2934
  129OSM   H11A13794   3.523   4.534   6.138 -1.7962  2.6526 -0.3984
  129OSM   H11B13795   3.402   4.454   6.238  1.7060 -3.0026 -0.6937
  129OSM      P13796   3.186   4.586   6.094  0.2285  0.1692 -0.6196
  129OSM    O1313797   3.126   4.676   5.990  0.3267  0.3840  0.1002
  129OSM    O1413798   3.146   4.442   6.073 -0.1659  0.0475  0.1893
  129OSM    O1113799   3.153   4.630   6.241  0.3141  0.4039  0.0411
  129OSM    O1213800   3.333   4.597   6.090  0.0053 -1.1343  0.5914
  129OSM    C1S13801   3.220   4.740   6.305 -0.0858  0.2747 -0.3935
  129OSM    H1S13802   3.157   4.829   6.285 -2.9147 -1.4766  0.0128
  129OSM    H1T13803   3.319   4.765   6.262 -0.4744  0.6162 -1.0958
  129OSM     NF13804   3.291   4.848   6.515 -0.4397  0.3271 -0.4138
  129OSM    HNF13805   3.381   4.831   6.554 -0.3678  2.2721  0.4051
  129OSM    C2S13806   3.229   4.728   6.461 -0.4669  0.0296  0.1320
  129OSM    H2S13807   3.126   4.720   6.503 -0.3070  0.7546  0.6717
  129OSM    C3S13808   3.292   4.598   6.512  0.5189  0.8276 -0.1358
  129OSM    H3S13809   3.396   4.583   6.477  0.7389 -0.4246  0.9554
  129OSM     O313810   3.223   4.480   6.465  0.5574  0.1284 -0.4562
  129OSM    HO313811   3.149   4.503   6.409  0.5988 -1.1465 -1.0752
  129OSM    C4S13812   3.288   4.592   6.661  0.1237  0.2003 -0.1363
  129OSM    H4S13813   3.379   4.623   6.715 -2.2530  2.1609  3.0370
  129OSM    C5S13814   3.202   4.534   6.746  0.5395  0.5294  0.1813
  129OSM    H5S13815   3.124   4.469   6.703 -0.4450  1.9870 -0.3084
  129OSM    C6S13816   3.219   4.532   6.894  0.9244  0.3661 -0.6559
  129OSM    H6S13817   3.278   4.439   6.906  0.9904  0.0128 -3.1918
  129OSM    H6T13818   3.123   4.506   6.944  0.4334  0.7286 -1.3874
  129OSM    C7S13819   3.292   4.656   6.960 -0.5483  0.1122 -0.0963
  129OSM    H7S13820   3.265   4.745   6.901  1.3579 -0.4477 -1.9367
  129OSM    H7T13821   3.402   4.641   6.955 -0.6778 -0.8940 -0.3022
  129OSM    C8S13822   3.274   4.676   7.115  0.1519  0.4175 -0.6758
  129OSM    H8S13823   3.315   4.772   7.152 -2.7690  1.2246  0.7369
  129OSM    H8T13824   3.315   4.593   7.176 -0.0873  1.0932  0.4293
  129OSM    C9S13825   3.125   4.686   7.152  0.3202 -0.0823  0.0041
  129OSM    H9S13826   3.077   4.589   7.129 -3.8054  1.7853 -0.1898
  129OSM    H9T13827   3.075   4.761   7.087 -0.7200 -0.5703  0.2199
  129OSM   C10S13828   3.106   4.736   7.292 -0.6935  0.7271  0.2011
  129OSM   H10S13829   3.126   4.845   7.286 -0.0019  0.6741  1.2916
  129OSM   H10T13830   3.180   4.696   7.365 -1.3566  1.3938  1.2652
  129OSM   C11S13831   2.959   4.710   7.346 -0.1025  0.1666 -0.1679
  129OSM   H11S13832   2.955   4.601   7.365 -0.9026  0.3569  0.8123
  129OSM   H11T13833   2.892   4.730   7.259 -0.6907  0.1144  0.2712
  129OSM   C12S13834   2.909   4.792   7.464  0.1183  0.0371 -0.0197
  129OSM   H12S13835   2.804   4.777   7.495  0.2308  1.5352  1.2093
  129OSM   H12T13836   2.927   4.899   7.438 -0.8241  0.8951  2.6050
  129OSM   C13S13837   3.006   4.768   7.580 -0.3508 -0.2420 -0.2418
  129OSM   H13S13838   3.109   4.803   7.559 -0.7059  0.6998 -0.4257
  129OSM   H13T13839   3.020   4.657   7.576 -0.1102 -0.2678  1.1075
  129OSM   C14S13840   2.955   4.830   7.716 -0.3749 -0.4136  0.0487
  129OSM   H14S13841   2.846   4.823   7.733 -0.1046 -3.2210  1.3130
  129OSM   H14T13842   2.996   4.933   7.714 -2.0843  0.3204  1.0394
  129OSM   C15S13843   3.010   4.756   7.835 -0.3756 -0.2981 -0.5551
  129OSM   H15S13844   3.121   4.756   7.825 -0.2439 -1.0143  0.6342
  129OSM   H15T13845   2.965   4.655   7.828 -1.2143 -0.0302  0.6740
  129OSM   C16S13846   2.955   4.826   7.965  0.0729  0.4054  0.0219
  129OSM   H16S13847   2.845   4.813   7.965  0.1755 -0.6049 -1.0411
  129OSM   H16T13848   2.969   4.937   7.968 -1.4860  0.6002  0.7119
  129OSM   C17S13849   3.011   4.777   8.100 -0.3853  0.3626 -0.3397
  129OSM   H17S13850   2.973   4.672   8.095  0.1695  0.1938 -1.2464
  129OSM   H17T13851   2.960   4.839   8.177  1.5946  0.0968  1.2812
  129OSM   C18S13852   3.161   4.766   8.124  0.1269  0.2314  0.3875
  129OSM   H18S13853   3.192   4.865   8.164 -0.3469  0.1170  1.0449
  129OSM   H18T13854   3.226   4.742   8.037 -0.1869  3.9591 -1.0672
  129OSM   H18U13855   3.182   4.688   8.200 -0.2094  0.8611  1.1423
  129OSM    C1F13856   3.266   4.978   6.498  0.4645 -0.6494 -0.3008
  129OSM     OF13857   3.189   5.026   6.422 -0.0347 -0.6160  0.6973
  129OSM    C2F13858   3.353   5.068   6.587 -0.1105  0.4603  0.1233
  129OSM    H2F13859   3.410   5.140   6.524 -0.5908  2.0056  1.3683
  129OSM    H2G13860   3.419   5.004   6.649 -1.9426 -1.5072  0.1432
  129OSM    C3F13861   3.272   5.151   6.687  0.1144 -0.6466 -0.3426
  129OSM    H3F13862   3.199   5.088   6.741  0.6666 -1.5640 -0.6488
  129OSM    H3G13863   3.205   5.225   6.638  1.2673 -1.0131 -2.5766
  129OSM    C4F13864   3.361   5.229   6.787 -0.2884  0.1742 -0.0691
  129OSM    H4F13865   3.310   5.320   6.825  2.3207  2.2634 -1.2554
  129OSM    H4G13866   3.453   5.262   6.735 -1.1252  2.5670 -0.1667
  129OSM    C5F13867   3.382   5.147   6.912  0.0629 -0.7609  0.2478
  129OSM    H5F13868   3.438   5.051   6.907 -0.8658 -1.3182  0.2247
  129OSM    H5G13869   3.284   5.120   6.957 -0.4670 -0.3113 -0.6044
  129OSM    C6F13870   3.456   5.219   7.018 -0.1922 -0.4362  0.1132
  129OSM    H6F13871   3.385   5.286   7.071 -0.3824 -1.6745  1.5057
  129OSM    H6G13872   3.545   5.266   6.971 -0.9215 -1.9353 -2.9648
  129OSM    C7F13873   3.517   5.135   7.133 -0.6825  0.7611 -0.5783
  129OSM    H7F13874   3.605   5.189   7.172 -0.0785 -1.0780  0.7512
  129OSM    H7G13875   3.563   5.051   7.077 -0.8999  0.5043 -0.3752
  129OSM    C8F13876   3.423   5.086   7.252  0.2663 -0.4367  0.0747
  129OSM    H8F13877   3.476   5.013   7.316 -0.6347  0.0687  1.4529
  129OSM    H8G13878   3.332   5.050   7.200 -0.5113  3.1210 -1.3233
  129OSM    C9F13879   3.383   5.203   7.336 -0.4060  0.0979  0.2628
  129OSM    H9F13880   3.409   5.301   7.294  3.3308 -0.5533  0.7470
  129OSM   C10F13881   3.321   5.187   7.450  0.1098  0.1847 -0.1203
  129OSM   H10F13882   3.284   5.279   7.495  0.7287  0.9726 -1.1784
  129OSM   C11F13883   3.281   5.054   7.511  0.3865 -0.9312 -0.6735
  129OSM   H11F13884   3.280   4.971   7.438  3.2065 -1.5038 -0.1951
  129OSM   H11G13885   3.179   5.065   7.553  0.0353  1.3558 -1.9212
  129OSM   C12F13886   3.361   5.021   7.645  0.1216 -0.4265  0.2865
  129OSM   H12F13887   3.472   5.030   7.636  0.1972 -1.4948 -0.0190
  129OSM   H12G13888   3.343   4.913   7.662  0.5867 -0.8731 -1.6965
  129OSM   C13F13889   3.306   5.090   7.768  0.3276  0.4034 -0.5885
  129OSM   H13F13890   3.209   5.038   7.778  0.1787  0.9584  1.2281
  129OSM   H13G13891   3.296   5.200   7.769  1.7605  0.5613 -1.1567
  129OSM   C14F13892   3.385   5.039   7.889 -0.0838 -0.4221 -0.6171
  129OSM   H14F13893   3.495   5.047   7.873  0.0628  0.4026  0.6382
  129OSM   H14G13894   3.358   4.936   7.918  2.0425 -0.3910  1.7546
  129OSM   C15F13895   3.350   5.115   8.022  0.5979 -0.6077 -0.2321
  129OSM   H15F13896   3.250   5.096   8.066  0.2453  1.5519 -0.0082
  129OSM   H15G13897   3.345   5.225   8.008 -1.4358 -0.9268 -2.8320
  129OSM   C16F13898   3.459   5.096   8.129 -0.3562  0.6981  0.6181
  129OSM   H16F13899   3.559   5.119   8.086 -1.3013  2.1129 -0.9215
  129OSM   H16G13900   3.456   4.988   8.154 -1.9342  0.6465  0.2910
  129OSM   C17F13901   3.434   5.189   8.253 -0.0012 -0.1332  0.9212
  129OSM   H17F13902   3.343   5.157   8.309 -0.0139 -0.0853  0.9280
  129OSM   H17G13903   3.409   5.289   8.213  1.0094 -0.5553 -0.8760
  129OSM   C18F13904   3.553   5.203   8.342 -0.5489  0.5093  0.1737
  129OSM   H18F13905   3.647   5.207   8.284  0.0237  2.3720  1.1555
  129OSM   H18G13906   3.556   5.123   8.419 -0.5953  0.1459 -0.1988
  129OSM   H18H13907   3.562   5.298   8.398  1.1886  0.4262  0.0928
  130OSM      N13908   4.973   1.072   6.053 -0.3223 -0.3000 -0.1232
  130OSM    C1513909   4.932   1.153   6.169 -0.6889 -0.5324 -0.4835
  130OSM   H15A13910   4.986   1.247   6.178 -0.9194 -0.1313 -2.6944
  130OSM   H15B13911   4.940   1.089   6.255  0.5020  1.2571  0.8069
  130OSM   H15C13912   4.828   1.181   6.172 -0.6017 -0.1331 -0.9584
  130OSM    C1413913   4.930   1.144   5.929  0.1451  0.2689 -0.6483
  130OSM   H14A13914   4.979   1.241   5.928  3.8252 -1.4029 -2.1652
  130OSM   H14B13915   4.824   1.149   5.908  0.2935  0.2420 -1.4436
  130OSM   H14C13916   4.968   1.101   5.838 -2.8175  0.7118 -2.2178
  130OSM    C1313917   5.120   1.058   6.047 -0.5910  0.0582 -0.4533
  130OSM   H13A13918   5.148   0.986   5.972 -1.9031  1.0881 -2.0129
  130OSM   H13B13919   5.154   1.025   6.144  1.5904  0.5767 -0.9839
  130OSM   H13C13920   5.170   1.153   6.031  0.5748  0.0736  2.6368
  130OSM    C1213921   4.909   0.934   6.053 -0.2583  0.0293  0.7494
  130OSM   H12A13922   4.956   0.883   6.136 -1.8274  0.6156  2.0710
  130OSM   H12B13923   4.928   0.882   5.961  2.1603  0.6631  0.8376
  130OSM    C1113924   4.767   0.923   6.091 -0.2074  0.6694  0.3501
  130OSM   H11A13925   4.712   0.964   6.004 -0.7374 -0.5459  0.0899
  130OSM   H11B13926   4.741   0.982   6.182 -1.1516  1.6833 -0.5489
  130OSM      P13927   4.771   0.682   6.199  0.0707  0.1436  0.1640
  130OSM    O1313928   4.675   0.569   6.198 -0.3332  0.0939  0.3597
  130OSM    O1413929   4.907   0.650   6.168  0.1920  0.1047  0.0116
  130OSM    O1113930   4.760   0.755   6.332  0.7533  0.1287  0.1841
  130OSM    O1213931   4.729   0.786   6.091  0.1414 -0.4693 -0.0851
  130OSM    C1S13932   4.630   0.764   6.395 -0.4183 -1.0732  0.7837
  130OSM    H1S13933   4.559   0.682   6.374 -2.3252  0.7217 -0.0709
  130OSM    H1T13934   4.565   0.844   6.354  0.5197  0.0464  1.3837
  130OSM     NF13935   4.517   0.772   6.610 -0.4833 -0.3403 -0.9788
  130OSM    HNF13936   4.468   0.856   6.632 -2.4951 -2.1667  2.3560
  130OSM    C2S13937   4.644   0.785   6.547 -0.0537  0.5918  0.2432
  130OSM    H2S13938   4.697   0.692   6.577 -0.9206 -0.1520 -0.4907
  130OSM    C3S13939   4.715   0.910   6.591  0.1275  0.6017  0.5139
  130OSM    H3S13940   4.653   1.001   6.574  1.0338  1.0446 -0.5590
  130OSM     O313941   4.831   0.938   6.513  0.6619 -0.3882 -0.0351
  130OSM    HO313942   4.824   0.868   6.447 -2.5799 -0.0773 -0.1608
  130OSM    C4S13943   4.760   0.901   6.734 -0.1381 -0.4491 -0.0746
  130OSM    H4S13944   4.852   0.843   6.753  1.0844  1.3933 -0.1430
  130OSM    C5S13945   4.704   0.976   6.833 -0.4897  0.2510  1.4344
  130OSM    H5S13946   4.627   1.051   6.810 -0.9939 -0.5774  0.3944
  130OSM    C6S13947   4.739   0.972   6.981  0.4729  0.0756  0.5768
  130OSM    H6S13948   4.787   0.879   7.018 -0.8614 -0.3450  1.3555
  130OSM    H6T13949   4.640   0.974   7.033 -0.2756 -0.3861 -0.7805
  130OSM    C7S13950   4.818   1.099   7.036 -0.3166  0.7937  0.3263
  130OSM    H7S13951   4.801   1.189   6.973  0.9908 -0.5969 -2.1815
  130OSM    H7T13952   4.928   1.080   7.033 -0.3366  0.7073 -2.0353
  130OSM    C8S13953   4.798   1.138   7.185 -0.5618  0.0379 -0.0720
  130OSM    H8S13954   4.700   1.187   7.198 -0.3833  0.0046  1.5804
  130OSM    H8T13955   4.874   1.218   7.199 -0.2736 -0.2388 -0.0423
  130OSM    C9S13956   4.824   1.031   7.288 -0.7846  0.0470  0.0514
  130OSM    H9S13957   4.934   1.020   7.292 -0.5148  2.6847  1.5918
  130OSM    H9T13958   4.766   0.939   7.263  0.6590 -0.6741 -0.7591
  130OSM   C10S13959   4.772   1.067   7.432 -0.2656 -0.9508  0.8851
  130OSM   H10S13960   4.662   1.055   7.437 -0.5121  1.2273  1.6834
  130OSM   H10T13961   4.796   1.174   7.450  1.3289 -1.0804 -0.2392
  130OSM   C11S13962   4.832   0.976   7.544  0.3869 -0.5244  0.2980
  130OSM   H11S13963   4.933   1.010   7.576 -0.8012  1.6896  1.9323
  130OSM   H11T13964   4.838   0.874   7.501 -0.1875 -0.4148 -0.0616
  130OSM   C12S13965   4.737   0.974   7.668 -0.2901  0.6561 -0.5515
  130OSM   H12S13966   4.706   0.869   7.683  0.0495  0.2618 -2.3857
  130OSM   H12T13967   4.640   1.021   7.641  0.1063  0.2833 -2.8589
  130OSM   C13S13968   4.795   1.025   7.799  0.3247 -0.1099 -0.5319
  130OSM   H13S13969   4.839   1.127   7.785 -1.8049  1.1166  1.0871
  130OSM   H13T13970   4.874   0.958   7.839  0.7647 -0.2564 -1.5981
  130OSM   C14S13971   4.685   1.060   7.902 -0.2179 -0.1856  0.0910
  130OSM   H14S13972   4.633   0.970   7.939  0.2088  0.1021  1.4614
  130OSM   H14T13973   4.609   1.126   7.855  1.2966 -0.0858 -2.3846
  130OSM   C15S13974   4.758   1.120   8.028  0.0062  0.0564 -0.6218
  130OSM   H15S13975   4.799   1.217   7.992 -1.9069  1.0777 -0.1904
  130OSM   H15T13976   4.842   1.053   8.055 -0.6104 -1.3280 -1.9781
  130OSM   C16S13977   4.661   1.138   8.146 -0.1412  0.2240 -0.0310
  130OSM   H16S13978   4.593   1.221   8.117  0.9928  1.4424  0.6648
  130OSM   H16T13979   4.724   1.177   8.230 -1.3490 -1.5363  1.7826
  130OSM   C17S13980   4.587   1.014   8.203 -0.3230  0.4911  0.1081
  130OSM   H17S13981   4.537   0.978   8.110  2.4813  0.0889 -1.3596
  130OSM   H17T13982   4.513   1.054   8.275 -0.6751  1.5680 -0.8031
  130OSM   C18S13983   4.678   0.913   8.263  1.0457 -0.0307 -0.3775
  130OSM   H18S13984   4.748   0.874   8.185 -1.0103 -1.2921 -1.6756
  130OSM   H18T13985   4.628   0.825   8.308 -1.7501  1.1067 -1.0250
  130OSM   H18U13986   4.742   0.958   8.343  0.4351  0.4205 -0.1371
  130OSM    C1F13987   4.447   0.658   6.624  0.2201 -0.3082 -0.0345
  130OSM     OF13988   4.495   0.554   6.583  0.1865  0.5690  0.4579
  130OSM    C2F13989   4.305   0.669   6.686 -0.0800  0.2806  0.0578
  130OSM    H2F13990   4.236   0.657   6.600  0.3832  2.4870 -0.6897
  130OSM    H2G13991   4.298   0.773   6.724 -2.8574 -0.0207  0.5995
  130OSM    C3F13992   4.272   0.563   6.795  0.2315  0.1904 -0.5731
  130OSM    H3F13993   4.258   0.460   6.755 -0.3460 -0.3070  0.8411
  130OSM    H3G13994   4.170   0.587   6.832  1.0533  0.1921  1.8833
  130OSM    C4F13995   4.365   0.568   6.918 -0.5763  0.3524  0.4287
  130OSM    H4F13996   4.472   0.572   6.889 -0.5000 -1.3122  0.3788
  130OSM    H4G13997   4.358   0.471   6.971  3.6914 -1.1222 -1.3329
  130OSM    C5F13998   4.340   0.681   7.021  0.4538  0.7158  0.0290
  130OSM    H5F13999   4.237   0.663   7.059  0.4208 -2.0248 -1.1601
  130OSM    H5G14000   4.340   0.778   6.967 -0.6259  1.2751  0.9747
  130OSM    C6F14001   4.448   0.692   7.131 -0.3965  0.2706 -0.4856
  130OSM    H6F14002   4.421   0.789   7.177  1.4844  0.8935 -0.6221
  130OSM    H6G14003   4.545   0.700   7.077 -0.5956  0.3373 -0.8357
  130OSM    C7F14004   4.445   0.580   7.236  0.3237  0.2153  0.3546
  130OSM    H7F14005   4.445   0.481   7.184  1.5647  0.0248  0.6678
  130OSM    H7G14006   4.347   0.588   7.287 -0.0272 -0.2357 -0.2406
  130OSM    C8F14007   4.563   0.597   7.330  0.8797  0.2250 -0.7858
  130OSM    H8F14008   4.662   0.592   7.280  1.2651 -1.1102  0.0393
  130OSM    H8G14009   4.559   0.502   7.388 -0.9751  0.3661 -0.6408
  130OSM    C9F14010   4.541   0.712   7.425 -0.0803 -0.4974  0.1557
  130OSM    H9F14011   4.540   0.814   7.383  0.5514 -0.4392  0.2752
  130OSM   C10F14012   4.519   0.696   7.556  0.0052  0.0232  0.0206
  130OSM   H10F14013   4.505   0.791   7.608  1.2815  0.6552 -0.7308
  130OSM   C11F14014   4.517   0.573   7.637  0.6860 -0.3401 -0.4979
  130OSM   H11F14015   4.597   0.499   7.615 -0.8409 -1.9297 -0.9173
  130OSM   H11G14016   4.428   0.512   7.613  1.3118 -0.5977 -2.3144
  130OSM   C12F14017   4.516   0.601   7.787 -0.0935 -0.2701  0.2884
  130OSM   H12F14018   4.468   0.510   7.831 -0.3476 -0.8101 -1.0547
  130OSM   H12G14019   4.449   0.688   7.802 -0.0162  0.2201 -1.9667
  130OSM   C13F14020   4.647   0.616   7.865  0.7201 -0.3279 -0.4807
  130OSM   H13F14021   4.708   0.702   7.829  1.5471 -0.0884  1.3900
  130OSM   H13G14022   4.713   0.531   7.836 -0.4318 -0.7842 -1.9288
  130OSM   C14F14023   4.617   0.621   8.016  0.2445  0.1152 -0.3487
  130OSM   H14F14024   4.523   0.562   8.028  0.2492 -0.1809 -1.6682
  130OSM   H14G14025   4.603   0.727   8.043  0.8544  0.1391 -0.1151
  130OSM   C15F14026   4.721   0.556   8.100 -0.2483  0.2558 -0.5007
  130OSM   H15F14027   4.813   0.609   8.067 -0.0640 -0.9325 -2.0063
  130OSM   H15G14028   4.734   0.454   8.059 -0.3232 -0.2630  0.7067
  130OSM   C16F14029   4.699   0.563   8.247 -0.5656  1.2816 -0.2685
  130OSM   H16F14030   4.615   0.624   8.287 -1.1590 -0.9506  2.1660
  130OSM   H16G14031   4.798   0.582   8.295  0.0228 -1.4683 -0.2333
  130OSM   C17F14032   4.673   0.415   8.301 -0.1082 -0.0260 -0.3880
  130OSM   H17F14033   4.758   0.358   8.257 -1.1807 -0.4976 -1.9045
  130OSM   H17G14034   4.587   0.363   8.256  0.7074 -1.6448 -0.1514
  130OSM   C18F14035   4.673   0.405   8.456 -0.8284 -0.0094 -0.3644
  130OSM   H18F14036   4.661   0.297   8.481  0.2007 -0.2897 -1.0185
  130OSM   H18G14037   4.607   0.477   8.509  0.0245  1.0305 -0.6867
  130OSM   H18H14038   4.780   0.421   8.485 -0.6151 -0.5798 -0.8208
  131OSM      N14039   5.674   6.384   5.720  0.1395 -0.1187  0.1024
  131OSM    C1514040   5.687   6.490   5.616  0.2276  0.2525  0.1681
  131OSM   H15A14041   5.781   6.542   5.622  0.3712  0.0045  0.0772
  131OSM   H15B14042   5.609   6.563   5.632  0.8494  0.5586  2.1013
  131OSM   H15C14043   5.677   6.445   5.519 -1.0181  0.0524  0.3716
  131OSM    C1414044   5.787   6.283   5.709  0.2899  0.0395 -0.6178
  131OSM   H14A14045   5.791   6.227   5.801 -1.4251  0.2360 -0.3804
  131OSM   H14B14046   5.886   6.324   5.702  0.4418 -0.1359  0.4197
  131OSM   H14C14047   5.770   6.220   5.623  2.6813 -0.6906 -0.6244
  131OSM    C1314048   5.693   6.453   5.852  0.0827 -0.3054  0.0941
  131OSM   H13A14049   5.625   6.535   5.870 -0.0490 -0.5296  0.6654
  131OSM   H13B14050   5.792   6.494   5.862 -0.1211  0.1656  0.1989
  131OSM   H13C14051   5.683   6.376   5.928 -0.2380 -1.9067 -1.5129
  131OSM    C1214052   5.536   6.312   5.704  0.0577  0.3524 -1.3962
  131OSM   H12A14053   5.537   6.266   5.607  1.0444 -0.4539 -1.0200
  131OSM   H12B14054   5.454   6.382   5.700 -0.1099  0.1407 -1.7245
  131OSM    C1114055   5.500   6.190   5.798 -0.6891  0.8649 -0.3023
  131OSM   H11A14056   5.572   6.107   5.780 -2.1018 -0.1295 -1.5462
  131OSM   H11B14057   5.401   6.152   5.766 -1.1106  0.5163  1.3092
  131OSM      P14058   5.514   6.141   6.064 -0.2095  0.4495 -0.1922
  131OSM    O1314059   5.441   6.014   6.051  0.1064 -0.1028  0.5284
  131OSM    O1414060   5.660   6.132   6.088 -0.0352 -0.2375 -0.2632
  131OSM    O1114061   5.461   6.224   6.182 -0.1976 -0.5211  0.0698
  131OSM    O1214062   5.485   6.236   5.934 -0.3258 -0.1778  0.4380
  131OSM    C1S14063   5.400   6.151   6.286  1.3217 -0.2733  0.1129
  131OSM    H1S14064   5.442   6.050   6.303  1.2218  0.0600  2.7095
  131OSM    H1T14065   5.292   6.138   6.261  0.8254 -0.7636  2.2924
  131OSM     NF14066   5.366   6.171   6.532 -0.7698  0.0222  0.4955
  131OSM    HNF14067   5.268   6.157   6.548 -0.8464 -0.2594 -0.1728
  131OSM    C2S14068   5.405   6.248   6.415 -0.4655  0.9719  0.1792
  131OSM    H2S14069   5.510   6.275   6.440 -0.9711  2.1715  1.0785
  131OSM    C3S14070   5.330   6.382   6.395 -0.2457 -0.3381  0.0511
  131OSM    H3S14071   5.222   6.366   6.374 -0.0201 -0.8344 -0.7572
  131OSM     O314072   5.365   6.464   6.282 -0.0283 -0.8122 -0.1769
  131OSM    HO314073   5.405   6.397   6.226  0.2001 -1.1403  0.3721
  131OSM    C4S14074   5.348   6.473   6.513  0.6475 -0.0338 -0.2848
  131OSM    H4S14075   5.446   6.523   6.515  0.6841 -0.1385  1.3302
  131OSM    C5S14076   5.244   6.496   6.600 -0.1281 -0.0283  0.2559
  131OSM    H5S14077   5.143   6.462   6.572 -0.0527  0.5628 -0.7869
  131OSM    C6S14078   5.254   6.578   6.726 -0.7303  0.7575 -0.2850
  131OSM    H6S14079   5.208   6.509   6.800 -2.1049 -0.7896 -2.4465
  131OSM    H6T14080   5.193   6.670   6.719 -1.9331 -0.0557 -0.7850
  131OSM    C7S14081   5.403   6.595   6.769  0.2951 -0.6036  0.7897
  131OSM    H7S14082   5.455   6.659   6.695  0.0970 -0.9464  0.3491
  131OSM    H7T14083   5.449   6.495   6.782  1.1661  0.0535  3.3969
  131OSM    C8S14084   5.421   6.656   6.910  0.2857 -0.2265 -0.8206
  131OSM    H8S14085   5.364   6.751   6.924 -1.9488 -1.3273 -1.8478
  131OSM    H8T14086   5.525   6.669   6.946  0.0063 -2.8679  1.2347
  131OSM    C9S14087   5.360   6.564   7.022  0.2432  0.8183  0.2748
  131OSM    H9S14088   5.401   6.461   7.015  1.0669  1.2360 -1.7960
  131OSM    H9T14089   5.250   6.561   7.007 -0.0868 -1.4884  2.4391
  131OSM   C10S14090   5.384   6.630   7.165  0.5216  0.0106  0.1792
  131OSM   H10S14091   5.333   6.728   7.174 -0.8434 -0.7367  1.0686
  131OSM   H10T14092   5.491   6.637   7.192  0.4784 -0.9402  0.6310
  131OSM   C11S14093   5.317   6.533   7.260  0.8775  0.5081  0.2523
  131OSM   H11S14094   5.361   6.432   7.247 -4.3050 -2.2540  1.3644
  131OSM   H11T14095   5.210   6.525   7.232  0.8797  0.2039  0.3359
  131OSM   C12S14096   5.341   6.586   7.403  0.1517  0.7322 -0.2107
  131OSM   H12S14097   5.298   6.683   7.435 -0.1245  0.8693 -0.9587
  131OSM   H12T14098   5.450   6.596   7.419  0.0368 -0.5913  1.7546
  131OSM   C13S14099   5.299   6.477   7.502 -0.2635  0.0259  0.2425
  131OSM   H13S14100   5.344   6.380   7.471 -1.0917 -0.8914  1.8151
  131OSM   H13T14101   5.190   6.464   7.485  0.0469  0.9420 -3.4554
  131OSM   C14S14102   5.338   6.504   7.641 -0.1480 -0.4637  0.5240
  131OSM   H14S14103   5.291   6.599   7.676 -0.9961 -0.2128 -1.1823
  131OSM   H14T14104   5.446   6.525   7.652 -0.5914  1.6977  1.2262
  131OSM   C15S14105   5.308   6.382   7.734  0.1435 -0.6274  0.1908
  131OSM   H15S14106   5.381   6.301   7.712 -1.3145 -1.7639 -0.6832
  131OSM   H15T14107   5.207   6.344   7.707 -0.2091  0.2511  0.2690
  131OSM   C16S14108   5.304   6.415   7.882  0.8627 -0.3033 -0.5763
  131OSM   H16S14109   5.224   6.489   7.903  0.2757 -1.3764  1.1271
  131OSM   H16T14110   5.401   6.468   7.893 -0.2963  2.2575 -1.9200
  131OSM   C17S14111   5.300   6.299   7.977  0.0907  0.2959 -0.3463
  131OSM   H17S14112   5.337   6.330   8.077 -0.8076 -1.4425  0.5774
  131OSM   H17T14113   5.379   6.232   7.939  1.7678  3.1114 -2.1510
  131OSM   C18S14114   5.171   6.217   7.981 -0.3333 -0.2273 -0.5328
  131OSM   H18S14115   5.078   6.275   7.998  0.1399  0.1864  0.7333
  131OSM   H18T14116   5.170   6.130   8.049  0.1096 -0.3797 -0.7144
  131OSM   H18U14117   5.152   6.177   7.879 -1.7402  1.2363 -0.8863
  131OSM    C1F14118   5.451   6.071   6.578  0.7171  0.0903 -0.4587
  131OSM     OF14119   5.565   6.051   6.529 -0.1056  0.0029  0.3711
  131OSM    C2F14120   5.392   5.971   6.679 -0.0643 -0.9807 -0.3846
  131OSM    H2F14121   5.474   5.905   6.714  1.5651  1.1193  0.0313
  131OSM    H2G14122   5.316   5.905   6.633  0.0799 -2.0536  0.8582
  131OSM    C3F14123   5.341   6.047   6.803  0.2138 -0.8293 -0.6129
  131OSM    H3F14124   5.305   5.982   6.885 -1.5207  0.2305 -0.4900
  131OSM    H3G14125   5.258   6.116   6.776  1.5667  0.9986 -0.3129
  131OSM    C4F14126   5.440   6.138   6.879 -1.0101  0.6156 -0.0929
  131OSM    H4F14127   5.475   6.222   6.816  0.1362  0.3606  0.1816
  131OSM    H4G14128   5.529   6.085   6.918 -1.9956  0.5568  2.2687
  131OSM    C5F14129   5.378   6.195   7.016  0.3709  0.0320  0.1473
  131OSM    H5F14130   5.296   6.266   6.992  1.4970  1.1645 -0.4608
  131OSM    H5G14131   5.456   6.257   7.065 -1.5640  0.3999  2.9681
  131OSM    C6F14132   5.346   6.092   7.125  1.3401 -0.1334  0.0443
  131OSM    H6F14133   5.430   6.022   7.141 -0.0507 -1.7665  0.4658
  131OSM    H6G14134   5.261   6.029   7.092  1.2636 -0.2338  0.4276
  131OSM    C7F14135   5.302   6.161   7.254  0.5512 -0.2233  0.0419
  131OSM    H7F14136   5.213   6.219   7.219 -0.0858 -1.0214  0.3075
  131OSM    H7G14137   5.384   6.232   7.278 -0.8426  0.8965  1.8870
  131OSM    C8F14138   5.277   6.055   7.361  0.6163 -0.3073 -0.2450
  131OSM    H8F14139   5.218   5.976   7.310  0.4517 -1.2399  1.3098
  131OSM    H8G14140   5.209   6.101   7.436  1.2469  0.3641 -0.0809
  131OSM    C9F14141   5.397   5.993   7.423 -0.0026  0.1111 -0.9801
  131OSM    H9F14142   5.466   5.953   7.347 -0.3435  0.3969 -1.4456
  131OSM   C10F14143   5.424   5.981   7.555  0.3656  0.6562 -0.2801
  131OSM   H10F14144   5.521   5.944   7.593 -0.4859  0.3709  1.7230
  131OSM   C11F14145   5.336   6.021   7.669 -0.0829 -1.2667  0.4828
  131OSM   H11F14146   5.256   6.087   7.629  1.4580  0.4474  0.0382
  131OSM   H11G14147   5.397   6.092   7.729  0.4334 -0.0787 -1.3456
  131OSM   C12F14148   5.267   5.914   7.763 -0.1614 -0.2348  0.2130
  131OSM   H12F14149   5.203   5.859   7.690 -0.4014 -0.1622  0.3710
  131OSM   H12G14150   5.207   5.965   7.841  0.9983  0.0604  0.9400
  131OSM   C13F14151   5.374   5.830   7.833  0.9707  0.1552  0.0953
  131OSM   H13F14152   5.434   5.884   7.909  1.4650  0.2991 -0.3933
  131OSM   H13G14153   5.451   5.793   7.762  1.9428  2.8065 -0.3482
  131OSM   C14F14154   5.306   5.712   7.900 -0.0322  0.7094  0.4040
  131OSM   H14F14155   5.394   5.652   7.931  0.8608  0.6335 -2.0652
  131OSM   H14G14156   5.272   5.651   7.813  0.4015 -1.3564  1.6103
  131OSM   C15F14157   5.204   5.738   8.010  0.5546 -0.2702  0.2736
  131OSM   H15F14158   5.116   5.784   7.961  0.0414 -0.2331  1.2020
  131OSM   H15G14159   5.249   5.816   8.076 -0.2317  0.1222  0.3609
  131OSM   C16F14160   5.183   5.615   8.095  0.0330  0.2295  0.4005
  131OSM   H16F14161   5.289   5.587   8.115  0.5677  0.6597 -1.6430
  131OSM   H16G14162   5.136   5.534   8.037 -0.5968 -0.2374  1.5249
  131OSM   C17F14163   5.090   5.648   8.215 -0.2417  0.7254 -0.5133
  131OSM   H17F14164   5.134   5.730   8.275 -0.2398  0.8845 -0.7315
  131OSM   H17G14165   5.088   5.562   8.286  0.4121  1.4593  0.4217
  131OSM   C18F14166   4.939   5.683   8.177 -0.5883 -0.0551 -0.3731
  131OSM   H18F14167   4.886   5.701   8.272 -1.5372 -1.3499 -0.6161
  131OSM   H18G14168   4.888   5.593   8.134 -0.6619 -0.3342  0.2910
  131OSM   H18H14169   4.939   5.773   8.112 -0.2005 -0.8586 -1.5224
  132OSM      N14170   6.285   3.230   6.259  0.2105  0.2146 -0.2170
  132OSM    C1514171   6.360   3.258   6.135  0.4452  0.3441 -0.5024
  132OSM   H15A14172   6.311   3.218   6.048  1.4118 -2.6457  0.2083
  132OSM   H15B14173   6.460   3.218   6.140  0.3284 -0.0877 -1.4370
  132OSM   H15C14174   6.365   3.363   6.111 -1.6233  0.9307  1.2888
  132OSM    C1414175   6.346   3.323   6.363 -0.2855 -0.6136  0.3399
  132OSM   H14A14176   6.291   3.326   6.456 -3.3054 -1.9619 -1.2541
  132OSM   H14B14177   6.352   3.427   6.333  0.7658 -0.5406  0.7848
  132OSM   H14C14178   6.442   3.283   6.389  0.0481 -0.2781 -0.3472
  132OSM    C1314179   6.142   3.275   6.245 -0.5040 -0.2968 -0.2491
  132OSM   H13A14180   6.095   3.205   6.177  0.9077 -2.0957  0.5490
  132OSM   H13B14181   6.145   3.376   6.208  2.0745 -0.4263 -0.5114
  132OSM   H13C14182   6.098   3.277   6.343 -0.3939  1.3136 -0.2031
  132OSM    C1214183   6.291   3.083   6.309 -0.0480  0.0357  0.7862
  132OSM   H12A14184   6.247   3.025   6.230 -0.3434  0.6736  0.4769
  132OSM   H12B14185   6.226   3.070   6.394 -0.0868  0.0904  0.7651
  132OSM    C1114186   6.430   3.022   6.346  0.7383 -0.1877  0.1884
  132OSM   H11A14187   6.410   2.917   6.379  0.0139 -0.1503 -0.1207
  132OSM   H11B14188   6.460   3.086   6.432 -2.2891  1.5852  0.0835
  132OSM      P14189   6.663   2.962   6.277 -0.2653 -0.0944  0.0207
  132OSM    O1314190   6.694   2.880   6.158 -1.0574 -0.0345 -0.8156
  132OSM    O1414191   6.765   3.057   6.318 -0.2471 -0.3718 -0.3294
  132OSM    O1114192   6.632   2.868   6.399  0.3324  0.2006  0.3718
  132OSM    O1214193   6.529   3.035   6.245  0.0462  0.3983 -0.0279
  132OSM    C1S14194   6.719   2.753   6.433 -0.2824  0.5023  0.1274
  132OSM    H1S14195   6.816   2.761   6.378 -1.2094  1.4353 -1.4683
  132OSM    H1T14196   6.678   2.654   6.407  0.8057 -0.1928  0.9544
  132OSM     NF14197   6.834   2.636   6.611  0.1675  0.2954  0.7584
  132OSM    HNF14198   6.801   2.554   6.656 -1.2001  0.5856  0.3350
  132OSM    C2S14199   6.746   2.752   6.588  0.1539  0.5027 -0.5914
  132OSM    H2S14200   6.803   2.842   6.622  0.9687 -0.6666  1.3545
  132OSM    C3S14201   6.609   2.747   6.666 -0.5845 -0.1631  0.2147
  132OSM    H3S14202   6.563   2.648   6.651 -0.6996 -0.6471  3.1988
  132OSM     O314203   6.511   2.850   6.637 -0.5812  0.6521 -0.6203
  132OSM    HO314204   6.544   2.877   6.551  1.3871 -2.1176 -0.8697
  132OSM    C4S14205   6.653   2.742   6.817 -0.4014 -0.4766  0.2953
  132OSM    H4S14206   6.683   2.638   6.838  1.5756  0.0396  0.2428
  132OSM    C5S14207   6.687   2.839   6.909  0.0361 -0.5113 -0.0841
  132OSM    H5S14208   6.696   2.942   6.871 -0.1378 -0.5551 -0.2424
  132OSM    C6S14209   6.739   2.812   7.040 -0.5010 -0.8563  0.0142
  132OSM    H6S14210   6.737   2.904   7.103  0.4548  3.9763 -5.9912
  132OSM    H6T14211   6.845   2.779   7.032  0.0350  0.6652  0.4025
  132OSM    C7S14212   6.656   2.705   7.115  0.0423  0.3463  0.5032
  132OSM    H7S14213   6.666   2.613   7.053  3.5933  0.8863  0.1208
  132OSM    H7T14214   6.548   2.729   7.104 -0.4719 -1.6952  0.5210
  132OSM    C8S14215   6.693   2.679   7.261  0.3541 -0.0130  0.5611
  132OSM    H8S14216   6.801   2.656   7.248 -0.3995 -2.7802 -1.9434
  132OSM    H8T14217   6.651   2.586   7.305 -0.8320  0.6379  0.8454
  132OSM    C9S14218   6.656   2.789   7.360 -0.8979  0.4547  0.3959
  132OSM    H9S14219   6.550   2.810   7.338 -2.5399 -2.4451  4.4495
  132OSM    H9T14220   6.733   2.866   7.339 -0.1517 -0.3141  0.2004
  132OSM   C10S14221   6.674   2.752   7.507  0.9196  0.1724 -0.7009
  132OSM   H10S14222   6.766   2.793   7.554  0.1987  0.8292  0.1800
  132OSM   H10T14223   6.679   2.642   7.522  0.0933 -0.0057 -1.6163
  132OSM   C11S14224   6.557   2.804   7.592 -0.3508 -0.1205 -0.5779
  132OSM   H11S14225   6.472   2.732   7.592  0.5989 -1.4206  2.5776
  132OSM   H11T14226   6.518   2.896   7.544  0.0627  2.6116  3.7642
  132OSM   C12S14227   6.595   2.848   7.742 -0.0578  0.1739  1.0012
  132OSM   H12S14228   6.670   2.928   7.722  1.0841 -0.4813  2.4178
  132OSM   H12T14229   6.657   2.768   7.787  1.1113  0.1783 -0.5163
  132OSM   C13S14230   6.491   2.891   7.839  1.1369  0.3697  0.0640
  132OSM   H13S14231   6.433   2.806   7.881  0.4733  1.4253  1.4226
  132OSM   H13T14232   6.419   2.944   7.774 -1.8584 -3.0043  0.3405
  132OSM   C14S14233   6.537   2.976   7.951 -0.1512  0.1408  0.0796
  132OSM   H14S14234   6.582   3.071   7.913 -3.8046  1.4399 -1.5140
  132OSM   H14T14235   6.623   2.920   7.994  0.1569  1.2852  1.0226
  132OSM   C15S14236   6.441   3.018   8.060  0.5379  0.7508 -0.7637
  132OSM   H15S14237   6.392   2.930   8.107  1.2397  1.4023  1.3029
  132OSM   H15T14238   6.362   3.082   8.014 -0.1350 -0.1507 -0.8907
  132OSM   C16S14239   6.497   3.092   8.184  0.9719  0.3024  0.7315
  132OSM   H16S14240   6.545   3.184   8.143  0.3069  0.5862  0.5814
  132OSM   H16T14241   6.567   3.024   8.238 -0.8776 -3.0046 -0.7481
  132OSM   C17S14242   6.386   3.146   8.276  0.1642  0.5475  0.3242
  132OSM   H17S14243   6.339   3.056   8.320 -0.9095  1.1316  0.4010
  132OSM   H17T14244   6.305   3.205   8.228  1.3050  1.6330 -0.3581
  132OSM   C18S14245   6.448   3.229   8.394  0.0043 -0.1228  0.0785
  132OSM   H18S14246   6.476   3.328   8.354 -0.8113 -0.3041 -1.0180
  132OSM   H18T14247   6.533   3.170   8.435  0.5602  0.7454  0.1816
  132OSM   H18U14248   6.366   3.239   8.468  0.6857  1.1734  0.6848
  132OSM    C1F14249   6.960   2.638   6.573 -0.1866 -0.4247  0.3889
  132OSM     OF14250   7.009   2.741   6.525  0.4290 -0.0534  0.1989
  132OSM    C2F14251   7.042   2.509   6.568 -0.3406 -0.6840  0.3957
  132OSM    H2F14252   7.052   2.481   6.461 -1.8031  2.1668 -0.5763
  132OSM    H2G14253   6.994   2.425   6.622 -0.7057 -0.4785  0.3947
  132OSM    C3F14254   7.187   2.536   6.605  0.1306 -0.4247  0.2350
  132OSM    H3F14255   7.243   2.612   6.546  1.3102 -1.4176  0.0243
  132OSM    H3G14256   7.242   2.445   6.573 -0.8565 -0.9142 -0.1138
  132OSM    C4F14257   7.225   2.534   6.758  0.5884  0.8572 -0.2658
  132OSM    H4F14258   7.330   2.500   6.773 -0.2912 -1.7450  0.4439
  132OSM    H4G14259   7.159   2.460   6.807 -0.5144  1.9126 -0.1270
  132OSM    C5F14260   7.182   2.653   6.846 -0.7460 -0.4609 -1.2973
  132OSM    H5F14261   7.211   2.640   6.952 -1.7924  2.2213 -0.6121
  132OSM    H5G14262   7.071   2.651   6.845 -0.7706  0.0816 -0.5887
  132OSM    C6F14263   7.237   2.789   6.797 -0.4617 -0.0792  0.2785
  132OSM    H6F14264   7.187   2.836   6.710  0.4696  0.7378  0.1628
  132OSM    H6G14265   7.341   2.770   6.764 -0.3519 -1.5081  1.3551
  132OSM    C7F14266   7.251   2.902   6.906 -0.3534 -0.5157 -0.1961
  132OSM    H7F14267   7.336   2.967   6.877 -0.7125  2.0921  3.8131
  132OSM    H7G14268   7.278   2.847   6.998 -0.0842  0.5561  0.3693
  132OSM    C8F14269   7.125   2.995   6.914 -0.6156 -0.4483  0.5098
  132OSM    H8F14270   7.043   2.932   6.954 -1.0771  1.2709  2.4710
  132OSM    H8G14271   7.090   3.039   6.818  0.2915  2.2351  1.3086
  132OSM    C9F14272   7.144   3.095   7.026  0.7828  0.1638 -0.2033
  132OSM    H9F14273   7.214   3.177   7.004  2.0408 -0.7161  0.4235
  132OSM   C10F14274   7.088   3.090   7.148 -0.7031  0.1225 -0.3060
  132OSM   H10F14275   7.107   3.178   7.210 -1.2231 -0.2780  0.4332
  132OSM   C11F14276   7.001   2.978   7.212  0.1861  0.3218  0.4899
  132OSM   H11F14277   7.011   2.882   7.157  0.6985  1.1871 -0.9833
  132OSM   H11G14278   6.898   3.018   7.214 -0.8036 -2.0860  0.9459
  132OSM   C12F14279   7.033   2.937   7.354 -0.7006 -0.1333  0.3828
  132OSM   H12F14280   7.140   2.913   7.372 -0.5036  0.8083  0.4913
  132OSM   H12G14281   6.983   2.840   7.374 -0.7924 -0.0520  0.5487
  132OSM   C13F14282   6.991   3.043   7.462  0.5038 -0.0940 -0.3744
  132OSM   H13F14283   6.890   3.088   7.447  0.5175 -0.3948 -1.4799
  132OSM   H13G14284   7.054   3.134   7.470  0.8888 -0.5068  2.1407
  132OSM   C14F14285   6.996   2.988   7.602 -0.4412  0.2982 -0.1428
  132OSM   H14F14286   7.094   2.938   7.614 -0.9707 -0.2563  2.3070
  132OSM   H14G14287   6.918   2.914   7.631 -1.3837  0.9866 -0.8525
  132OSM   C15F14288   6.981   3.099   7.705  0.4432  0.4709 -0.8300
  132OSM   H15F14289   6.887   3.153   7.682 -0.4499 -0.6502  0.0812
  132OSM   H15G14290   7.066   3.169   7.713  3.1954 -2.6209 -0.6943
  132OSM   C16F14291   6.978   3.042   7.848  0.2093 -0.8007  0.8156
  132OSM   H16F14292   7.076   3.006   7.886  0.8708  1.2812  1.2001
  132OSM   H16G14293   6.905   2.959   7.841  0.7582 -1.1547 -1.5314
  132OSM   C17F14294   6.910   3.145   7.940  0.2740  0.8578 -0.8428
  132OSM   H17F14295   6.816   3.182   7.893 -0.3384 -1.3002 -1.4316
  132OSM   H17G14296   6.984   3.228   7.949  2.8834 -1.5624  2.3604
  132OSM   C18F14297   6.887   3.087   8.079  0.2653 -0.1985 -0.6999
  132OSM   H18F14298   6.843   3.167   8.142 -0.0914 -1.4033  0.6321
  132OSM   H18G14299   6.978   3.047   8.128  0.2878 -0.1948 -0.7381
  132OSM   H18H14300   6.815   3.002   8.074 -0.3208  0.2739 -0.4104
  133SAPE     N14301   3.423   6.651  10.758 -0.2517  0.0421  0.0839
  133SAPE   HN114302   3.412   6.690  10.854  3.3077  1.2990  0.1164
  133SAPE   HN214303   3.352   6.577  10.741 -0.7615  0.7139 -0.8315
  133SAPE   HN314304   3.523   6.627  10.746  0.9130  3.3401  1.7858
  133SAPE   C1214305   3.410   6.782  10.673 -0.8722  0.1914 -0.0222
  133SAPE  H12A14306   3.416   6.766  10.564 -1.9307  1.3650 -0.2710
  133SAPE  H12B14307   3.487   6.854  10.706 -0.5776 -0.1223 -0.0151
  133SAPE   C1114308   3.270   6.845  10.690  0.1341 -0.0003 -1.1683
  133SAPE  H11A14309   3.272   6.944  10.641  2.7919 -0.1154 -1.4347
  133SAPE  H11B14310   3.256   6.860  10.799 -1.4441 -0.1161 -1.3353
  133SAPE     P14311   3.033   6.785  10.601  0.0949 -0.0670  0.0000
  133SAPE   O1314312   2.977   6.681  10.513  0.4238  0.0927  0.0398
  133SAPE   O1414313   2.935   6.805  10.714 -1.1152  0.4665  0.1016
  133SAPE   O1214314   3.175   6.743  10.652  0.0390 -0.4364  0.3873
  133SAPE   O1114315   3.060   6.909  10.517  0.0426  0.4307 -0.2752
  133SAPE    C114316   2.986   7.031  10.527 -0.4993 -0.6173  0.1836
  133SAPE    HA14317   2.900   7.017  10.595 -0.8015  0.9391  0.1640
  133SAPE    HB14318   3.050   7.104  10.582 -1.6019  0.2765  0.3206
  133SAPE    C214319   2.951   7.087  10.385 -0.2641  0.2694 -0.1340
  133SAPE    HS14320   2.885   7.176  10.392 -2.6080 -1.3132 -0.7760
  133SAPE   O2114321   2.879   6.982  10.310 -0.1434 -0.7911  0.4913
  133SAPE   C2114322   2.744   6.988  10.313 -0.1442  0.4034  0.0673
  133SAPE   O2214323   2.684   7.070  10.377 -0.2819  0.5105 -0.0763
  133SAPE   C2214324   2.687   6.882  10.220 -0.0031 -0.5060 -0.5855
  133SAPE   H2R14325   2.711   6.916  10.117  2.7151  0.3251  0.2488
  133SAPE   H2S14326   2.746   6.792  10.249 -2.3981 -1.7353  0.8644
  133SAPE    C314327   3.078   7.122  10.299  0.7326  0.1979  0.2666
  133SAPE    HX14328   3.132   7.027  10.281  0.4193  0.2566 -1.1132
  133SAPE    HY14329   3.133   7.205  10.349  1.6439  0.5074 -1.1856
  133SAPE   O3114330   3.034   7.170  10.174 -0.0429  0.4080  0.2470
  133SAPE   C3114331   3.127   7.186  10.086 -0.3587 -0.3452  0.0974
  133SAPE   O3214332   3.250   7.188  10.106 -0.2197  0.2362  0.6724
  133SAPE   C3214333   3.055   7.208   9.946  0.2266  0.1317 -0.3270
  133SAPE   H2X14334   3.036   7.315   9.923  1.5041  0.5164  0.2748
  133SAPE   H2Y14335   2.959   7.158   9.968  0.4714  1.3596  4.6519
  133SAPE   C2314336   2.536   6.848  10.229 -0.0603 -0.3687 -0.2597
  133SAPE   H3R14337   2.478   6.941  10.211  0.4571  0.3303  1.5068
  133SAPE   H3S14338   2.504   6.796  10.322 -0.5829 -0.6941 -0.6133
  133SAPE   C2414339   2.506   6.756  10.109 -0.4136 -0.2233  0.1884
  133SAPE   H4R14340   2.563   6.663  10.127  2.2452  1.4908  1.3624
  133SAPE   H4S14341   2.553   6.790  10.014 -1.4706  0.4631 -0.1108
  133SAPE   C2514342   2.358   6.737  10.107  0.1590  0.1665  0.2113
  133SAPE   H5R14343   2.310   6.751  10.205 -0.5035 -1.6676  0.1841
  133SAPE   C2614344   2.294   6.707   9.994  0.2148  0.3468  0.2090
  133SAPE   H6R14345   2.185   6.701  10.004  0.4353 -1.0521  2.6158
  133SAPE   C2714346   2.361   6.682   9.860 -0.3489 -0.2907  0.0164
  133SAPE   H7R14347   2.440   6.605   9.868  1.7330  1.3993 -2.4675
  133SAPE   H7S14348   2.417   6.774   9.830 -0.6005 -0.1580 -0.0546
  133SAPE   C2814349   2.258   6.645   9.756  0.0324 -0.1069 -0.2788
  133SAPE   H8R14350   2.150   6.651   9.780  0.4996  0.2179  1.9350
  133SAPE   C2914351   2.291   6.578   9.643  0.2176  0.7258  0.3249
  133SAPE   H9R14352   2.214   6.557   9.567  1.2498  2.2160 -1.1996
  133SAPE  C21014353   2.424   6.526   9.586  0.3047  0.3927  0.6199
  133SAPE  H10R14354   2.414   6.432   9.528 -0.2395  0.0965  1.1891
  133SAPE  H10S14355   2.488   6.494   9.670  1.6921  0.6679 -0.2840
  133SAPE  C21114356   2.500   6.628   9.502 -0.1770  0.7303 -0.3105
  133SAPE  H11R14357   2.551   6.700   9.567 -1.1318  0.8131  0.3693
  133SAPE  C21214358   2.517   6.618   9.367  0.6431  0.0347  0.4121
  133SAPE  H12R14359   2.567   6.697   9.310  1.3879  1.6680  3.1248
  133SAPE  C21314360   2.446   6.520   9.275  0.1030 -0.8212  0.8151
  133SAPE  H13R14361   2.340   6.551   9.267  0.4310  0.0377 -0.9308
  133SAPE  H13S14362   2.448   6.415   9.309  2.3500 -1.2220 -0.3338
  133SAPE  C21414363   2.504   6.528   9.134 -0.0443 -0.7441 -0.1583
  133SAPE  H14R14364   2.580   6.608   9.126 -0.7659 -0.0763 -0.4296
  133SAPE  C21514365   2.470   6.454   9.021 -0.3558 -0.3476  0.1758
  133SAPE  H15R14366   2.518   6.481   8.926 -1.0303  0.0991 -0.0432
  133SAPE  C21614367   2.366   6.349   9.005 -0.0594 -0.3659 -0.6163
  133SAPE  H16R14368   2.300   6.358   8.916  1.2031  1.1433 -1.4598
  133SAPE  H16S14369   2.292   6.372   9.085 -1.5379  0.6932 -2.2262
  133SAPE  C21714370   2.416   6.205   9.032  0.0265 -0.5867 -0.5249
  133SAPE  H17R14371   2.326   6.141   9.035  0.4096 -1.1003  0.5021
  133SAPE  H17S14372   2.469   6.213   9.130 -1.5576  1.0648  0.2561
  133SAPE  C21814373   2.495   6.141   8.919 -0.6413 -0.5124 -0.1484
  133SAPE  H18R14374   2.502   6.032   8.941 -0.7361 -0.1786  1.6044
  133SAPE  H18S14375   2.604   6.159   8.914  0.0261 -3.8939 -0.3760
  133SAPE  C21914376   2.446   6.141   8.776  0.1331  0.2377  0.4365
  133SAPE  H19R14377   2.480   6.238   8.734 -0.1993  0.5190  0.8118
  133SAPE  H19S14378   2.336   6.133   8.788  0.0412  1.4509  0.5385
  133SAPE  C22014379   2.490   6.017   8.701 -0.5954  0.1221  0.2608
  133SAPE  H20R14380   2.470   6.032   8.593 -0.8832 -1.3808  0.0871
  133SAPE  H20S14381   2.433   5.932   8.745 -0.3058  0.0918  0.5827
  133SAPE  H20T14382   2.594   5.988   8.728  0.3544  1.9358 -1.2117
  133SAPE   C3314383   3.127   7.131   9.835  0.1938 -0.3015  1.2530
  133SAPE   H3X14384   3.155   7.028   9.866  0.1180 -0.9012 -0.5095
  133SAPE   H3Y14385   3.225   7.179   9.814 -0.1521 -0.5726 -1.3436
  133SAPE   C3414386   3.035   7.087   9.718  0.5228  0.6429  0.7751
  133SAPE   H4X14387   2.973   7.176   9.698  0.9726  1.3515  2.3871
  133SAPE   H4Y14388   2.962   7.004   9.732  0.5437 -0.1833 -2.8760
  133SAPE   C3514389   3.118   7.070   9.588 -0.1974  0.1432  0.7593
  133SAPE   H5X14390   3.178   6.977   9.588  1.4036  1.1223 -0.4751
  133SAPE   H5Y14391   3.194   7.151   9.577 -0.1710  0.0569  0.2794
  133SAPE   C3614392   3.030   7.063   9.462  0.1402  0.7348 -0.1336
  133SAPE   H6X14393   2.984   7.161   9.440 -1.0759  0.1233 -0.4534
  133SAPE   H6Y14394   2.943   6.994   9.474  1.2478 -0.5428  0.8227
  133SAPE   C3714395   3.110   7.026   9.335  0.3997  0.5371 -0.1493
  133SAPE   H7X14396   3.148   6.924   9.357 -1.7212 -0.0391  1.1893
  133SAPE   H7Y14397   3.190   7.102   9.320 -0.9692  1.9111 -0.8476
  133SAPE   C3814398   3.016   7.016   9.216  0.7593 -0.8746 -0.4407
  133SAPE   H8X14399   2.996   7.124   9.197 -0.1893 -1.2915 -2.0090
  133SAPE   H8Y14400   2.921   6.968   9.246  0.7278 -1.5844 -1.5864
  133SAPE   C3914401   3.066   6.949   9.088  0.0496  0.2303  0.2797
  133SAPE   H9X14402   3.101   6.847   9.116  1.3001  0.4630 -0.3807
  133SAPE   H9Y14403   3.155   6.992   9.037  1.0425 -1.0503  0.8533
  133SAPE  C31014404   2.955   6.937   8.981 -0.4560  0.3441  0.0511
  133SAPE  H10X14405   2.918   7.039   8.956 -1.2914 -0.0091 -0.1864
  133SAPE  H10Y14406   2.869   6.883   9.027  1.4107  0.7593  4.5721
  133SAPE  C31114407   3.002   6.869   8.839  1.0739  0.6797 -0.0234
  133SAPE  H11X14408   3.039   6.767   8.863 -0.8623  0.1450  0.9182
  133SAPE  H11Y14409   3.077   6.933   8.787  1.1687 -0.2352 -1.0592
  133SAPE  C31214410   2.890   6.857   8.735  0.4926  0.4270 -0.1118
  133SAPE  H12X14411   2.850   6.959   8.722 -0.3204  0.0888 -0.3523
  133SAPE  H12Y14412   2.803   6.794   8.764  0.6813  0.8323  1.4278
  133SAPE  C31314413   2.945   6.799   8.599 -0.5567  0.4960  0.2949
  133SAPE  H13X14414   2.976   6.696   8.626  0.0457  0.9979  1.5875
  133SAPE  H13Y14415   3.031   6.857   8.560  1.5452  1.0273  5.0594
  133SAPE  C31414416   2.844   6.793   8.486  0.8445  0.7220 -0.2353
  133SAPE  H14X14417   2.805   6.897   8.485  3.1097  1.6609  1.1274
  133SAPE  H14Y14418   2.758   6.730   8.518  3.0309 -1.7845  1.0354
  133SAPE  C31514419   2.883   6.742   8.345 -1.3237 -0.1372  1.1604
  133SAPE  H15X14420   2.977   6.788   8.307 -0.8714 -0.7090  1.5789
  133SAPE  H15Y14421   2.814   6.773   8.264  0.7732 -0.2927 -0.7976
  133SAPE  C31614422   2.902   6.590   8.322  0.4048  0.1423  0.0147
  133SAPE  H16X14423   2.800   6.547   8.326  0.3337  0.3797  0.8635
  133SAPE  H16Y14424   2.967   6.549   8.402  0.7262 -0.9892 -0.7943
  133SAPE  C31714425   2.966   6.564   8.190  0.6189 -0.0464 -0.1401
  133SAPE  H17X14426   3.053   6.631   8.180 -1.0471  2.4950  1.3397
  133SAPE  H17Y14427   2.894   6.583   8.108 -0.9660 -1.3408  0.8801
  133SAPE  C31814428   2.996   6.416   8.167 -0.3425 -0.1944  0.1631
  133SAPE  H18X14429   2.899   6.361   8.168  0.1616 -1.1895  2.9731
  133SAPE  H18Y14430   3.057   6.379   8.252  1.1371  4.0443  1.2003
  133SAPE  H18Z14431   3.056   6.413   8.074  2.4067 -2.6923  1.8347
  134SAPE     N14432   3.904   6.627  10.298 -0.0803 -0.1743 -0.8363
  134SAPE   HN114433   3.959   6.621  10.210  2.6593  3.6758  0.3411
  134SAPE   HN214434   3.858   6.534  10.308 -2.7889  1.3353  3.2780
  134SAPE   HN314435   3.823   6.690  10.278 -0.4539 -0.0057  1.0495
  134SAPE   C1214436   3.994   6.648  10.415 -0.1559 -0.7879  0.1520
  134SAPE  H12A14437   3.944   6.621  10.510 -2.0622  1.3226 -0.1750
  134SAPE  H12B14438   4.016   6.757  10.413 -1.4056 -0.5187  0.2294
  134SAPE   C1114439   4.128   6.568  10.410  0.1638  0.0572  0.3608
  134SAPE  H11A14440   4.172   6.583  10.309  3.0552  0.4272  1.5645
  134SAPE  H11B14441   4.108   6.461  10.430 -2.2523  0.4764  0.4846
  134SAPE     P14442   4.357   6.570  10.518 -0.1266  0.7433 -0.0823
  134SAPE   O1314443   4.419   6.656  10.622  0.0710  0.5620 -0.1772
  134SAPE   O1414444   4.354   6.427  10.550 -0.7358 -0.1273 -0.0950
  134SAPE   O1214445   4.210   6.626  10.502 -0.0337  0.0652  0.0884
  134SAPE   O1114446   4.431   6.591  10.379  0.0131 -0.0211  0.3450
  134SAPE    C114447   4.439   6.731  10.327 -0.4402  0.3913  1.1024
  134SAPE    HA14448   4.365   6.802  10.371  0.3339  0.7176  1.8928
  134SAPE    HB14449   4.541   6.766  10.351 -0.0846 -0.6371  1.1377
  134SAPE    C214450   4.418   6.736  10.172  0.3583  0.4454 -0.0277
  134SAPE    HS14451   4.314   6.702  10.149  0.2408  0.2386  0.7582
  134SAPE   O2114452   4.510   6.652  10.109  0.0679 -0.7201 -0.2224
  134SAPE   C2114453   4.476   6.601   9.998  0.0771  0.4697 -0.8757
  134SAPE   O2214454   4.367   6.606   9.943 -0.2444  0.1050 -0.1825
  134SAPE   C2214455   4.588   6.520   9.946  0.0577 -0.2192 -0.8376
  134SAPE   H2R14456   4.675   6.588   9.933 -1.6768  2.8372  2.1606
  134SAPE   H2S14457   4.605   6.449  10.029 -0.9594 -0.3818 -0.7554
  134SAPE    C314458   4.415   6.886  10.131  0.3690  0.2693  0.0269
  134SAPE    HX14459   4.513   6.925  10.167  0.7492 -2.2219  1.9865
  134SAPE    HY14460   4.328   6.928  10.184 -0.6798  1.0551 -2.1669
  134SAPE   O3114461   4.403   6.894   9.989 -0.2550 -0.2023  0.3409
  134SAPE   C3114462   4.286   6.879   9.941  0.2822  0.6970  0.4468
  134SAPE   O3214463   4.182   6.851  10.003  0.2175  0.7425 -0.2082
  134SAPE   C3214464   4.296   6.891   9.793  0.1356 -0.0269 -0.2762
  134SAPE   H2X14465   4.372   6.821   9.753  2.1256  0.3494  2.5402
  134SAPE   H2Y14466   4.338   6.992   9.773 -0.1888  0.0040 -0.8181
  134SAPE   C2314467   4.547   6.436   9.827  0.0976 -0.0923 -0.7178
  134SAPE   H3R14468   4.450   6.390   9.857 -0.6248  3.4258  3.3634
  134SAPE   H3S14469   4.626   6.358   9.825  0.4962  0.3164 -1.2069
  134SAPE   C2414470   4.527   6.513   9.704  0.7355 -0.2770 -0.0595
  134SAPE   H4R14471   4.617   6.567   9.667 -0.4036  1.5394 -0.3040
  134SAPE   H4S14472   4.447   6.587   9.723  0.1980 -1.2512  1.6013
  134SAPE   C2514473   4.492   6.420   9.594 -0.0519 -0.0161  0.3658
  134SAPE   H5R14474   4.468   6.315   9.618 -0.5988 -0.1037 -0.5149
  134SAPE   C2614475   4.499   6.465   9.466 -0.7806 -0.0140 -0.1947
  134SAPE   H6R14476   4.475   6.395   9.384  0.2608  2.1238 -2.4950
  134SAPE   C2714477   4.536   6.596   9.407  0.7575 -0.4709  0.6251
  134SAPE   H7R14478   4.645   6.597   9.386  0.5170 -3.0006 -1.2231
  134SAPE   H7S14479   4.516   6.682   9.475  3.3485  0.1515  0.6864
  134SAPE   C2814480   4.461   6.620   9.275 -0.1561 -0.7201 -0.3048
  134SAPE   H8R14481   4.367   6.676   9.285  0.3268 -0.0041  0.3350
  134SAPE   C2914482   4.494   6.580   9.153  0.6703  0.3063  0.0901
  134SAPE   H9R14483   4.422   6.604   9.073 -1.4372 -2.0695  1.1520
  134SAPE  C21014484   4.611   6.492   9.115 -0.1348 -0.3892 -0.9414
  134SAPE  H10R14485   4.565   6.400   9.074 -1.1355 -0.7801  0.9252
  134SAPE  H10S14486   4.652   6.459   9.213 -3.8430 -1.8939  0.2683
  134SAPE  C21114487   4.712   6.567   9.032  0.0329  0.4424  0.0619
  134SAPE  H11R14488   4.749   6.661   9.076 -1.4127  0.7603  0.6629
  134SAPE  C21214489   4.764   6.527   8.917 -0.1181 -0.1978  0.2224
  134SAPE  H12R14490   4.849   6.583   8.875  0.2196 -1.8575 -1.4492
  134SAPE  C21314491   4.710   6.403   8.853  0.5566 -0.1952  0.1982
  134SAPE  H13R14492   4.617   6.418   8.796  0.4376 -0.7502  0.2352
  134SAPE  H13S14493   4.685   6.326   8.929  1.8102  1.8520  2.8645
  134SAPE  C21414494   4.816   6.352   8.757  0.3173 -0.1309 -0.3384
  134SAPE  H14R14495   4.860   6.437   8.702 -0.0638  0.7858  0.7207
  134SAPE  C21514496   4.826   6.223   8.714 -0.0056  0.7486 -0.0392
  134SAPE  H15R14497   4.902   6.204   8.636 -1.3367 -0.0583 -1.1969
  134SAPE  C21614498   4.755   6.095   8.760  0.7290  0.0667  0.2243
  134SAPE  H16R14499   4.678   6.124   8.835  0.6177  1.2351 -0.3348
  134SAPE  H16S14500   4.829   6.023   8.801  1.8205 -0.0718 -1.8875
  134SAPE  C21714501   4.664   6.025   8.661 -0.0797  0.8505 -0.1965
  134SAPE  H17R14502   4.576   6.086   8.632  0.7108  2.8179  1.3467
  134SAPE  H17S14503   4.613   5.934   8.701 -0.9279  0.2130 -2.5626
  134SAPE  C21814504   4.734   5.968   8.543 -0.1519  0.4711 -0.2069
  134SAPE  H18R14505   4.772   6.055   8.486 -1.0787  1.3866  0.5369
  134SAPE  H18S14506   4.673   5.905   8.475  0.7570  0.7269 -1.2968
  134SAPE  C21914507   4.849   5.876   8.583 -0.9106  0.9821  0.1268
  134SAPE  H19R14508   4.936   5.930   8.624 -0.9322 -0.4550  2.2865
  134SAPE  H19S14509   4.887   5.826   8.492 -0.4724 -0.6782  1.1617
  134SAPE  C22014510   4.812   5.771   8.693 -0.4239  0.3800 -0.1427
  134SAPE  H20R14511   4.803   5.833   8.784 -1.0142 -0.6183  0.4972
  134SAPE  H20S14512   4.902   5.707   8.708  0.4262  2.0496  2.5089
  134SAPE  H20T14513   4.722   5.708   8.675 -0.6384  0.1690  1.5234
  134SAPE   C3314514   4.160   6.881   9.729 -0.3905 -0.2030  0.4314
  134SAPE   H3X14515   4.097   6.961   9.772  0.6986 -0.4912  2.7360
  134SAPE   H3Y14516   4.118   6.781   9.754 -1.0195  0.4367  2.0974
  134SAPE   C3414517   4.172   6.881   9.574 -0.0922  0.4568 -0.5040
  134SAPE   H4X14518   4.203   6.780   9.540 -1.1415  0.3555 -1.2449
  134SAPE   H4Y14519   4.258   6.946   9.546  2.0968 -0.8343  2.7319
  134SAPE   C3514520   4.047   6.918   9.500 -0.0919 -0.7445  0.0832
  134SAPE   H5X14521   4.035   7.029   9.498  4.7802  0.0008 -1.0267
  134SAPE   H5Y14522   3.953   6.874   9.539  0.3163 -1.6728  0.0458
  134SAPE   C3614523   4.056   6.888   9.350  0.4022  0.0037 -0.6934
  134SAPE   H6X14524   3.956   6.907   9.306 -0.9735 -2.6997  1.0263
  134SAPE   H6Y14525   4.072   6.779   9.339  1.9703  0.3671 -2.7263
  134SAPE   C3714526   4.155   6.953   9.254  1.0217  0.1496 -0.1453
  134SAPE   H7X14527   4.253   6.933   9.303 -0.0927 -1.0636  1.7314
  134SAPE   H7Y14528   4.141   7.063   9.253  0.6655  0.1319  1.4252
  134SAPE   C3814529   4.158   6.889   9.112 -0.2310 -0.5549 -0.2004
  134SAPE   H8X14530   4.161   6.780   9.136 -0.8236 -0.7064 -0.7794
  134SAPE   H8Y14531   4.255   6.917   9.065  0.0806 -0.2176  0.6168
  134SAPE   C3914532   4.041   6.924   9.020  0.2130 -0.4856  0.3487
  134SAPE   H9X14533   4.023   7.032   9.001 -0.1579 -0.3101  1.6548
  134SAPE   H9Y14534   3.949   6.880   9.064 -0.3382  0.3056 -0.0047
  134SAPE  C31014535   4.051   6.851   8.877 -0.4787  0.3656 -0.1403
  134SAPE  H10X14536   4.081   6.747   8.902 -0.4197  0.6422  1.0183
  134SAPE  H10Y14537   4.137   6.907   8.834  0.0244 -0.5522 -0.3509
  134SAPE  C31114538   3.912   6.855   8.800 -0.1749 -1.0249 -0.2832
  134SAPE  H11X14539   3.875   6.959   8.790  0.3079 -0.8839 -0.6221
  134SAPE  H11Y14540   3.847   6.793   8.866  0.1049 -1.0846 -0.0582
  134SAPE  C31214541   3.934   6.789   8.664 -0.1731 -0.3536  0.6267
  134SAPE  H12X14542   3.967   6.686   8.690  1.8731  0.2875  0.7991
  134SAPE  H12Y14543   4.013   6.847   8.612 -2.0808  2.5135  0.6959
  134SAPE  C31314544   3.818   6.785   8.564  0.6538 -0.5160 -0.0644
  134SAPE  H13X14545   3.735   6.731   8.614 -0.0213  0.8133  0.2805
  134SAPE  H13Y14546   3.847   6.741   8.466 -2.1047 -1.7709 -0.4180
  134SAPE  C31414547   3.752   6.916   8.529 -0.4980 -0.0875  0.0162
  134SAPE  H14X14548   3.724   6.973   8.620 -0.7385  1.4125 -0.9566
  134SAPE  H14Y14549   3.651   6.903   8.484 -0.1952  1.4904 -1.1753
  134SAPE  C31514550   3.841   6.998   8.439 -0.1977 -0.1597  0.2427
  134SAPE  H15X14551   3.876   6.941   8.350 -2.4872 -0.9671 -0.2100
  134SAPE  H15Y14552   3.936   7.023   8.492 -0.5480  0.0039  0.8005
  134SAPE  C31614553   3.775   7.122   8.383 -0.4685  0.0098 -0.3957
  134SAPE  H16X14554   3.695   7.085   8.315  0.5294 -0.6641 -1.2393
  134SAPE  H16Y14555   3.840   7.193   8.327 -2.0690  1.3928 -0.5875
  134SAPE  C31714556   3.700   7.219   8.485 -0.7028 -0.4963  0.0320
  134SAPE  H17X14557   3.649   7.151   8.556  4.0304 -3.7210  0.7880
  134SAPE  H17Y14558   3.635   7.285   8.424  0.0534 -0.3270 -0.6101
  134SAPE  C31814559   3.802   7.300   8.565  0.3830 -0.1746  0.4314
  134SAPE  H18X14560   3.754   7.361   8.645 -0.6997  0.9327 -1.0081
  134SAPE  H18Y14561   3.849   7.377   8.500  1.5878 -1.9382 -0.8735
  134SAPE  H18Z14562   3.876   7.231   8.609  0.9744 -1.1162 -1.9027
  135SAPE     N14563   5.179   5.088  10.712 -0.1547  0.4121  0.4087
  135SAPE   HN114564   5.259   5.076  10.646 -2.8892 -1.4524 -2.8849
  135SAPE   HN214565   5.221   5.100  10.807 -2.4832  0.6781  1.4592
  135SAPE   HN314566   5.137   4.994  10.701  1.9731 -0.6446  0.6819
  135SAPE   C1214567   5.083   5.199  10.671  0.5633 -0.0318 -0.4895
  135SAPE  H12A14568   5.148   5.285  10.645  2.0524 -0.5242  1.3415
  135SAPE  H12B14569   5.022   5.208  10.763  0.1495  1.8121 -0.9051
  135SAPE   C1114570   5.002   5.167  10.553 -0.1567  0.1812  0.6768
  135SAPE  H11A14571   5.059   5.152  10.458  2.0390 -1.6655  2.1692
  135SAPE  H11B14572   4.933   5.252  10.538 -0.4856 -0.0090  1.1076
  135SAPE     P14573   4.929   4.910  10.518  0.1283  0.2072  0.0637
  135SAPE   O1314574   5.071   4.871  10.539  0.5218 -0.2657 -0.1464
  135SAPE   O1414575   4.841   4.824  10.596  0.0926 -0.0756  0.2761
  135SAPE   O1214576   4.916   5.056  10.577  0.1801  0.2962 -0.3938
  135SAPE   O1114577   4.890   4.912  10.366 -0.1349 -0.5846  0.6239
  135SAPE    C114578   4.807   5.018  10.322 -1.0514  0.4568 -0.3228
  135SAPE    HA14579   4.719   5.035  10.388 -0.5945  0.4314  0.2923
  135SAPE    HB14580   4.865   5.113  10.317  0.4358 -0.3754  0.4303
  135SAPE    C214581   4.754   5.002  10.174 -0.2018  0.0526 -0.0025
  135SAPE    HS14582   4.690   5.092  10.158  2.1852  2.3210  2.0903
  135SAPE   O2114583   4.680   4.884  10.159  0.7401  0.5445  0.3197
  135SAPE   C2114584   4.551   4.885  10.200 -0.5853  0.0752  0.2631
  135SAPE   O2214585   4.493   4.970  10.265 -0.1983  0.2913  0.2176
  135SAPE   C2214586   4.493   4.745  10.180 -1.1895  0.5096 -0.3439
  135SAPE   H2R14587   4.566   4.661  10.177 -0.1054  1.4104  0.1905
  135SAPE   H2S14588   4.445   4.715  10.276  2.8031 -2.3970  1.0455
  135SAPE    C314589   4.867   4.999  10.066 -0.1846  0.0026  0.4940
  135SAPE    HX14590   4.953   4.932  10.089  0.3197 -0.0492 -1.3788
  135SAPE    HY14591   4.911   5.099  10.081 -2.1343  0.7453  1.6472
  135SAPE   O3114592   4.820   4.990   9.932  0.5002  0.2444 -0.0320
  135SAPE   C3114593   4.830   4.865   9.878  0.0706 -0.6879  0.3543
  135SAPE   O3214594   4.844   4.764   9.941 -0.2822 -0.0023 -0.2639
  135SAPE   C3214595   4.809   4.881   9.723  0.0317 -0.0428 -0.3777
  135SAPE   H2X14596   4.833   4.986   9.696  0.3424 -0.2366 -0.8679
  135SAPE   H2Y14597   4.701   4.860   9.709 -0.5179  1.5720  1.0325
  135SAPE   C2314598   4.418   4.724  10.049  0.1200 -0.1411 -0.4951
  135SAPE   H3R14599   4.332   4.794  10.042  0.8512  1.4276  3.4592
  135SAPE   H3S14600   4.381   4.620  10.048  0.8964 -0.5005  1.8172
  135SAPE   C2414601   4.505   4.730   9.918 -0.0427  0.1000  0.0396
  135SAPE   H4R14602   4.599   4.672   9.935 -1.1971 -1.8173  0.2002
  135SAPE   H4S14603   4.538   4.835   9.902 -0.8637  0.4350  0.5382
  135SAPE   C2514604   4.432   4.670   9.799  0.3513 -0.6448  0.2896
  135SAPE   H5R14605   4.423   4.560   9.803 -0.3090 -0.6056  0.0255
  135SAPE   C2614606   4.385   4.726   9.691  0.6520 -0.2150 -0.4068
  135SAPE   H6R14607   4.340   4.661   9.614 -1.4509  2.7553 -1.8691
  135SAPE   C2714608   4.400   4.871   9.650  0.3834 -0.1110 -0.5261
  135SAPE   H7R14609   4.431   4.923   9.743  1.1580 -2.1447  0.4307
  135SAPE   H7S14610   4.306   4.923   9.624 -0.1126  0.8201  2.6917
  135SAPE   C2814611   4.500   4.888   9.541  0.5746 -0.3583 -1.2540
  135SAPE   H8R14612   4.583   4.815   9.540 -0.5282 -1.6839 -0.1029
  135SAPE   C2914613   4.501   4.972   9.440  0.1512  0.1386 -0.2172
  135SAPE   H9R14614   4.586   4.975   9.370 -0.1832  3.0342 -0.6334
  135SAPE  C21014615   4.398   5.074   9.417 -0.1191  0.0104 -0.3232
  135SAPE  H10R14616   4.441   5.171   9.385 -1.2746  0.9497  0.8645
  135SAPE  H10S14617   4.352   5.101   9.515  0.6423  0.6168 -0.1225
  135SAPE  C21114618   4.297   5.034   9.318  0.6018 -0.1447  0.4416
  135SAPE  H11R14619   4.275   4.931   9.285  0.8833  0.7147 -2.7703
  135SAPE  C21214620   4.233   5.121   9.234  0.4934 -0.1853 -0.4991
  135SAPE  H12R14621   4.162   5.079   9.162  0.4381  0.6908 -0.9718
  135SAPE  C21314622   4.249   5.267   9.222  0.1970  0.1673  0.5873
  135SAPE  H13R14623   4.323   5.290   9.143  2.4738 -2.5127  1.7698
  135SAPE  H13S14624   4.289   5.305   9.319  0.1214  1.3828  0.1639
  135SAPE  C21414625   4.116   5.333   9.194 -0.8463 -0.0524  0.7749
  135SAPE  H14R14626   4.058   5.364   9.282 -3.1629 -0.8107 -0.4264
  135SAPE  C21514627   4.092   5.400   9.079  0.1555  0.3789  0.9183
  135SAPE  H15R14628   4.012   5.475   9.071 -0.6673 -0.6224 -0.6540
  135SAPE  C21614629   4.176   5.399   8.950  0.7545 -0.4377  0.2322
  135SAPE  H16R14630   4.282   5.422   8.972  0.2431  1.0815  1.2812
  135SAPE  H16S14631   4.132   5.478   8.885 -1.8170 -0.8076  1.3774
  135SAPE  C21714632   4.167   5.263   8.881 -0.4281 -0.0308  0.4261
  135SAPE  H17R14633   4.066   5.230   8.847 -0.3243  1.9486 -2.0384
  135SAPE  H17S14634   4.204   5.179   8.944  0.8975 -0.7778 -1.2619
  135SAPE  C21814635   4.275   5.251   8.769 -0.1291 -0.0260 -0.1949
  135SAPE  H18R14636   4.379   5.254   8.809 -0.1692 -0.3091 -0.0653
  135SAPE  H18S14637   4.272   5.339   8.701  3.1599  1.1223  0.9441
  135SAPE  C21914638   4.258   5.121   8.697  0.0597  0.3403 -0.1756
  135SAPE  H19R14639   4.165   5.134   8.638  0.3870  0.6331 -0.6413
  135SAPE  H19S14640   4.246   5.044   8.776  1.6035 -0.1754 -0.3914
  135SAPE  C22014641   4.369   5.086   8.601 -0.7627 -0.1883  0.0254
  135SAPE  H20R14642   4.366   5.170   8.529  1.2527  0.9846  1.2327
  135SAPE  H20S14643   4.338   4.990   8.555  3.4597 -0.7861 -2.0464
  135SAPE  H20T14644   4.464   5.075   8.657 -1.2706  2.5364  1.5969
  135SAPE   C3314645   4.899   4.785   9.646 -0.0727  0.2041  0.0967
  135SAPE   H3X14646   4.879   4.678   9.670  0.8035 -0.2022 -0.8845
  135SAPE   H3Y14647   5.005   4.800   9.674 -0.0457  1.1485 -0.4829
  135SAPE   C3414648   4.892   4.803   9.491 -0.5913  0.0028 -0.0911
  135SAPE   H4X14649   4.937   4.899   9.459 -1.3474 -0.1900 -1.8107
  135SAPE   H4Y14650   4.787   4.796   9.456  0.1716 -0.3618 -2.4736
  135SAPE   C3514651   4.963   4.703   9.398 -0.0363 -0.2538 -0.1898
  135SAPE   H5X14652   4.946   4.603   9.443 -0.1628 -0.2733 -0.2790
  135SAPE   H5Y14653   5.068   4.738   9.412  0.0945 -1.0258  0.8758
  135SAPE   C3614654   4.913   4.699   9.253 -0.1840  0.8457  0.6998
  135SAPE   H6X14655   4.957   4.787   9.200  0.3220  0.8836  1.1738
  135SAPE   H6Y14656   4.806   4.726   9.246 -0.1008  1.4074  1.4735
  135SAPE   C3714657   4.957   4.571   9.181  0.1496  0.1842  0.6133
  135SAPE   H7X14658   4.917   4.496   9.251 -0.8021  1.3201  1.3128
  135SAPE   H7Y14659   5.068   4.563   9.178  0.0256 -1.8069 -1.4390
  135SAPE   C3814660   4.899   4.552   9.041  0.5219 -0.0302  0.1028
  135SAPE   H8X14661   4.952   4.623   8.974  0.7580  0.8620  1.2147
  135SAPE   H8Y14662   4.795   4.591   9.039  0.3130 -0.5627 -1.7153
  135SAPE   C3914663   4.907   4.405   9.004 -0.3517  0.3469 -0.5362
  135SAPE   H9X14664   4.839   4.339   9.062  1.5875  0.1236  1.6441
  135SAPE   H9Y14665   5.008   4.371   9.034 -1.4896  0.1871  3.8337
  135SAPE  C31014666   4.898   4.391   8.853  0.4076  0.2798  0.9967
  135SAPE  H10X14667   4.978   4.448   8.801  0.1402  0.4337  0.7581
  135SAPE  H10Y14668   4.801   4.434   8.823 -0.2117 -0.7996  1.3968
  135SAPE  C31114669   4.915   4.242   8.815 -0.8555  0.1964  0.6275
  135SAPE  H11X14670   4.839   4.187   8.873 -0.7499 -1.5596 -0.8050
  135SAPE  H11Y14671   5.020   4.218   8.841 -0.8551 -0.7895 -0.1858
  135SAPE  C31214672   4.875   4.228   8.673 -0.2069  0.3218  0.2166
  135SAPE  H12X14673   4.768   4.256   8.662 -1.0980 -1.9189  2.2775
  135SAPE  H12Y14674   4.878   4.118   8.655 -0.7587  0.2557  0.5008
  135SAPE  C31314675   4.974   4.290   8.573  0.0456  0.5621 -0.6070
  135SAPE  H13X14676   4.978   4.401   8.579 -1.0466  0.7196 -2.0896
  135SAPE  H13Y14677   4.935   4.277   8.470 -0.6135 -0.4558 -0.2447
  135SAPE  C31414678   5.119   4.234   8.592  0.5024 -0.7625  0.0553
  135SAPE  H14X14679   5.126   4.125   8.610  3.1716 -1.5363 -4.3033
  135SAPE  H14Y14680   5.169   4.282   8.679  0.8093 -1.7557  0.4426
  135SAPE  C31514681   5.220   4.256   8.478  0.4286  0.2548  0.5953
  135SAPE  H15X14682   5.208   4.363   8.451 -0.3691 -0.0416 -0.2791
  135SAPE  H15Y14683   5.171   4.201   8.395 -0.1302 -0.3487  1.3097
  135SAPE  C31614684   5.359   4.200   8.510  0.1170 -0.5689  0.4145
  135SAPE  H16X14685   5.346   4.100   8.557  2.6714 -1.1056  0.1146
  135SAPE  H16Y14686   5.413   4.261   8.586 -1.7079  2.8337 -0.7963
  135SAPE  C31714687   5.442   4.198   8.384  0.4551 -1.4105  0.1440
  135SAPE  H17X14688   5.395   4.119   8.322 -0.6843 -0.5150 -0.1538
  135SAPE  H17Y14689   5.544   4.165   8.413  0.7314  0.3980  1.4397
  135SAPE  C31814690   5.447   4.331   8.303 -0.1599 -0.5293 -0.4652
  135SAPE  H18X14691   5.351   4.357   8.255 -0.5922  0.3427  0.8101
  135SAPE  H18Y14692   5.515   4.312   8.217  0.1149  0.2305 -0.4286
  135SAPE  H18Z14693   5.488   4.412   8.367 -1.5371  0.2730 -0.5651
  136SAPE     N14694   1.770   5.166  11.222 -0.1320  0.3222  0.3986
  136SAPE   HN114695   1.667   5.166  11.213 -0.0729  0.0507 -0.3136
  136SAPE   HN214696   1.801   5.149  11.320  1.0290 -1.8734 -0.2838
  136SAPE   HN314697   1.795   5.262  11.192 -1.7841  0.2101 -1.5841
  136SAPE   C1214698   1.833   5.052  11.149  0.9395 -0.5151  0.0335
  136SAPE  H12A14699   1.776   5.040  11.054  0.7324  1.0807 -0.0810
  136SAPE  H12B14700   1.810   4.961  11.208  0.0060  0.2968  0.9545
  136SAPE   C1114701   1.983   5.082  11.147  0.4028 -0.2341 -0.6017
  136SAPE  H11A14702   2.049   4.998  11.116  2.4371  1.2594 -0.5183
  136SAPE  H11B14703   2.019   5.109  11.248 -0.1681  0.7941 -0.6550
  136SAPE     P14704   2.128   5.276  11.042  0.6432  0.1929  0.0678
  136SAPE   O1314705   2.117   5.425  11.040 -0.7599  0.3337 -0.4403
  136SAPE   O1414706   2.235   5.224  11.130 -0.6790  0.2476 -0.2474
  136SAPE   O1214707   1.995   5.202  11.070  0.2301  0.3814  0.2303
  136SAPE   O1114708   2.163   5.236  10.886 -0.1677 -0.5361  0.7491
  136SAPE    C114709   2.191   5.100  10.848  0.4343 -0.1933 -0.0867
  136SAPE    HA14710   2.299   5.083  10.825  1.2246 -0.3602  3.2341
  136SAPE    HB14711   2.175   5.020  10.924  1.3858 -0.5141 -0.2010
  136SAPE    C214712   2.121   5.061  10.718 -0.4304 -0.0003  0.0522
  136SAPE    HS14713   2.150   4.954  10.710  0.1661  0.0650  1.1401
  136SAPE   O2114714   2.188   5.138  10.619 -0.0525 -0.3646  0.1058
  136SAPE   C2114715   2.207   5.075  10.504  0.1123 -1.2097  0.1784
  136SAPE   O2214716   2.203   4.958  10.482 -0.7672  0.3478 -0.5320
  136SAPE   C2214717   2.256   5.176  10.404 -0.2098 -0.1476  0.1820
  136SAPE   H2R14718   2.307   5.260  10.456  0.1755 -1.1590  1.4943
  136SAPE   H2S14719   2.329   5.122  10.341 -0.8943 -0.4239 -0.3851
  136SAPE    C314720   1.966   5.073  10.712 -0.0344  0.6417  0.7048
  136SAPE    HX14721   1.944   5.181  10.698 -2.4473  0.1093 -0.0983
  136SAPE    HY14722   1.920   5.048  10.810 -2.6435  0.7999 -0.4046
  136SAPE   O3114723   1.900   5.005  10.600 -0.1956 -0.6601 -0.8706
  136SAPE   C3114724   1.885   4.883  10.611  0.5056  0.6643  0.5367
  136SAPE   O3214725   1.944   4.806  10.692  0.8402 -0.4681  0.1735
  136SAPE   C3214726   1.777   4.821  10.504  0.0049 -0.1294 -0.3527
  136SAPE   H2X14727   1.738   4.901  10.438 -0.2561 -1.3758 -1.7681
  136SAPE   H2Y14728   1.691   4.784  10.563  1.0602  0.0047  1.3286
  136SAPE   C2314729   2.125   5.214  10.331 -0.0168  0.0239  0.0959
  136SAPE   H3R14730   2.056   5.279  10.388  1.7765  1.4344  0.7752
  136SAPE   H3S14731   2.061   5.136  10.284  0.1678  1.3322 -2.5205
  136SAPE   C2414732   2.155   5.316  10.208  0.4308  0.1261  0.2300
  136SAPE   H4R14733   2.215   5.272  10.125 -1.8744  1.0941 -2.1049
  136SAPE   H4S14734   2.213   5.404  10.243  0.5647 -0.1401  0.6887
  136SAPE   C2514735   2.034   5.364  10.139  0.6253  0.4618  0.8532
  136SAPE   H5R14736   1.977   5.439  10.197 -1.2986 -0.4406  0.2070
  136SAPE   C2614737   1.989   5.317  10.019  0.3862  0.2461 -0.4965
  136SAPE   H6R14738   1.900   5.364   9.974 -0.8031 -1.3858  0.0461
  136SAPE   C2714739   2.042   5.214   9.924  1.5714 -0.0306 -0.5364
  136SAPE   H7R14740   1.957   5.165   9.872  2.2521 -2.0992  0.2056
  136SAPE   H7S14741   2.097   5.140   9.986 -0.1878 -1.0053 -0.0508
  136SAPE   C2814742   2.144   5.274   9.833 -0.5548 -0.1071  0.3274
  136SAPE   H8R14743   2.208   5.346   9.887 -0.4509 -0.7114  1.0307
  136SAPE   C2914744   2.150   5.263   9.703 -0.0381 -0.3533 -0.0478
  136SAPE   H9R14745   2.230   5.320   9.654  1.2236 -0.3336  1.9071
  136SAPE  C21014746   2.061   5.182   9.614 -0.0198  0.1608  0.0224
  136SAPE  H10R14747   2.021   5.099   9.676 -1.1179 -0.2802 -1.2197
  136SAPE  H10S14748   2.128   5.127   9.545 -0.0042 -0.8411  0.8193
  136SAPE  C21114749   1.949   5.254   9.540  0.3495 -0.2425 -0.6509
  136SAPE  H11R14750   1.896   5.330   9.600  0.5101  0.2676 -1.1390
  136SAPE  C21214751   1.913   5.239   9.413  0.3664 -0.4062 -0.0557
  136SAPE  H12R14752   1.841   5.306   9.365  1.4978  3.1177  2.7661
  136SAPE  C21314753   1.970   5.146   9.308  0.4660 -0.6047 -0.2218
  136SAPE  H13R14754   1.903   5.134   9.221 -0.3877  1.2362  0.1432
  136SAPE  H13S14755   1.957   5.045   9.353  3.3352 -0.5004  1.0741
  136SAPE  C21414756   2.118   5.161   9.287  0.0748 -0.2571  0.4695
  136SAPE  H14R14757   2.179   5.204   9.368  0.2633  0.9593 -0.3047
  136SAPE  C21514758   2.177   5.110   9.181 -0.9948  0.2340 -0.6050
  136SAPE  H15R14759   2.287   5.114   9.180 -0.8649 -1.6315  1.0046
  136SAPE  C21614760   2.109   5.036   9.071  0.0020  0.1144 -0.0724
  136SAPE  H16R14761   2.009   5.077   9.047  0.9306  2.0146 -0.8369
  136SAPE  H16S14762   2.075   4.932   9.093 -0.9130  0.1739 -1.1022
  136SAPE  C21714763   2.188   5.020   8.941  0.0134  0.3729  0.7003
  136SAPE  H17R14764   2.119   4.964   8.875  0.8167  0.0695  0.0948
  136SAPE  H17S14765   2.278   4.956   8.954 -1.0585 -1.7301 -1.6387
  136SAPE  C21814766   2.227   5.151   8.865  0.2986 -0.4138 -0.3037
  136SAPE  H18R14767   2.327   5.188   8.897  0.7924 -0.7028 -1.4247
  136SAPE  H18S14768   2.153   5.233   8.879 -0.2561 -0.6232 -1.8116
  136SAPE  C21914769   2.236   5.132   8.711 -0.3126  0.0068 -0.3935
  136SAPE  H19R14770   2.292   5.219   8.671  1.0889  0.4086  2.1789
  136SAPE  H19S14771   2.135   5.138   8.666  0.3722  0.9653 -1.9032
  136SAPE  C22014772   2.317   5.002   8.670  0.4339 -0.4294 -0.1135
  136SAPE  H20R14773   2.348   4.999   8.564 -1.8911 -0.7884 -0.8309
  136SAPE  H20S14774   2.263   4.907   8.687 -1.0513  0.3151 -0.5166
  136SAPE  H20T14775   2.410   5.012   8.730  0.3911  1.6723 -0.3262
  136SAPE   C3314776   1.835   4.704  10.417  0.8364 -0.2715 -0.2688
  136SAPE   H3X14777   1.760   4.648  10.357 -0.1687  0.3855  0.3294
  136SAPE   H3Y14778   1.871   4.620  10.481 -1.9187 -1.8375 -0.6132
  136SAPE   C3414779   1.951   4.752  10.323  0.5120  0.4082  0.4641
  136SAPE   H4X14780   1.991   4.657  10.281  0.3775  0.5192  0.0772
  136SAPE   H4Y14781   2.035   4.804  10.373  2.7302 -1.6888 -0.8131
  136SAPE   C3514782   1.900   4.838  10.205 -0.4051  0.5490 -0.2815
  136SAPE   H5X14783   1.887   4.937  10.255  2.6530  1.5605 -1.2549
  136SAPE   H5Y14784   1.808   4.797  10.159 -0.0306 -1.0080  0.3017
  136SAPE   C3614785   1.997   4.881  10.087  0.5003  0.4423  0.5162
  136SAPE   H6X14786   2.102   4.908  10.112 -0.0256  2.7415  0.4438
  136SAPE   H6Y14787   1.950   4.975  10.052  1.0120  1.9205  3.4197
  136SAPE   C3714788   2.010   4.776   9.979 -0.8271  0.1391 -0.5310
  136SAPE   H7X14789   1.911   4.727   9.974 -1.3814  1.2726 -0.9713
  136SAPE   H7Y14790   2.078   4.693  10.008 -0.5890  0.8447  1.0559
  136SAPE   C3814791   2.036   4.845   9.839 -0.5116 -0.0640  0.1303
  136SAPE   H8X14792   2.138   4.889   9.845 -1.2910  1.5861  2.2843
  136SAPE   H8Y14793   1.959   4.923   9.825  0.3702  0.8934  0.4774
  136SAPE   C3914794   2.026   4.746   9.730 -0.2669 -0.4292 -0.0157
  136SAPE   H9X14795   1.921   4.710   9.733 -0.4874  0.2004  2.3969
  136SAPE   H9Y14796   2.093   4.657   9.732 -0.2205 -0.4462 -1.3702
  136SAPE  C31014797   2.051   4.804   9.590  0.4875  0.7091 -0.2674
  136SAPE  H10X14798   2.145   4.863   9.601  1.6934 -1.4923  2.2422
  136SAPE  H10Y14799   1.966   4.866   9.552 -0.4585 -1.5280 -2.0150
  136SAPE  C31114800   2.091   4.689   9.487  0.4678 -0.5166  0.6017
  136SAPE  H11X14801   2.015   4.608   9.499  0.2870 -0.3004  0.9209
  136SAPE  H11Y14802   2.195   4.664   9.515  1.3867  1.9840 -0.3224
  136SAPE  C31214803   2.091   4.735   9.342  0.0751 -0.2248 -0.5482
  136SAPE  H12X14804   2.174   4.809   9.341  0.6792 -0.9009 -0.7347
  136SAPE  H12Y14805   1.987   4.774   9.328  0.0483 -0.3729 -0.7551
  136SAPE  C31314806   2.128   4.624   9.241  0.6980 -0.1927 -0.7763
  136SAPE  H13X14807   2.079   4.528   9.266 -0.9638  0.0878 -2.6719
  136SAPE  H13Y14808   2.239   4.618   9.254  0.5634  0.9224  1.3015
  136SAPE  C31414809   2.116   4.655   9.095  0.1637  0.0231  0.1808
  136SAPE  H14X14810   2.181   4.745   9.084  0.1728  0.1413  1.0868
  136SAPE  H14Y14811   2.013   4.689   9.073 -0.2125 -0.3802  1.2401
  136SAPE  C31514812   2.169   4.533   9.004 -0.1186 -0.3955  1.0149
  136SAPE  H15X14813   2.105   4.444   9.021  0.0852 -0.5116  1.1728
  136SAPE  H15Y14814   2.274   4.511   9.034 -0.3924 -0.1386  2.2463
  136SAPE  C31614815   2.168   4.582   8.856 -0.3234 -0.7163  0.2111
  136SAPE  H16X14816   2.244   4.662   8.848 -0.8923 -0.3376 -2.1058
  136SAPE  H16Y14817   2.070   4.630   8.833 -0.0529 -0.6910 -0.8988
  136SAPE  C31714818   2.178   4.467   8.758  0.6550  0.4165 -0.0382
  136SAPE  H17X14819   2.152   4.488   8.653  0.0397 -0.5381 -0.0876
  136SAPE  H17Y14820   2.112   4.387   8.798  1.2578  0.0163  0.1673
  136SAPE  C31814821   2.324   4.423   8.758  0.3093  0.0483 -0.7853
  136SAPE  H18X14822   2.343   4.330   8.701 -0.0127 -0.2856 -0.3629
  136SAPE  H18Y14823   2.349   4.397   8.863 -0.5095 -0.3548 -0.6757
  136SAPE  H18Z14824   2.387   4.511   8.732 -0.6064  0.7944 -0.5583
  137SAPE     N14825   5.737   1.932  10.532 -0.5820  0.1312  0.7453
  137SAPE   HN114826   5.679   1.922  10.446 -0.4321 -1.2422  0.7809
  137SAPE   HN214827   5.803   1.852  10.522 -0.4034  0.5352 -2.0627
  137SAPE   HN314828   5.673   1.912  10.612 -2.0862  0.8383 -0.2392
  137SAPE   C1214829   5.806   2.061  10.574  0.0513 -0.3066  0.4449
  137SAPE  H12A14830   5.725   2.127  10.611 -0.4239 -1.0125  0.6989
  137SAPE  H12B14831   5.844   2.106  10.480 -1.1584  2.0193  1.0126
  137SAPE   C1114832   5.920   2.045  10.676  0.0613  0.8064 -0.1330
  137SAPE  H11A14833   6.007   2.002  10.623  1.8854  3.2843  0.6261
  137SAPE  H11B14834   5.889   1.972  10.754  2.1504  0.2201  0.2049
  137SAPE     P14835   6.063   2.188  10.837  0.3907  0.2612  0.2186
  137SAPE   O1314836   6.085   2.327  10.860 -0.1933 -0.1810  0.1240
  137SAPE   O1414837   6.006   2.107  10.947 -0.0436  0.1120  0.5936
  137SAPE   O1214838   5.963   2.175  10.715  0.2272  0.1891 -0.5080
  137SAPE   O1114839   6.200   2.126  10.782 -0.3900  0.4988 -0.2523
  137SAPE    C114840   6.281   2.217  10.705  0.5258  0.9745 -0.0618
  137SAPE    HA14841   6.283   2.322  10.740 -1.4446  1.2754 -0.7321
  137SAPE    HB14842   6.387   2.185  10.708  0.3885  0.4952 -0.1638
  137SAPE    C214843   6.229   2.228  10.556 -0.5530 -0.0891 -0.5793
  137SAPE    HS14844   6.119   2.238  10.554 -0.5636  0.2719  0.7964
  137SAPE   O2114845   6.290   2.119  10.483 -0.1922 -0.3008 -0.5817
  137SAPE   C2114846   6.217   2.081  10.376 -0.4709  0.3816 -0.4891
  137SAPE   O2214847   6.103   2.117  10.359  0.2267 -0.2005  0.0525
  137SAPE   C2214848   6.292   1.975  10.288 -0.2275  0.1453  0.4370
  137SAPE   H2R14849   6.305   1.899  10.367  0.8163  1.3487  1.4650
  137SAPE   H2S14850   6.224   1.944  10.206  0.4967  0.5343 -0.3342
  137SAPE    C314851   6.274   2.370  10.500  0.1361  0.1751  0.5235
  137SAPE    HX14852   6.383   2.376  10.478  0.1335  2.6111  0.8235
  137SAPE    HY14853   6.269   2.457  10.569  0.0153 -0.4631  1.3246
  137SAPE   O3114854   6.207   2.411  10.376 -0.0308 -0.2331 -0.1918
  137SAPE   C3114855   6.081   2.453  10.395 -0.8766  0.3188 -0.5009
  137SAPE   O3214856   6.034   2.480  10.501  0.3269 -0.5622  0.0666
  137SAPE   C3214857   6.007   2.456  10.267  0.2108 -0.3546 -0.3259
  137SAPE   H2X14858   5.908   2.504  10.281  0.6077  0.7961 -1.2762
  137SAPE   H2Y14859   6.007   2.350  10.233  2.0545 -0.2086 -0.9269
  137SAPE   C2314860   6.427   2.029  10.233  0.5437  0.8398 -0.0601
  137SAPE   H3R14861   6.508   1.954  10.231 -0.2136  0.0129 -0.7031
  137SAPE   H3S14862   6.469   2.117  10.287 -2.0827  1.8608  0.4703
  137SAPE   C2414863   6.424   2.065  10.084 -0.2347 -0.1417 -0.9627
  137SAPE   H4R14864   6.364   1.984  10.036  1.1397 -1.5393 -0.4029
  137SAPE   H4S14865   6.525   2.056  10.039 -0.0647 -2.3903 -0.2963
  137SAPE   C2514866   6.358   2.195  10.061  0.5000  0.0419 -0.4832
  137SAPE   H5R14867   6.334   2.256  10.150 -1.9646  0.7770 -1.5483
  137SAPE   C2614868   6.329   2.227   9.934 -0.2946  0.1916 -0.3062
  137SAPE   H6R14869   6.284   2.326   9.921  0.8666  1.2254  2.6160
  137SAPE   C2714870   6.359   2.145   9.808  0.9224  0.2300 -0.3080
  137SAPE   H7R14871   6.266   2.091   9.782  0.4124  0.6551  0.5976
  137SAPE   H7S14872   6.436   2.066   9.818  2.3792  1.4743 -1.3071
  137SAPE   C2814873   6.391   2.250   9.706 -0.2214 -0.2834  0.1544
  137SAPE   H8R14874   6.444   2.337   9.745  1.0897 -0.2031 -1.6665
  137SAPE   C2914875   6.375   2.237   9.574 -0.8864  0.5456  0.4273
  137SAPE   H9R14876   6.416   2.317   9.510 -0.4718 -1.2633 -1.6869
  137SAPE  C21014877   6.325   2.123   9.495  0.2762 -1.3547 -0.1505
  137SAPE  H10R14878   6.217   2.113   9.519 -0.0078  1.1347 -0.2106
  137SAPE  H10S14879   6.384   2.034   9.527  1.8428 -0.3142 -0.0499
  137SAPE  C21114880   6.327   2.144   9.348  0.1178 -0.3807 -1.1241
  137SAPE  H11R14881   6.229   2.165   9.304 -1.7268 -0.5475  2.5370
  137SAPE  C21214882   6.436   2.136   9.270 -0.6217  0.3253 -0.4146
  137SAPE  H12R14883   6.438   2.157   9.162  1.2000 -1.9768 -0.9207
  137SAPE  C21314884   6.579   2.103   9.317  0.3678 -0.6462 -0.4375
  137SAPE  H13R14885   6.592   1.999   9.356  1.7697  0.0860  1.1731
  137SAPE  H13S14886   6.604   2.177   9.396 -0.4062 -0.2653 -0.5434
  137SAPE  C21414887   6.686   2.139   9.207  0.4152 -0.1462 -0.7415
  137SAPE  H14R14888   6.738   2.234   9.225  1.6242 -1.0165  0.5189
  137SAPE  C21514889   6.710   2.084   9.087  0.6809 -0.2041 -0.0850
  137SAPE  H15R14890   6.801   2.115   9.033  2.2199 -0.1667  2.3530
  137SAPE  C21614891   6.641   1.964   9.025 -0.5103  0.6998 -0.7934
  137SAPE  H16R14892   6.542   1.960   9.075  0.2956  1.6227  0.9685
  137SAPE  H16S14893   6.691   1.869   9.054 -1.0248 -0.1530 -2.5424
  137SAPE  C21714894   6.647   1.971   8.876 -0.0408 -0.1556  0.0036
  137SAPE  H17R14895   6.598   1.889   8.819 -1.8864  0.5210  0.5464
  137SAPE  H17S14896   6.755   1.965   8.849  0.0140 -0.9058  0.3696
  137SAPE  C21814897   6.584   2.103   8.826 -0.0728 -0.5450  0.1071
  137SAPE  H18R14898   6.643   2.189   8.863 -1.3660 -0.2866  1.6671
  137SAPE  H18S14899   6.487   2.115   8.879  0.6022 -0.0653  1.2528
  137SAPE  C21914900   6.555   2.108   8.669  0.0895  0.1653  0.2394
  137SAPE  H19R14901   6.641   2.073   8.609  0.6071  0.8004  0.5890
  137SAPE  H19S14902   6.542   2.216   8.644  3.6759  0.4592 -0.8240
  137SAPE  C22014903   6.429   2.030   8.636  0.2595  0.0100  0.1271
  137SAPE  H20R14904   6.438   1.925   8.673 -1.2745 -0.6518 -1.2238
  137SAPE  H20S14905   6.404   2.030   8.527 -0.5154  0.8446  0.2963
  137SAPE  H20T14906   6.345   2.076   8.691  0.3080  0.3104 -0.0483
  137SAPE   C3314907   6.074   2.541  10.157  0.0301 -0.4710 -0.1795
  137SAPE   H3X14908   6.185   2.540  10.161  0.0326  0.3851  0.3045
  137SAPE   H3Y14909   6.059   2.651  10.166  0.4130 -0.3004 -1.4654
  137SAPE   C3414910   6.023   2.489  10.031 -0.0507  0.4540  0.6105
  137SAPE   H4X14911   5.912   2.495  10.037 -0.1473 -0.1674 -0.3556
  137SAPE   H4Y14912   6.047   2.381  10.029 -0.0459  0.4643 -0.3229
  137SAPE   C3514913   6.076   2.573   9.909 -0.1950  0.0929  0.1244
  137SAPE   H5X14914   6.185   2.562   9.921 -0.2646  0.4356  1.1536
  137SAPE   H5Y14915   6.050   2.680   9.925 -2.5388 -0.6788  2.2826
  137SAPE   C3614916   6.034   2.518   9.772 -0.3134 -1.1223  0.5562
  137SAPE   H6X14917   5.935   2.560   9.744 -0.8806 -1.1245  2.4482
  137SAPE   H6Y14918   6.043   2.407   9.773  2.2394 -0.9738  1.0217
  137SAPE   C3714919   6.124   2.587   9.669  0.0932 -0.1921  0.4855
  137SAPE   H7X14920   6.232   2.585   9.693  1.0756 -0.2347 -3.2785
  137SAPE   H7Y14921   6.090   2.692   9.655 -1.1170 -0.8225 -1.8993
  137SAPE   C3814922   6.121   2.526   9.524 -0.0065 -0.1169  0.3270
  137SAPE   H8X14923   6.014   2.518   9.494  0.0986 -1.3764  0.2373
  137SAPE   H8Y14924   6.161   2.422   9.528  0.2948 -0.0646 -0.9793
  137SAPE   C3914925   6.201   2.605   9.416 -0.0681  0.6245  0.4466
  137SAPE   H9X14926   6.299   2.625   9.465  0.5657 -0.5826 -0.2763
  137SAPE   H9Y14927   6.144   2.698   9.400 -1.8235 -0.3969  0.5690
  137SAPE  C31014928   6.221   2.521   9.288 -0.1241 -0.5121 -0.4610
  137SAPE  H10X14929   6.275   2.425   9.299 -1.0012 -1.0000 -0.3115
  137SAPE  H10Y14930   6.275   2.581   9.212 -1.7918  0.2479 -1.0987
  137SAPE  C31114931   6.086   2.479   9.227 -0.3775 -0.5776  0.1558
  137SAPE  H11X14932   6.042   2.568   9.176 -0.1807 -0.8156 -0.4455
  137SAPE  H11Y14933   6.018   2.449   9.309  1.1743 -0.3856  1.5650
  137SAPE  C31214934   6.090   2.373   9.123  0.1928  0.2830 -0.0987
  137SAPE  H12X14935   5.988   2.348   9.088  0.0499 -0.0093  0.5081
  137SAPE  H12Y14936   6.124   2.283   9.178  0.7895  1.1788  1.0445
  137SAPE  C31314937   6.185   2.397   9.004  0.1422  0.1443  0.4040
  137SAPE  H13X14938   6.190   2.307   8.939 -3.1110  0.2688 -0.1921
  137SAPE  H13Y14939   6.288   2.434   9.022 -0.4808  2.6939 -0.8377
  137SAPE  C31414940   6.133   2.514   8.910  0.2398  0.4497  0.4152
  137SAPE  H14X14941   6.175   2.613   8.940  1.3869  0.1651 -0.2089
  137SAPE  H14Y14942   6.023   2.521   8.891  0.6180  0.5933 -2.1629
  137SAPE  C31514943   6.187   2.496   8.762 -0.6509 -0.9050 -0.4442
  137SAPE  H15X14944   6.145   2.405   8.713  1.1064 -2.0306  0.0439
  137SAPE  H15Y14945   6.295   2.469   8.766 -0.3841  0.2565  0.9220
  137SAPE  C31614946   6.150   2.606   8.658 -0.3318  0.0922  0.1302
  137SAPE  H16X14947   6.188   2.705   8.692 -2.9776  0.7343  1.4764
  137SAPE  H16Y14948   6.041   2.618   8.642  0.0785  1.8604 -1.9267
  137SAPE  C31714949   6.225   2.570   8.521  0.5924 -0.3053 -0.7642
  137SAPE  H17X14950   6.180   2.477   8.478  0.0356 -0.5437  0.2986
  137SAPE  H17Y14951   6.333   2.556   8.541  0.3273 -2.8157 -0.7511
  137SAPE  C31814952   6.197   2.671   8.407 -0.3294 -0.6426  0.6462
  137SAPE  H18X14953   6.256   2.764   8.422 -0.2185 -0.3779 -1.2066
  137SAPE  H18Y14954   6.093   2.705   8.390  0.2028  0.4416 -0.6135
  137SAPE  H18Z14955   6.247   2.632   8.316  1.8612 -0.8326  1.8611
  138SAPE     N14956   1.621   2.816  11.132  0.3122 -0.2208 -0.3630
  138SAPE   HN114957   1.537   2.863  11.093  0.3143  1.2590  1.3190
  138SAPE   HN214958   1.601   2.716  11.156  0.7632 -0.7648 -2.0827
  138SAPE   HN314959   1.660   2.878  11.206  2.5535 -2.4165  0.4565
  138SAPE   C1214960   1.715   2.812  11.018  0.7129 -0.1714 -0.2282
  138SAPE  H12A14961   1.686   2.730  10.949 -0.5929  0.0084  0.0795
  138SAPE  H12B14962   1.815   2.792  11.062 -0.0587 -2.8404  0.5131
  138SAPE   C1114963   1.710   2.946  10.955  0.3986 -0.0659  1.0994
  138SAPE  H11A14964   1.781   2.947  10.870  0.7872  0.4078  1.4191
  138SAPE  H11B14965   1.740   3.021  11.032 -0.9771  0.3580  1.2420
  138SAPE     P14966   1.541   3.034  10.770 -0.0498 -0.1637  0.2200
  138SAPE   O1314967   1.398   3.069  10.760  0.4248  0.4895  0.1174
  138SAPE   O1414968   1.637   3.148  10.741  0.0721 -0.0733 -0.0538
  138SAPE   O1214969   1.581   2.977  10.910 -0.0871 -0.0998 -0.6497
  138SAPE   O1114970   1.573   2.905  10.683  0.3908  0.8810  0.1360
  138SAPE    C114971   1.586   2.902  10.543  0.5539  0.3877 -0.1019
  138SAPE    HA14972   1.487   2.881  10.495  1.3741 -0.0644 -1.6631
  138SAPE    HB14973   1.627   2.997  10.503  2.5853 -0.1509  0.6257
  138SAPE    C214974   1.687   2.790  10.489 -0.3340 -1.2273  0.7009
  138SAPE    HS14975   1.783   2.813  10.541 -0.4066 -4.2611  2.4299
  138SAPE   O2114976   1.705   2.789  10.347 -0.4169  0.4070  0.7220
  138SAPE   C2114977   1.802   2.716  10.292 -0.2953  0.0855  0.7617
  138SAPE   O2214978   1.885   2.655  10.358 -0.7636 -0.2368 -0.0415
  138SAPE   C2214979   1.820   2.728  10.144  0.2817  0.1824 -0.4004
  138SAPE   H2R14980   1.861   2.829  10.122  0.5169  0.0117 -0.7547
  138SAPE   H2S14981   1.901   2.656  10.119  0.7926  0.3799  0.6367
  138SAPE    C314982   1.653   2.650  10.549  0.8494 -0.4132 -0.0600
  138SAPE    HX14983   1.664   2.658  10.659 -2.0093  1.6536  0.1687
  138SAPE    HY14984   1.721   2.568  10.518 -0.5976 -0.8858 -2.1747
  138SAPE   O3114985   1.515   2.613  10.526 -0.0311  0.0450  0.5282
  138SAPE   C3114986   1.497   2.559  10.407 -0.5873 -0.4805 -0.4906
  138SAPE   O3214987   1.579   2.521  10.328 -0.7275  0.6383  0.0796
  138SAPE   C3214988   1.341   2.555  10.382  0.6202  0.0178  1.4231
  138SAPE   H2X14989   1.290   2.627  10.450 -0.5477 -1.0445  1.7014
  138SAPE   H2Y14990   1.305   2.456  10.416 -1.2075  0.4504  0.8391
  138SAPE   C2314991   1.696   2.696  10.062  0.1217 -0.3056 -0.1868
  138SAPE   H3R14992   1.610   2.732  10.123  1.3777  0.4507  1.1923
  138SAPE   H3S14993   1.671   2.593  10.028  0.9839 -0.6025  0.0688
  138SAPE   C2414994   1.693   2.774   9.929 -0.0016 -0.7095  0.3866
  138SAPE   H4R14995   1.710   2.883   9.944  0.4994 -0.4500 -1.7989
  138SAPE   H4S14996   1.586   2.763   9.899  0.5303 -1.6867 -1.2501
  138SAPE   C2514997   1.779   2.714   9.816  0.4754  0.1107 -0.5236
  138SAPE   H5R14998   1.885   2.720   9.844  0.3208 -0.5871  0.2873
  138SAPE   C2614999   1.745   2.660   9.696  0.2137  0.0042  0.4561
  138SAPE   H6R15000   1.819   2.602   9.638 -1.8279 -1.2546 -1.0515
  138SAPE   C2715001   1.606   2.648   9.639  0.3568 -0.0514  0.7314
  138SAPE   H7R15002   1.527   2.665   9.716 -0.9482  0.4168 -0.6613
  138SAPE   H7S15003   1.588   2.542   9.609 -0.1291  0.1888  0.1525
  138SAPE   C2815004   1.577   2.750   9.523  0.8612  0.0914 -0.2001
  138SAPE   H8R15005   1.533   2.842   9.563  0.7880 -0.3692  0.8116
  138SAPE   C2915006   1.594   2.721   9.389 -0.7321 -0.5506  0.3843
  138SAPE   H9R15007   1.563   2.801   9.320 -0.6003  0.8008  1.8427
  138SAPE  C21015008   1.645   2.596   9.323 -0.1719  0.3660 -0.1544
  138SAPE  H10R15009   1.562   2.525   9.304 -1.4797  1.7189  0.3613
  138SAPE  H10S15010   1.714   2.540   9.390 -1.5889  0.8504  1.7685
  138SAPE  C21115011   1.724   2.628   9.197  0.2497 -0.2237 -0.0387
  138SAPE  H11R15012   1.791   2.716   9.199 -0.6542  0.5283  2.8644
  138SAPE  C21215013   1.707   2.578   9.075 -0.3868  0.0914  0.0217
  138SAPE  H12R15014   1.784   2.604   9.001  0.1472  1.0355  0.8864
  138SAPE  C21315015   1.603   2.481   9.030  0.4328  0.3873  0.5635
  138SAPE  H13R15016   1.520   2.459   9.100  0.0026 -0.0503 -0.0659
  138SAPE  H13S15017   1.655   2.385   9.011 -1.7520 -0.4628 -1.7492
  138SAPE  C21415018   1.529   2.516   8.906 -0.1573  0.4061  0.0416
  138SAPE  H14R15019   1.503   2.623   8.898  0.6388  0.7491  1.6900
  138SAPE  C21515020   1.476   2.424   8.826 -0.2457 -0.3695  0.1720
  138SAPE  H15R15021   1.424   2.467   8.739 -1.0954 -2.1526 -0.2469
  138SAPE  C21615022   1.481   2.275   8.838  0.2342 -0.2548 -0.7838
  138SAPE  H16R15023   1.395   2.252   8.905 -0.2033  2.1193 -0.4470
  138SAPE  H16S15024   1.570   2.236   8.891 -2.7216 -1.9085  3.4761
  138SAPE  C21715025   1.470   2.202   8.697  0.4811  0.4959 -0.6793
  138SAPE  H17R15026   1.378   2.233   8.643 -0.9156 -1.5752  0.3445
  138SAPE  H17S15027   1.467   2.094   8.725 -0.2855  0.4061 -1.0556
  138SAPE  C21815028   1.595   2.225   8.611 -0.2227 -0.1622 -0.2301
  138SAPE  H18R15029   1.682   2.172   8.655  1.0442  2.5442  0.7432
  138SAPE  H18S15030   1.619   2.333   8.610  0.4552 -0.2551  1.7733
  138SAPE  C21915031   1.578   2.151   8.480  0.2128 -0.7198 -0.0637
  138SAPE  H19R15032   1.537   2.048   8.493 -1.3935  0.0387  1.1617
  138SAPE  H19S15033   1.679   2.129   8.439  0.3876  0.0225 -0.0398
  138SAPE  C22015034   1.497   2.222   8.372  0.0354  0.3217  0.2313
  138SAPE  H20R15035   1.514   2.330   8.349 -1.1939  0.2827 -0.9986
  138SAPE  H20S15036   1.388   2.217   8.390 -0.3056  2.4484 -0.8425
  138SAPE  H20T15037   1.522   2.177   8.273 -1.1440 -0.0676  0.0934
  138SAPE   C3315038   1.309   2.581  10.234  0.4725  0.7462  0.1737
  138SAPE   H3X15039   1.223   2.512  10.223  1.6257 -0.9547  1.4277
  138SAPE   H3Y15040   1.393   2.542  10.173 -0.2092 -2.3032  1.0465
  138SAPE   C3415041   1.276   2.731  10.195 -0.7575 -0.4718 -0.4569
  138SAPE   H4X15042   1.372   2.786  10.183 -1.7843  1.3078 -0.9081
  138SAPE   H4Y15043   1.214   2.772  10.277 -0.3590 -1.6861  0.4808
  138SAPE   C3515044   1.193   2.742  10.064 -0.1840  0.2037  0.7375
  138SAPE   H5X15045   1.168   2.846  10.032 -0.5896 -1.0673 -3.7180
  138SAPE   H5Y15046   1.098   2.687  10.076 -0.4892 -0.0278 -1.9715
  138SAPE   C3615047   1.262   2.674   9.946  0.5612 -0.0239 -0.5245
  138SAPE   H6X15048   1.270   2.563   9.953  1.3423 -0.1908 -3.0849
  138SAPE   H6Y15049   1.368   2.704   9.932  0.7338  0.8943  2.0954
  138SAPE   C3715050   1.163   2.701   9.825  0.3457 -0.6369 -0.0316
  138SAPE   H7X15051   1.184   2.810   9.814 -0.8323 -0.3495  0.4133
  138SAPE   H7Y15052   1.057   2.685   9.851  0.0709 -0.1299 -0.7825
  138SAPE   C3815053   1.212   2.632   9.697  0.0134  0.2912 -0.1580
  138SAPE   H8X15054   1.199   2.524   9.719 -0.2320  0.7175  2.0677
  138SAPE   H8Y15055   1.322   2.645   9.683  0.0909 -0.9326 -0.8077
  138SAPE   C3915056   1.142   2.666   9.571  0.1717  0.5140  0.6663
  138SAPE   H9X15057   1.136   2.775   9.552  0.8953  0.1758 -1.8952
  138SAPE   H9Y15058   1.037   2.629   9.576  0.6996 -1.5469 -1.7453
  138SAPE  C31015059   1.200   2.587   9.450 -0.2049  0.3442  0.0382
  138SAPE  H10X15060   1.188   2.478   9.466 -0.8665 -0.1545 -3.2390
  138SAPE  H10Y15061   1.308   2.611   9.438 -0.4452  1.0121 -0.8773
  138SAPE  C31115062   1.133   2.617   9.317  0.4789  0.3644 -0.0129
  138SAPE  H11X15063   1.151   2.723   9.288 -0.2215 -0.0176 -1.9850
  138SAPE  H11Y15064   1.022   2.608   9.327  0.4927 -1.6867 -1.1694
  138SAPE  C31215065   1.189   2.535   9.209 -0.4844  0.0026 -1.0002
  138SAPE  H12X15066   1.192   2.431   9.247  2.1857  0.4130  0.1781
  138SAPE  H12Y15067   1.298   2.551   9.192 -0.3576 -0.8137 -0.9922
  138SAPE  C31315068   1.112   2.539   9.082 -0.3224 -0.4287 -1.0423
  138SAPE  H13X15069   1.003   2.519   9.091 -0.2360 -0.4940  0.0201
  138SAPE  H13Y15070   1.144   2.460   9.010 -2.8358 -1.3972 -1.2099
  138SAPE  C31415071   1.128   2.683   9.015 -0.0537 -0.3398 -0.2608
  138SAPE  H14X15072   1.236   2.704   9.030 -0.0230 -0.5527 -0.1808
  138SAPE  H14Y15073   1.074   2.765   9.069  0.0654 -1.8987  2.4186
  138SAPE  C31515074   1.091   2.683   8.868  0.0892 -0.3519  0.4043
  138SAPE  H15X15075   1.145   2.599   8.818  0.6044 -0.1335  0.5919
  138SAPE  H15Y15076   1.134   2.771   8.816 -1.7435 -0.2328 -1.0027
  138SAPE  C31615077   0.944   2.670   8.852  0.0562  0.2862 -1.2536
  138SAPE  H16X15078   0.890   2.748   8.911 -0.5872 -0.5524 -0.7132
  138SAPE  H16Y15079   0.910   2.581   8.908 -0.7148  1.1789 -0.2532
  138SAPE  C31715080   0.882   2.666   8.711  0.5610  0.1359  0.1041
  138SAPE  H17X15081   0.778   2.628   8.718  1.5344 -2.7837 -0.0769
  138SAPE  H17Y15082   0.924   2.584   8.649 -0.9342 -0.7034  0.1375
  138SAPE  C31815083   0.877   2.804   8.635 -0.2076 -0.3509  0.7587
  138SAPE  H18X15084   0.860   2.793   8.525  3.2422  3.3299 -0.3919
  138SAPE  H18Y15085   0.974   2.855   8.653 -1.2991  1.7566  0.9714
  138SAPE  H18Z15086   0.799   2.868   8.681 -1.6861 -0.7449 -1.0628
  139SAPE     N15087   3.748   1.544  10.565 -0.6959  0.3751 -0.5454
  139SAPE   HN115088   3.666   1.491  10.602 -0.4648  0.1630 -0.3242
  139SAPE   HN215089   3.772   1.531  10.465  2.9139  0.1861  0.1976
  139SAPE   HN315090   3.835   1.516  10.616 -0.1781  2.3995 -0.2380
  139SAPE   C1215091   3.741   1.684  10.598 -0.4095  0.6338  0.4410
  139SAPE  H12A15092   3.672   1.729  10.524  1.7703  3.2890 -0.1309
  139SAPE  H12B15093   3.840   1.732  10.593  0.0737 -0.4326 -0.6044
  139SAPE   C1115094   3.678   1.696  10.736  0.5233 -0.5065  0.7259
  139SAPE  H11A15095   3.667   1.805  10.752 -2.8073 -0.6608  0.1898
  139SAPE  H11B15096   3.748   1.654  10.812  2.0507  1.3846  0.4444
  139SAPE     P15097   3.418   1.677  10.781  0.3803 -0.1418 -0.4064
  139SAPE   O1315098   3.318   1.571  10.806  0.0905 -0.2017 -0.0942
  139SAPE   O1415099   3.442   1.778  10.891  0.7462 -0.1710  0.0723
  139SAPE   O1215100   3.556   1.618  10.747  0.0604 -0.2625  0.6993
  139SAPE   O1115101   3.374   1.759  10.654  0.2815 -0.0655 -0.4574
  139SAPE    C115102   3.331   1.703  10.532 -0.3797 -0.1335  0.5639
  139SAPE    HA15103   3.363   1.597  10.520  3.5691  0.9367  0.1310
  139SAPE    HB15104   3.221   1.715  10.534 -0.2048  1.7048  2.0073
  139SAPE    C215105   3.372   1.767  10.394  0.3293 -0.4533  0.3749
  139SAPE    HS15106   3.280   1.789  10.335  1.0218  0.9586 -0.2293
  139SAPE   O2115107   3.452   1.679  10.321  0.6411  0.4618 -0.6138
  139SAPE   C2115108   3.384   1.583  10.263  0.3356  0.7277 -0.4829
  139SAPE   O2215109   3.265   1.559  10.272 -0.0936 -0.4038 -0.0491
  139SAPE   C2215110   3.491   1.505  10.174  0.3650 -0.1057 -0.2127
  139SAPE   H2R15111   3.558   1.580  10.127  1.5700 -1.5699 -0.9028
  139SAPE   H2S15112   3.553   1.450  10.248  1.0577  1.2383  0.2402
  139SAPE    C315113   3.459   1.899  10.421 -0.5675 -0.4105 -0.1199
  139SAPE    HX15114   3.539   1.874  10.494 -2.3083 -1.5645  1.4833
  139SAPE    HY15115   3.401   1.980  10.469 -0.1070 -0.1001 -0.0860
  139SAPE   O3115116   3.510   1.949  10.295  0.6208  0.2628 -0.7807
  139SAPE   C3115117   3.638   1.936  10.269 -0.0155 -0.4959  0.3597
  139SAPE   O3215118   3.717   1.870  10.332 -0.3372  0.8605  0.5786
  139SAPE   C3215119   3.675   2.024  10.141 -0.8661  0.4529 -0.4877
  139SAPE   H2X15120   3.784   2.005  10.131 -1.1530 -0.3836 -2.6500
  139SAPE   H2Y15121   3.655   2.129  10.172  1.8278  1.2405 -1.1198
  139SAPE   C2315122   3.429   1.416  10.066  0.4090 -0.6399  0.6354
  139SAPE   H3R15123   3.370   1.483   9.999  0.0602 -0.7599  0.8170
  139SAPE   H3S15124   3.347   1.353  10.108 -0.6356  0.9258  1.0410
  139SAPE   C2415125   3.525   1.329   9.984 -0.1995  0.0025  0.2535
  139SAPE   H4R15126   3.481   1.239   9.937  1.2484 -0.2168 -0.7632
  139SAPE   H4S15127   3.597   1.278  10.052 -2.3752 -0.5591  2.2313
  139SAPE   C2515128   3.597   1.409   9.884  0.6912 -0.0875  0.1049
  139SAPE   H5R15129   3.702   1.434   9.907  0.8587 -0.8715  0.2078
  139SAPE   C2615130   3.545   1.434   9.760 -0.8736 -0.8168 -0.1201
  139SAPE   H6R15131   3.604   1.486   9.683  0.5237  0.0691  1.4857
  139SAPE   C2715132   3.411   1.408   9.697 -0.1981  1.0830 -0.4487
  139SAPE   H7R15133   3.391   1.484   9.619  1.6153  1.4055 -0.6494
  139SAPE   H7S15134   3.331   1.433   9.769  0.1443  1.5705 -0.2330
  139SAPE   C2815135   3.398   1.263   9.648 -0.4754  0.6632  0.5055
  139SAPE   H8R15136   3.449   1.193   9.716  1.7466 -0.1623 -1.8777
  139SAPE   C2915137   3.341   1.217   9.532  0.7516  0.4385 -0.1071
  139SAPE   H9R15138   3.329   1.109   9.512  0.9250  0.0312  1.8274
  139SAPE  C21015139   3.269   1.307   9.428  0.1671  0.3294 -0.5008
  139SAPE  H10R15140   3.343   1.386   9.405  1.6197 -0.4991  1.0709
  139SAPE  H10S15141   3.190   1.365   9.480  0.4936  0.5028 -0.1905
  139SAPE  C21115142   3.237   1.255   9.296  0.2295 -0.4354  0.5325
  139SAPE  H11R15143   3.315   1.271   9.220  1.8303 -0.9059  2.0113
  139SAPE  C21215144   3.129   1.190   9.251 -0.6061  0.4152 -0.3987
  139SAPE  H12R15145   3.122   1.144   9.151  0.4053 -0.1249 -0.2310
  139SAPE  C21315146   3.012   1.153   9.339  0.2753  0.2706 -0.2817
  139SAPE  H13R15147   3.048   1.151   9.444  1.6561 -0.6030 -0.7468
  139SAPE  H13S15148   2.986   1.046   9.330  1.7247 -0.1520  0.2899
  139SAPE  C21415149   2.885   1.234   9.317 -0.0826 -1.1871  0.1027
  139SAPE  H14R15150   2.875   1.272   9.215 -1.1911 -2.0617 -0.1382
  139SAPE  C21515151   2.798   1.278   9.406 -0.2990  0.2754 -0.1342
  139SAPE  H15R15152   2.716   1.347   9.381 -1.3920 -1.0690 -0.3496
  139SAPE  C21615153   2.821   1.241   9.549  0.0186 -0.1542 -0.0693
  139SAPE  H16R15154   2.888   1.313   9.602 -0.5001  0.3124 -0.0326
  139SAPE  H16S15155   2.876   1.145   9.551  0.8621  0.2393 -1.9832
  139SAPE  C21715156   2.686   1.233   9.625 -0.0906 -0.2479 -0.3208
  139SAPE  H17R15157   2.709   1.185   9.722  4.5399  0.1286 -0.9935
  139SAPE  H17S15158   2.627   1.152   9.576 -1.7378 -1.2290  3.0165
  139SAPE  C21815159   2.609   1.366   9.643  0.0383  0.3085  0.5795
  139SAPE  H18R15160   2.527   1.338   9.712  0.9183  1.1847  2.0194
  139SAPE  H18S15161   2.556   1.403   9.552 -1.2656  1.7692  1.8670
  139SAPE  C21915162   2.682   1.485   9.716  0.7741 -0.5747 -0.2643
  139SAPE  H19R15163   2.614   1.573   9.719  3.4264  1.6329  3.3211
  139SAPE  H19S15164   2.756   1.510   9.637  1.9245 -2.8275  0.0216
  139SAPE  C22015165   2.747   1.449   9.852  0.5287 -0.8525 -0.0049
  139SAPE  H20R15166   2.768   1.539   9.914 -0.6663 -1.0390  0.7084
  139SAPE  H20S15167   2.847   1.406   9.830  1.8169  2.2631 -0.7818
  139SAPE  H20T15168   2.687   1.388   9.923  0.6587 -0.4129  0.4809
  139SAPE   C3315169   3.600   1.998  10.007  0.2923  0.5159  0.4978
  139SAPE   H3X15170   3.643   2.073   9.936  0.0595  1.1780  1.0485
  139SAPE   H3Y15171   3.493   2.023  10.019 -0.1211 -0.0571 -1.6376
  139SAPE   C3415172   3.624   1.856   9.955  0.3889 -0.0029 -0.4547
  139SAPE   H4X15173   3.574   1.794  10.032  0.2538  1.6397  0.8266
  139SAPE   H4Y15174   3.733   1.834   9.954 -0.0814 -2.9704  1.4345
  139SAPE   C3515175   3.557   1.830   9.821  0.5644 -0.4035  0.5347
  139SAPE   H5X15176   3.450   1.856   9.834  1.2480  1.2834  4.1266
  139SAPE   H5Y15177   3.558   1.720   9.811 -2.8754 -0.6260  1.4151
  139SAPE   C3615178   3.614   1.904   9.706 -0.0953  0.0853  0.7801
  139SAPE   H6X15179   3.721   1.875   9.699 -0.4074 -0.6272 -1.9585
  139SAPE   H6Y15180   3.613   2.014   9.723  1.0568  0.8233 -3.0057
  139SAPE   C3715181   3.542   1.873   9.572 -0.7542  0.0934  0.2075
  139SAPE   H7X15182   3.442   1.920   9.573 -0.9401 -0.2840  1.3514
  139SAPE   H7Y15183   3.523   1.764   9.560  0.3017  0.0777 -1.6818
  139SAPE   C3815184   3.625   1.921   9.453  1.0109  0.6634 -0.7791
  139SAPE   H8X15185   3.719   1.862   9.444 -0.4658 -2.1639  0.8629
  139SAPE   H8Y15186   3.657   2.025   9.472  2.2685  0.4199 -1.4322
  139SAPE   C3915187   3.534   1.915   9.323 -0.3417 -0.3359  0.7406
  139SAPE   H9X15188   3.457   1.995   9.329  0.6365  0.5327  2.6268
  139SAPE   H9Y15189   3.490   1.813   9.321 -2.0595  0.3028 -2.8489
  139SAPE  C31015190   3.614   1.938   9.193  0.4272  0.4996 -0.3882
  139SAPE  H10X15191   3.714   1.890   9.205 -0.2313 -0.4639  1.5651
  139SAPE  H10Y15192   3.631   2.045   9.167 -1.7525  0.7724 -0.8715
  139SAPE  C31115193   3.546   1.881   9.068 -0.3250 -0.0655  0.2896
  139SAPE  H11X15194   3.456   1.943   9.048 -0.2300  1.1275  3.1691
  139SAPE  H11Y15195   3.518   1.777   9.093 -1.9114 -0.6052 -3.2050
  139SAPE  C31215196   3.649   1.882   8.945  0.2640  0.3293 -0.0926
  139SAPE  H12X15197   3.754   1.865   8.974  0.1242 -1.5810 -0.5676
  139SAPE  H12Y15198   3.653   1.987   8.908  0.3763 -0.3136 -2.0181
  139SAPE  C31315199   3.603   1.784   8.835 -0.7550  0.4255 -0.6986
  139SAPE  H13X15200   3.594   1.688   8.890 -1.1354  0.9609  0.2091
  139SAPE  H13Y15201   3.677   1.775   8.753 -1.8529 -1.4722 -1.5326
  139SAPE  C31415202   3.468   1.810   8.790 -0.1608 -0.4964 -0.1411
  139SAPE  H14X15203   3.458   1.917   8.762 -0.1103 -0.9968 -2.2393
  139SAPE  H14Y15204   3.386   1.787   8.861 -1.1253  0.9409 -0.7318
  139SAPE  C31515205   3.433   1.728   8.659 -0.2770 -0.7165 -0.0862
  139SAPE  H15X15206   3.478   1.626   8.659  2.3207  0.3291 -0.6555
  139SAPE  H15Y15207   3.484   1.792   8.583  0.0591 -1.1394 -0.2253
  139SAPE  C31615208   3.281   1.730   8.634 -0.3027  0.6998 -0.4424
  139SAPE  H16X15209   3.241   1.631   8.604  1.0036 -0.3926  1.2063
  139SAPE  H16Y15210   3.222   1.764   8.722 -1.5587 -0.3626 -0.8545
  139SAPE  C31715211   3.261   1.837   8.526  0.0771  1.1349  0.3860
  139SAPE  H17X15212   3.290   1.814   8.421 -2.3214  0.4556 -0.1846
  139SAPE  H17Y15213   3.295   1.937   8.559 -3.3882  2.8390 -0.7208
  139SAPE  C31815214   3.110   1.871   8.534 -0.2201  0.4916 -0.5300
  139SAPE  H18X15215   3.087   1.926   8.627 -0.0502  0.2798 -0.3596
  139SAPE  H18Y15216   3.049   1.779   8.522 -1.8905  1.6219 -0.9963
  139SAPE  H18Z15217   3.088   1.925   8.440 -1.0716  0.4426 -0.3658
  140SAPE     N15218   5.010   4.364  10.977  0.4085  0.2564 -0.5466
  140SAPE   HN115219   5.078   4.329  11.048  2.2074 -0.7411 -2.6395
  140SAPE   HN215220   4.964   4.450  11.011 -1.6822 -0.9911 -0.0412
  140SAPE   HN315221   4.936   4.290  10.971  0.6293 -0.1695  1.2619
  140SAPE   C1215222   5.088   4.378  10.848 -0.5278 -0.6623  0.0288
  140SAPE  H12A15223   5.182   4.431  10.877  0.0216 -0.4373 -2.0439
  140SAPE  H12B15224   5.021   4.439  10.784  0.3676  1.9836  1.4218
  140SAPE   C1115225   5.130   4.237  10.793  0.3665 -0.6327 -0.3207
  140SAPE  H11A15226   5.164   4.252  10.688  0.1542  1.2980 -0.1495
  140SAPE  H11B15227   5.034   4.182  10.788 -0.3595 -0.0260  3.7356
  140SAPE     P15228   5.371   4.189  10.895 -0.5135  0.1299 -0.0363
  140SAPE   O1315229   5.389   4.337  10.890  0.2222 -0.1626  0.9861
  140SAPE   O1415230   5.404   4.126  11.024  0.1510  0.6501 -0.6067
  140SAPE   O1215231   5.218   4.156  10.869  0.0253  0.1331 -0.2509
  140SAPE   O1115232   5.438   4.114  10.771  0.2397 -0.4042 -0.5738
  140SAPE    C115233   5.444   3.973  10.766  0.3679 -0.1337 -0.1942
  140SAPE    HA15234   5.522   3.928  10.831 -0.7526 -2.5295 -0.4181
  140SAPE    HB15235   5.348   3.925  10.795 -0.1719 -0.6317 -2.5699
  140SAPE    C215236   5.463   3.943  10.612 -0.0414 -0.2527  0.0493
  140SAPE    HS15237   5.454   3.833  10.598 -5.2525 -0.4185  2.3971
  140SAPE   O2115238   5.581   3.998  10.566 -0.1906 -0.9889 -0.0889
  140SAPE   C2115239   5.685   3.911  10.561 -0.8030  0.0298  0.4178
  140SAPE   O2215240   5.689   3.805  10.619 -0.2549 -0.5418 -0.5363
  140SAPE   C2215241   5.805   3.961  10.481  0.7692  0.4059 -0.1554
  140SAPE   H2R15242   5.759   3.997  10.387 -0.4753 -1.2226 -0.2087
  140SAPE   H2S15243   5.852   4.048  10.530  0.3824 -0.3974  1.7383
  140SAPE    C315244   5.347   4.002  10.538  0.1302  0.7897 -0.2304
  140SAPE    HX15245   5.348   4.112  10.553 -1.8207  0.6928  0.8879
  140SAPE    HY15246   5.259   3.950  10.581  0.4966  1.8707  1.9640
  140SAPE   O3115247   5.360   3.959  10.402  0.5641 -0.0075  0.2816
  140SAPE   C3115248   5.370   4.061  10.311 -0.1410  0.1397  0.8126
  140SAPE   O3215249   5.374   4.181  10.342 -0.0298  0.2770 -0.0766
  140SAPE   C3215250   5.383   3.999  10.180 -0.6020  0.7601  0.0428
  140SAPE   H2X15251   5.282   3.972  10.141 -1.2589  1.9717  0.8395
  140SAPE   H2Y15252   5.445   3.907  10.195  0.0519  1.4931  2.3308
  140SAPE   C2315253   5.908   3.843  10.454 -0.0883 -0.5767  0.2029
  140SAPE   H3R15254   5.918   3.783  10.547  0.1903 -0.2826  0.3651
  140SAPE   H3S15255   6.007   3.890  10.438  1.4058 -2.8109  2.0496
  140SAPE   C2415256   5.872   3.753  10.332  0.7043 -0.7642 -0.0670
  140SAPE   H4R15257   5.965   3.697  10.305 -0.2420 -1.9995 -0.8713
  140SAPE   H4S15258   5.855   3.830  10.255 -2.8373 -0.5396  0.7922
  140SAPE   C2515259   5.764   3.650  10.343 -0.1167 -0.5810 -0.5940
  140SAPE   H5R15260   5.766   3.622  10.449 -1.6857  2.7328  0.4249
  140SAPE   C2615261   5.660   3.614  10.270 -0.3510 -0.0724 -0.4662
  140SAPE   H6R15262   5.600   3.527  10.299 -0.1500  0.3901  1.4685
  140SAPE   C2715263   5.629   3.673  10.135 -0.2914  0.0138 -0.0058
  140SAPE   H7R15264   5.716   3.669  10.066 -0.7774  1.2247 -0.7372
  140SAPE   H7S15265   5.613   3.782  10.149  0.3760  0.0277  0.6836
  140SAPE   C2815266   5.500   3.616  10.077 -0.0122 -0.4376 -1.0078
  140SAPE   H8R15267   5.433   3.576  10.155  2.7025 -1.4547  0.9692
  140SAPE   C2915268   5.459   3.622   9.951  0.0806  0.5199  0.3399
  140SAPE   H9R15269   5.357   3.585   9.936 -0.4643  0.8144  2.8108
  140SAPE  C21015270   5.536   3.677   9.835  0.5456  0.5662  0.9167
  140SAPE  H10R15271   5.622   3.738   9.869  1.2434 -0.0669  0.3137
  140SAPE  H10S15272   5.464   3.743   9.783  2.3945  1.7945 -0.2045
  140SAPE  C21115273   5.589   3.575   9.734 -0.1255  0.5135  0.1901
  140SAPE  H11R15274   5.683   3.527   9.763  0.5458  2.6257  1.7615
  140SAPE  C21215275   5.538   3.543   9.612 -0.3931  0.2681 -1.2583
  140SAPE  H12R15276   5.598   3.477   9.547 -1.0986 -0.8773 -0.7752
  140SAPE  C21315277   5.421   3.603   9.534  0.0648  0.3344 -0.3658
  140SAPE  H13R15278   5.347   3.634   9.611 -2.3442  1.2850 -2.9014
  140SAPE  H13S15279   5.367   3.528   9.474  0.5209  0.3129 -0.7534
  140SAPE  C21415280   5.434   3.736   9.451 -0.9359  0.1596  0.3184
  140SAPE  H14R15281   5.406   3.830   9.501  1.0616  1.3462 -0.6521
  140SAPE  C21515282   5.491   3.746   9.330 -0.5826  0.1755  0.0740
  140SAPE  H15R15283   5.467   3.836   9.271 -1.8677  1.4793  2.4368
  140SAPE  C21615284   5.537   3.627   9.248 -0.4925  0.6145  0.3624
  140SAPE  H16R15285   5.486   3.532   9.277 -1.2339  0.6229 -0.8547
  140SAPE  H16S15286   5.646   3.609   9.261 -0.9941 -3.0004  0.4585
  140SAPE  C21715287   5.514   3.642   9.096  0.2979  0.4292 -0.9001
  140SAPE  H17R15288   5.554   3.731   9.042  1.2045  2.5277  2.8817
  140SAPE  H17S15289   5.404   3.641   9.080  0.1151 -0.7669  0.3035
  140SAPE  C21815290   5.577   3.513   9.020  0.0506 -0.9296  0.2493
  140SAPE  H18R15291   5.559   3.423   9.083  0.2038 -0.3510  1.1458
  140SAPE  H18S15292   5.688   3.523   9.026 -0.0054 -0.1782  0.1031
  140SAPE  C21915293   5.525   3.506   8.870  0.7723 -0.1419  0.3716
  140SAPE  H19R15294   5.585   3.586   8.822 -0.2734  0.5530  0.1902
  140SAPE  H19S15295   5.419   3.541   8.874  0.3376 -1.0631 -1.8709
  140SAPE  C22015296   5.535   3.381   8.795  0.5891 -0.4904  0.4297
  140SAPE  H20R15297   5.520   3.401   8.687 -0.9959  0.5986  0.8079
  140SAPE  H20S15298   5.456   3.308   8.823 -2.5876  2.4762 -0.1092
  140SAPE  H20T15299   5.635   3.336   8.809  0.9724  0.5316  1.0553
  140SAPE   C3315300   5.450   4.091  10.076  0.4655 -0.3137 -0.4347
  140SAPE   H3X15301   5.558   4.083  10.101 -0.1386 -2.5284  1.9478
  140SAPE   H3Y15302   5.421   4.197  10.094 -1.6482 -1.1497  1.7400
  140SAPE   C3415303   5.419   4.063   9.933  0.4341 -0.2590 -0.3209
  140SAPE   H4X15304   5.314   4.094   9.913  0.9420  1.1196 -0.9595
  140SAPE   H4Y15305   5.417   3.953   9.921 -2.6855 -0.2359 -0.6825
  140SAPE   C3515306   5.510   4.134   9.838 -0.0305 -0.0842  0.7381
  140SAPE   H5X15307   5.618   4.114   9.848  0.1675  1.3909  1.8951
  140SAPE   H5Y15308   5.510   4.242   9.864  2.8433 -0.7977  4.5681
  140SAPE   C3615309   5.458   4.109   9.692 -0.0143  0.7184 -0.3283
  140SAPE   H6X15310   5.357   4.153   9.700  0.7811  2.3996  1.2678
  140SAPE   H6Y15311   5.458   3.999   9.675  2.9407  1.0095 -3.3396
  140SAPE   C3715312   5.549   4.170   9.585 -0.6100  0.0015  0.0563
  140SAPE   H7X15313   5.646   4.135   9.628 -0.0190 -0.8529 -1.8419
  140SAPE   H7Y15314   5.536   4.279   9.599 -1.5720 -0.2365  1.1319
  140SAPE   C3815315   5.553   4.116   9.446 -0.1526 -0.4523 -0.7957
  140SAPE   H8X15316   5.454   4.123   9.396  0.0547 -1.3668 -1.3686
  140SAPE   H8Y15317   5.569   4.007   9.460 -1.4737 -0.3878  1.6881
  140SAPE   C3915318   5.668   4.165   9.359 -0.1321  0.2146 -1.1612
  140SAPE   H9X15319   5.765   4.131   9.402 -0.3710  2.4437  1.4138
  140SAPE   H9Y15320   5.667   4.276   9.365 -0.0418  0.1517  0.8595
  140SAPE  C31015321   5.653   4.117   9.219  0.3122  0.3823 -0.3092
  140SAPE  H10X15322   5.559   4.151   9.171 -0.9649 -0.5777  1.4219
  140SAPE  H10Y15323   5.653   4.006   9.229 -2.1334  0.2162 -1.3673
  140SAPE  C31115324   5.777   4.160   9.137  0.4227 -0.5343  0.1134
  140SAPE  H11X15325   5.765   4.131   9.030  0.1372  1.4068 -0.4108
  140SAPE  H11Y15326   5.872   4.116   9.173  1.3244  1.7335  0.6721
  140SAPE  C31215327   5.803   4.311   9.132  0.1674  0.2544 -0.0565
  140SAPE  H12X15328   5.856   4.341   9.224 -1.2709  0.8592  0.6060
  140SAPE  H12Y15329   5.706   4.366   9.138 -0.3355 -0.7376  1.4366
  140SAPE  C31315330   5.885   4.348   9.012  0.2974 -0.8795 -0.3145
  140SAPE  H13X15331   5.876   4.459   9.008 -1.6791 -0.9936  0.0512
  140SAPE  H13Y15332   5.840   4.297   8.924  0.4177 -1.5717  0.0193
  140SAPE  C31415333   6.038   4.308   9.018  0.9343  0.4156 -0.3454
  140SAPE  H14X15334   6.031   4.200   9.042 -1.5264  0.6274  0.2082
  140SAPE  H14Y15335   6.095   4.340   9.108 -1.6742  1.0959  1.1648
  140SAPE  C31515336   6.120   4.325   8.889 -0.0986  0.2155 -0.3578
  140SAPE  H15X15337   6.104   4.425   8.842  1.5896  0.3358 -0.7288
  140SAPE  H15Y15338   6.089   4.237   8.829 -0.2097  0.2287 -0.3198
  140SAPE  C31615339   6.273   4.318   8.911 -0.2880  0.0567 -0.1113
  140SAPE  H16X15340   6.323   4.284   8.817 -0.0496 -3.0589  1.0400
  140SAPE  H16Y15341   6.301   4.246   8.990  3.6774 -0.6364 -1.8525
  140SAPE  C31715342   6.344   4.450   8.957  0.4001 -0.6340  0.6566
  140SAPE  H17X15343   6.449   4.428   8.983  0.3312 -0.1138  1.3892
  140SAPE  H17Y15344   6.291   4.470   9.052  0.8909  0.2949  0.7444
  140SAPE  C31815345   6.322   4.573   8.870  0.5478  0.3736  0.5308
  140SAPE  H18X15346   6.215   4.599   8.866  0.9018  1.6971 -1.8039
  140SAPE  H18Y15347   6.355   4.548   8.767 -1.3655  0.0393 -0.0262
  140SAPE  H18Z15348   6.366   4.661   8.922  0.0507  0.6067  0.5535
  141SAPE     N15349   5.819   5.670  10.885 -0.1802 -0.1257 -0.1322
  141SAPE   HN115350   5.804   5.675  10.988  0.5321 -1.7698  0.0784
  141SAPE   HN215351   5.864   5.578  10.870  0.4755 -0.3801  2.8018
  141SAPE   HN315352   5.882   5.749  10.860 -0.1480  0.1685  0.8286
  141SAPE   C1215353   5.692   5.676  10.803  0.1016  0.1969  0.6916
  141SAPE  H12A15354   5.716   5.629  10.706 -2.1957 -3.7546  1.8158
  141SAPE  H12B15355   5.658   5.781  10.788  0.3045  0.1704  0.0360
  141SAPE   C1115356   5.589   5.581  10.860 -0.4200  0.2749 -0.3271
  141SAPE  H11A15357   5.490   5.600  10.813  0.3222  3.5615 -0.8142
  141SAPE  H11B15358   5.561   5.598  10.966 -2.5303  2.5770 -1.1631
  141SAPE     P15359   5.553   5.327  10.822 -0.1336 -0.1764  0.0227
  141SAPE   O1315360   5.588   5.214  10.915  0.6637  0.2728 -0.1893
  141SAPE   O1415361   5.409   5.377  10.818  0.1281 -0.1888 -0.7990
  141SAPE   O1215362   5.649   5.448  10.844  0.4831  0.2942 -0.4351
  141SAPE   O1115363   5.582   5.277  10.676  0.3271 -0.0241 -0.0368
  141SAPE    C115364   5.659   5.356  10.584 -0.3090  0.5094 -0.6284
  141SAPE    HA15365   5.594   5.437  10.545 -2.0416 -1.3261 -1.7880
  141SAPE    HB15366   5.748   5.403  10.631 -0.6656  0.4707  0.1004
  141SAPE    C215367   5.709   5.262  10.471 -0.1647 -0.0567  0.9542
  141SAPE    HS15368   5.772   5.328  10.408 -1.0678  2.0174  2.1233
  141SAPE   O2115369   5.596   5.213  10.405 -0.7438 -0.0302  0.1503
  141SAPE   C2115370   5.599   5.203  10.269  0.0370  0.0027 -0.2257
  141SAPE   O2215371   5.683   5.261  10.204 -0.0767 -0.2243 -0.0931
  141SAPE   C2215372   5.462   5.154  10.229 -0.2270 -0.5759  0.5646
  141SAPE   H2R15373   5.465   5.044  10.244  0.8446 -0.5159  0.8577
  141SAPE   H2S15374   5.391   5.191  10.306 -0.4026 -1.6021  0.9161
  141SAPE    C315375   5.785   5.135  10.517 -0.0187 -0.4849 -0.5195
  141SAPE    HX15376   5.707   5.082  10.577 -1.4591  1.7350 -0.3247
  141SAPE    HY15377   5.875   5.150  10.579  0.0871 -0.8269 -0.5867
  141SAPE   O3115378   5.812   5.041  10.414  0.2711 -0.1375  0.1690
  141SAPE   C3115379   5.907   5.067  10.332  0.2788 -0.4698  0.5582
  141SAPE   O3215380   5.975   5.169  10.329 -0.4114  0.0909 -0.1236
  141SAPE   C3215381   5.924   4.946  10.243  0.4178 -0.6082 -0.5796
  141SAPE   H2X15382   5.831   4.933  10.184 -0.1092  0.8201 -0.0865
  141SAPE   H2Y15383   5.944   4.855  10.305 -0.4191 -0.0306  0.5740
  141SAPE   C2315384   5.425   5.188  10.080 -0.3346 -1.0054 -0.3372
  141SAPE   H3R15385   5.484   5.135  10.002  1.1443  1.4964 -1.0307
  141SAPE   H3S15386   5.445   5.296  10.068 -2.8550 -0.0772  2.5310
  141SAPE   C2415387   5.272   5.169  10.064 -0.3325 -0.1064  0.2084
  141SAPE   H4R15388   5.241   5.231   9.977 -0.5752  1.1815  1.1724
  141SAPE   H4S15389   5.217   5.213  10.150 -0.5109 -0.4080  0.2488
  141SAPE   C2515390   5.239   5.020  10.050 -0.0621 -0.3597 -0.0918
  141SAPE   H5R15391   5.195   4.980  10.143 -2.3904  2.1475  0.0500
  141SAPE   C2615392   5.251   4.945   9.937  0.1791  0.4413 -0.5450
  141SAPE   H6R15393   5.212   4.843   9.949 -0.5784  0.8802  0.9897
  141SAPE   C2715394   5.283   4.990   9.799  0.5158 -0.2129 -0.2382
  141SAPE   H7R15395   5.336   5.088   9.802 -1.0745  0.6770 -0.3732
  141SAPE   H7S15396   5.188   5.000   9.743  0.7487 -1.6656 -0.9684
  141SAPE   C2815397   5.374   4.886   9.727  0.2304 -0.3976  0.1430
  141SAPE   H8R15398   5.419   4.817   9.800  1.1766  0.4447  0.3679
  141SAPE   C2915399   5.389   4.884   9.589  0.0581 -0.1649 -0.8213
  141SAPE   H9R15400   5.442   4.804   9.536 -2.2225 -1.1627 -1.7546
  141SAPE  C21015401   5.326   4.983   9.492 -0.0743  0.2746 -0.9859
  141SAPE  H10R15402   5.225   5.002   9.533  0.9388  1.2781  1.1731
  141SAPE  H10S15403   5.309   4.942   9.390 -1.1026  1.1998 -1.2038
  141SAPE  C21115404   5.416   5.103   9.478 -0.8052 -0.0688  0.2200
  141SAPE  H11R15405   5.498   5.114   9.551 -2.2588 -0.3369  1.9742
  141SAPE  C21215406   5.424   5.184   9.371  0.0454 -0.0063  0.2374
  141SAPE  H12R15407   5.487   5.275   9.372  1.9520 -1.2049 -1.7710
  141SAPE  C21315408   5.338   5.180   9.242  0.6430  0.1454 -0.0786
  141SAPE  H13R15409   5.324   5.074   9.213 -0.8490  0.4835 -0.6631
  141SAPE  H13S15410   5.388   5.235   9.159  1.6007 -0.5962 -0.0121
  141SAPE  C21415411   5.203   5.240   9.265 -0.2488 -0.2239 -0.5769
  141SAPE  H14R15412   5.176   5.256   9.370  1.3847  3.9253 -0.6032
  141SAPE  C21515413   5.119   5.281   9.172  0.6639 -0.3374 -0.3259
  141SAPE  H15R15414   5.015   5.308   9.197  0.3358 -3.3870  2.2469
  141SAPE  C21615415   5.157   5.280   9.022  0.4230  1.0433 -0.7179
  141SAPE  H16R15416   5.244   5.217   8.994 -0.5172 -0.2196 -0.8633
  141SAPE  H16S15417   5.180   5.386   8.998 -0.3731  1.6624  1.0544
  141SAPE  C21715418   5.042   5.226   8.926 -0.1408 -0.7647 -0.0875
  141SAPE  H17R15419   4.956   5.292   8.951  1.1816  1.7887 -1.7287
  141SAPE  H17S15420   5.040   5.122   8.965 -0.1023  0.2920  2.9925
  141SAPE  C21815421   5.074   5.228   8.776 -1.0380 -0.4490 -0.2934
  141SAPE  H18R15422   5.025   5.139   8.730 -1.8654  0.6237 -1.5285
  141SAPE  H18S15423   5.185   5.236   8.773 -0.9096  1.0277  3.6578
  141SAPE  C21915424   5.013   5.354   8.728 -0.2975  0.0404  0.6105
  141SAPE  H19R15425   5.055   5.449   8.766 -0.0359 -0.0574  0.5742
  141SAPE  H19S15426   4.908   5.357   8.763 -1.5071 -3.0023 -2.2448
  141SAPE  C22015427   5.001   5.356   8.574 -0.5316 -0.2387  0.0080
  141SAPE  H20R15428   5.094   5.320   8.525 -0.3774 -1.7919  1.3636
  141SAPE  H20S15429   4.973   5.457   8.537  0.1405 -0.3983 -0.9847
  141SAPE  H20T15430   4.925   5.282   8.540 -0.6688  0.7861 -2.0735
  141SAPE   C3315431   6.034   4.977  10.129  0.0682  0.3652  0.0552
  141SAPE   H3X15432   6.133   4.977  10.178 -0.0157  0.5711  0.2258
  141SAPE   H3Y15433   6.024   5.077  10.082 -2.0495 -0.9684 -2.6532
  141SAPE   C3415434   6.031   4.874  10.024 -0.5450 -0.7811  0.6477
  141SAPE   H4X15435   5.959   4.896   9.942  1.6958  0.5799 -1.0838
  141SAPE   H4Y15436   6.010   4.777  10.073 -0.7977 -1.2970 -0.4525
  141SAPE   C3515437   6.165   4.862   9.952 -0.2474 -0.4520  0.1499
  141SAPE   H5X15438   6.241   4.841  10.031 -0.5557  0.3481  0.6686
  141SAPE   H5Y15439   6.189   4.959   9.905 -0.7389 -0.6777 -0.5833
  141SAPE   C3615440   6.154   4.754   9.845  0.2274  0.2638  0.8820
  141SAPE   H6X15441   6.059   4.756   9.787  0.0562 -0.6586  1.1055
  141SAPE   H6Y15442   6.154   4.654   9.894  0.6364  0.9145  2.2688
  141SAPE   C3715443   6.265   4.773   9.739  0.4822  0.4089  0.1006
  141SAPE   H7X15444   6.366   4.759   9.783  0.9697  2.7563 -0.1202
  141SAPE   H7Y15445   6.262   4.881   9.712 -2.5881  0.2579 -0.5415
  141SAPE   C3815446   6.249   4.688   9.612 -0.4755  0.0733 -0.1575
  141SAPE   H8X15447   6.214   4.587   9.641  0.0632  0.1937  1.0042
  141SAPE   H8Y15448   6.348   4.678   9.563 -0.3646 -1.1874  0.2776
  141SAPE   C3915449   6.152   4.753   9.510 -0.2827 -0.0075  0.3998
  141SAPE   H9X15450   6.165   4.863   9.495 -1.4739  0.1414  0.3983
  141SAPE   H9Y15451   6.050   4.738   9.551 -0.6211  0.7358 -0.1393
  141SAPE  C31015452   6.150   4.675   9.381  0.1103 -0.0308  0.7085
  141SAPE  H10X15453   6.147   4.570   9.415  3.0261 -0.0493  1.1023
  141SAPE  H10Y15454   6.248   4.682   9.329 -0.3028  1.2116  0.0307
  141SAPE  C31115455   6.041   4.726   9.287  0.8280 -0.5765 -0.1463
  141SAPE  H11X15456   6.073   4.831   9.268 -1.3023  0.2594  0.5991
  141SAPE  H11Y15457   5.942   4.743   9.333  1.1000 -1.3696  0.7561
  141SAPE  C31215458   6.025   4.653   9.152 -0.5029  0.0244  0.5097
  141SAPE  H12X15459   5.920   4.619   9.162 -0.1236 -1.5330 -0.4640
  141SAPE  H12Y15460   6.092   4.565   9.146 -1.3137 -0.5413 -0.6845
  141SAPE  C31315461   6.044   4.738   9.025  0.0114  0.2125  0.1719
  141SAPE  H13X15462   6.055   4.669   8.939 -2.1042  0.5411 -0.4020
  141SAPE  H13Y15463   6.139   4.796   9.024 -0.4039  0.9517 -1.9162
  141SAPE  C31415464   5.941   4.849   8.996 -0.2495 -0.0483 -0.0620
  141SAPE  H14X15465   5.969   4.909   8.907  1.0241 -3.2594 -2.0321
  141SAPE  H14Y15466   5.935   4.927   9.074 -0.7175 -1.7574  1.6739
  141SAPE  C31515467   5.797   4.793   8.945  0.3546  0.7337  0.3642
  141SAPE  H15X15468   5.737   4.737   9.020 -1.4864 -0.2623 -1.7455
  141SAPE  H15Y15469   5.830   4.728   8.861 -1.3596 -0.3707  0.5052
  141SAPE  C31615470   5.707   4.907   8.894 -0.3925  0.5221 -0.0740
  141SAPE  H16X15471   5.607   4.860   8.881 -0.0858 -0.2062  0.2012
  141SAPE  H16Y15472   5.739   4.942   8.794 -1.3362  0.2463 -0.4897
  141SAPE  C31715473   5.691   5.017   9.004 -0.4248 -0.4286  0.2629
  141SAPE  H17X15474   5.789   5.069   9.015 -0.8396  0.4951 -0.2130
  141SAPE  H17Y15475   5.680   4.964   9.100  1.2102  0.1894  0.8230
  141SAPE  C31815476   5.585   5.125   8.973 -0.1561  0.1093  0.6233
  141SAPE  H18X15477   5.609   5.171   8.875 -0.5251 -1.3236 -0.1612
  141SAPE  H18Y15478   5.589   5.206   9.049  0.5927  0.5914  0.0914
  141SAPE  H18Z15479   5.482   5.086   8.963  0.1179 -0.0866 -2.0829
  142SAPE     N15480   6.678   3.404  11.068 -0.5681 -0.3340 -0.1669
  142SAPE   HN115481   6.681   3.312  11.117 -0.1998 -0.3706 -0.2626
  142SAPE   HN215482   6.577   3.409  11.042 -1.3173  0.9683  2.5903
  142SAPE   HN315483   6.738   3.401  10.984 -0.0934  2.1789  0.0214
  142SAPE   C1215484   6.715   3.526  11.140 -0.2254  0.1297 -0.7498
  142SAPE  H12A15485   6.716   3.610  11.067 -1.1105  1.6695  0.9604
  142SAPE  H12B15486   6.817   3.503  11.177 -0.6796 -0.3970  0.2087
  142SAPE   C1115487   6.634   3.557  11.261  0.6375  0.7166 -0.5508
  142SAPE  H11A15488   6.683   3.621  11.338  1.3678 -0.8283  0.3276
  142SAPE  H11B15489   6.615   3.463  11.317  0.8296  2.1042  1.9994
  142SAPE     P15490   6.390   3.639  11.311 -0.0991 -0.6184 -0.0731
  142SAPE   O1315491   6.343   3.505  11.357  0.4866  0.5364  0.1016
  142SAPE   O1415492   6.439   3.738  11.408 -0.9763  0.1508  0.4796
  142SAPE   O1215493   6.512   3.613  11.217 -0.2195 -0.3221  0.5661
  142SAPE   O1115494   6.274   3.696  11.217 -0.0516  0.0787  0.5887
  142SAPE    C115495   6.274   3.652  11.079 -0.1737 -0.7424  0.8001
  142SAPE    HA15496   6.300   3.549  11.044  0.9423 -0.3259  0.3423
  142SAPE    HB15497   6.169   3.666  11.045 -0.3467 -0.4809  1.4350
  142SAPE    C215498   6.361   3.742  10.982 -0.3431  0.0250  0.3183
  142SAPE    HS15499   6.464   3.748  11.023 -1.1179  2.0946  2.1811
  142SAPE   O2115500   6.296   3.869  10.970 -0.1018 -0.3652 -0.3992
  142SAPE   C2115501   6.371   3.962  10.916 -0.3869 -0.1825 -0.6006
  142SAPE   O2215502   6.494   3.951  10.896  0.4055 -1.1847 -0.0902
  142SAPE   C2215503   6.283   4.084  10.884 -0.5068 -0.2423  0.6157
  142SAPE   H2R15504   6.278   4.146  10.977  1.2049  2.4112 -0.9169
  142SAPE   H2S15505   6.332   4.145  10.805 -3.0123  1.4462  0.2097
  142SAPE    C315506   6.360   3.687  10.837  1.2376  0.2646  1.3964
  142SAPE    HX15507   6.266   3.709  10.782  1.5817  0.5769  0.9268
  142SAPE    HY15508   6.349   3.577  10.826 -0.3660  0.6780 -3.4056
  142SAPE   O3115509   6.472   3.728  10.752 -0.2812 -0.1665 -0.2046
  142SAPE   C3115510   6.581   3.647  10.748  0.1510  0.9319 -0.1825
  142SAPE   O3215511   6.600   3.555  10.823  0.5217  0.5342  0.7251
  142SAPE   C3215512   6.689   3.703  10.650 -0.1730 -0.8509  0.2677
  142SAPE   H2X15513   6.790   3.662  10.672  1.6458  2.1242 -1.7029
  142SAPE   H2Y15514   6.705   3.812  10.664  1.7793 -0.8768 -1.3256
  142SAPE   C2315515   6.139   4.052  10.835  0.6297 -0.5903 -0.0160
  142SAPE   H3R15516   6.082   4.145  10.853 -0.2033 -1.0157 -0.4049
  142SAPE   H3S15517   6.095   3.975  10.902  1.0928 -0.2393  0.7006
  142SAPE   C2415518   6.119   3.987  10.700 -0.0054 -0.0463  0.1374
  142SAPE   H4R15519   6.010   3.972  10.685 -0.3320  1.5016  0.7906
  142SAPE   H4S15520   6.166   3.887  10.687 -2.2280 -1.0019 -0.9668
  142SAPE   C2515521   6.164   4.081  10.589  0.5058 -0.2555  0.6077
  142SAPE   H5R15522   6.098   4.168  10.583  0.8990 -0.0399 -0.9281
  142SAPE   C2615523   6.264   4.070  10.499  0.7150  0.3283 -0.0510
  142SAPE   H6R15524   6.284   4.147  10.423  0.5885  1.2137  0.7811
  142SAPE   C2715525   6.354   3.951  10.487  0.0779 -0.8074  0.6683
  142SAPE   H7R15526   6.287   3.863  10.502  0.8768 -1.3643  1.0246
  142SAPE   H7S15527   6.432   3.962  10.566  2.0013  0.7219 -1.3448
  142SAPE   C2815528   6.425   3.934  10.359 -0.1639 -0.2904 -0.6147
  142SAPE   H8R15529   6.532   3.954  10.371 -0.2698 -0.4969  0.8910
  142SAPE   C2915530   6.373   3.896  10.246 -0.3203  0.0920  0.6693
  142SAPE   H9R15531   6.436   3.897  10.156  0.2597  0.3729  1.0740
  142SAPE  C21015532   6.232   3.845  10.214  0.5556  0.1041  0.2778
  142SAPE  H10R15533   6.176   3.832  10.309  1.6979 -2.6693  0.6822
  142SAPE  H10S15534   6.252   3.744  10.172  1.1612 -0.1021  1.0480
  142SAPE  C21115535   6.163   3.943  10.116  0.5391 -0.6339 -0.4235
  142SAPE  H11R15536   6.165   4.052  10.131 -5.6495 -0.1682 -0.6822
  142SAPE  C21215537   6.096   3.913  10.002  0.4799  0.5159 -0.7943
  142SAPE  H12R15538   6.056   3.994   9.940  2.3267  0.1849 -2.5176
  142SAPE  C21315539   6.079   3.770   9.948 -0.8211 -0.0174  0.4963
  142SAPE  H13R15540   6.099   3.697  10.029 -0.4025 -1.6989 -1.0407
  142SAPE  H13S15541   6.164   3.752   9.880 -1.9574  0.9637 -1.2736
  142SAPE  C21415542   5.949   3.749   9.879  0.3420  0.3856  0.4987
  142SAPE  H14R15543   5.879   3.728   9.962  1.9885  0.5617  1.9952
  142SAPE  C21515544   5.914   3.750   9.753 -0.9604  0.4534  1.0026
  142SAPE  H15R15545   5.811   3.727   9.724 -0.8522  1.5142 -0.3271
  142SAPE  C21615546   5.994   3.772   9.626 -0.0453  0.1421 -0.1595
  142SAPE  H16R15547   5.999   3.685   9.556 -1.3737  0.1020 -0.2387
  142SAPE  H16S15548   6.095   3.806   9.657 -0.4534 -0.3628  1.8664
  142SAPE  C21715549   5.924   3.892   9.554 -0.6914 -0.6061 -0.1623
  142SAPE  H17R15550   5.952   3.990   9.600  1.9548 -1.3820  0.0720
  142SAPE  H17S15551   5.815   3.880   9.544 -0.3585 -2.1667 -2.9698
  142SAPE  C21815552   5.980   3.902   9.411 -0.2142  0.3330  0.3442
  142SAPE  H18R15553   6.091   3.894   9.405 -0.2927 -2.5429  0.9101
  142SAPE  H18S15554   5.948   4.004   9.382  3.4061  1.9999  1.6228
  142SAPE  C21915555   5.914   3.802   9.315  0.6867 -0.7881  0.2512
  142SAPE  H19R15556   5.804   3.819   9.312  0.9729  1.2712 -1.2863
  142SAPE  H19S15557   5.948   3.705   9.357  1.1407 -0.6043  0.3222
  142SAPE  C22015558   5.961   3.813   9.168  1.1717 -0.9732  0.7921
  142SAPE  H20R15559   5.941   3.912   9.123 -2.1255 -1.3387  1.1940
  142SAPE  H20S15560   5.917   3.732   9.106 -2.7482  0.4575  1.4078
  142SAPE  H20T15561   6.072   3.807   9.166  1.3968  1.0593  2.8556
  142SAPE   C3315562   6.649   3.678  10.499 -0.6387 -0.5897 -0.2694
  142SAPE   H3X15563   6.548   3.720  10.480  0.4144  1.0796 -2.6155
  142SAPE   H3Y15564   6.645   3.567  10.492  0.1515 -0.6699  0.3546
  142SAPE   C3415565   6.752   3.727  10.394 -0.2007 -0.3341 -0.6365
  142SAPE   H4X15566   6.848   3.696  10.440 -0.4336 -0.1667 -0.0299
  142SAPE   H4Y15567   6.763   3.838  10.402  2.9768 -0.6901  2.3394
  142SAPE   C3515568   6.725   3.680  10.248  0.1802 -0.2712 -0.1127
  142SAPE   H5X15569   6.629   3.727  10.220  0.4473  1.7806  2.0721
  142SAPE   H5Y15570   6.715   3.570  10.248  0.1763 -0.2815  0.7251
  142SAPE   C3615571   6.835   3.731  10.144 -0.4296 -0.1512  0.0657
  142SAPE   H6X15572   6.932   3.687  10.175 -0.0499  2.3837  2.9174
  142SAPE   H6Y15573   6.850   3.838  10.171 -2.0422  0.6390 -1.8587
  142SAPE   C3715574   6.808   3.690   9.999  0.1713  0.3667 -0.4626
  142SAPE   H7X15575   6.716   3.739   9.960 -0.4483  0.1937  0.7307
  142SAPE   H7Y15576   6.794   3.580   9.992  1.1091  0.0237  2.2120
  142SAPE   C3815577   6.918   3.720   9.893  0.0395 -0.5897 -0.3358
  142SAPE   H8X15578   7.006   3.662   9.929 -0.2475  1.2920  3.9786
  142SAPE   H8Y15579   6.943   3.828   9.901 -0.3856 -0.6030  1.5078
  142SAPE   C3915580   6.867   3.694   9.753  0.0418  0.2248 -0.3605
  142SAPE   H9X15581   6.774   3.754   9.738 -1.3361 -2.0775 -1.5487
  142SAPE   H9Y15582   6.816   3.596   9.749 -0.2525  0.2638  1.6234
  142SAPE  C31015583   6.968   3.718   9.638 -0.2057  0.0085  0.5489
  142SAPE  H10X15584   7.061   3.663   9.664  1.4208  2.3772 -0.0251
  142SAPE  H10Y15585   6.996   3.823   9.616  0.8245 -0.6423 -1.4174
  142SAPE  C31115586   6.909   3.666   9.506 -0.1805  0.0529 -0.1744
  142SAPE  H11X15587   6.836   3.584   9.522  0.6331 -0.9194 -1.2450
  142SAPE  H11Y15588   6.987   3.617   9.444 -1.2781 -3.4749  1.0006
  142SAPE  C31215589   6.833   3.774   9.422 -0.5307  0.5192  0.2897
  142SAPE  H12X15590   6.904   3.856   9.398  1.1207  0.5870  4.4699
  142SAPE  H12Y15591   6.743   3.806   9.479 -0.8976  2.2197 -1.1496
  142SAPE  C31315592   6.762   3.718   9.292 -0.0153 -0.3178 -0.2317
  142SAPE  H13X15593   6.695   3.639   9.331  2.8096 -1.2224  3.4036
  142SAPE  H13Y15594   6.843   3.676   9.229  0.2792 -1.6824  0.9937
  142SAPE  C31415595   6.680   3.826   9.214  0.2173  0.0980 -0.4827
  142SAPE  H14X15596   6.604   3.874   9.279 -1.4660 -2.5860 -0.3318
  142SAPE  H14Y15597   6.620   3.773   9.136 -3.6377  1.0958  1.5558
  142SAPE  C31515598   6.766   3.937   9.137  0.1049 -0.2869  0.0608
  142SAPE  H15X15599   6.814   3.892   9.047 -0.5358  1.0464 -0.9784
  142SAPE  H15Y15600   6.845   3.972   9.206 -0.8395  0.6025  0.7172
  142SAPE  C31615601   6.682   4.058   9.091  0.3656 -0.3762  0.2496
  142SAPE  H16X15602   6.600   4.077   9.163  0.7598  1.4376  0.2535
  142SAPE  H16Y15603   6.641   4.018   8.995  1.7800 -0.4875 -0.3304
  142SAPE  C31715604   6.762   4.179   9.049  0.2693 -0.1850  0.5226
  142SAPE  H17X15605   6.865   4.146   9.021 -0.1132 -1.7103  0.8635
  142SAPE  H17Y15606   6.772   4.248   9.135  1.0514 -1.6894  1.6889
  142SAPE  C31815607   6.696   4.253   8.930  0.1523 -0.2382  0.6484
  142SAPE  H18X15608   6.677   4.173   8.856 -1.6209 -0.6679  1.5335
  142SAPE  H18Y15609   6.750   4.339   8.883 -0.8229 -0.8706 -1.7829
  142SAPE  H18Z15610   6.596   4.292   8.959  0.5874  0.7182  0.9030
  143SAPE     N15611   1.330   4.459  11.118 -0.0255  0.4189  0.2794
  143SAPE   HN115612   1.261   4.386  11.092  1.0179 -0.2060 -0.7942
  143SAPE   HN215613   1.414   4.436  11.062  0.3651  1.7616  0.2670
  143SAPE   HN315614   1.341   4.463  11.222 -2.3455 -1.2286  0.6680
  143SAPE   C1215615   1.285   4.593  11.066 -0.0994  0.4896 -0.3591
  143SAPE  H12A15616   1.239   4.578  10.966  1.3403 -1.4955 -0.7763
  143SAPE  H12B15617   1.375   4.657  11.067  0.4100 -0.2230  0.6067
  143SAPE   C1115618   1.180   4.658  11.153  0.4243  0.5126 -0.3526
  143SAPE  H11A15619   1.156   4.752  11.099 -2.2078 -0.4483 -1.0159
  143SAPE  H11B15620   1.222   4.678  11.254 -1.1057 -1.4154  0.7472
  143SAPE     P15621   0.920   4.632  11.167 -0.3173 -0.2755 -0.0629
  143SAPE   O1315622   0.833   4.518  11.129 -0.3916 -0.4213 -0.5720
  143SAPE   O1415623   0.882   4.718  11.281  0.0483  0.1330  0.1241
  143SAPE   O1215624   1.067   4.581  11.177  0.0401 -0.2596  0.1742
  143SAPE   O1115625   0.928   4.734  11.043 -0.4162  0.3263  0.0712
  143SAPE    C115626   0.804   4.803  11.014  0.2649 -0.7021  0.6240
  143SAPE    HA15627   0.721   4.736  10.983 -0.2839  0.4739 -0.5226
  143SAPE    HB15628   0.776   4.875  11.093  1.3417  0.4592 -0.0238
  143SAPE    C215629   0.830   4.901  10.890  0.7518 -0.6319 -0.1198
  143SAPE    HS15630   0.732   4.949  10.867  0.4807 -0.5043  1.2138
  143SAPE   O2115631   0.874   4.832  10.775 -0.3421 -0.0298 -0.2822
  143SAPE   C2115632   0.792   4.744  10.713 -0.1340 -0.2694  0.0076
  143SAPE   O2215633   0.684   4.706  10.752  0.3050 -0.0213  0.4032
  143SAPE   C2215634   0.847   4.698  10.574  0.1426  0.3368  0.4036
  143SAPE   H2R15635   0.907   4.782  10.532  2.6370  0.3481  3.5242
  143SAPE   H2S15636   0.924   4.621  10.598  0.6250  0.2569 -1.2737
  143SAPE    C315637   0.936   5.013  10.918 -0.0854 -0.2321 -0.3951
  143SAPE    HX15638   1.031   4.957  10.935 -0.9107 -1.0878  1.6933
  143SAPE    HY15639   0.910   5.058  11.016  0.9241 -0.2406 -0.1082
  143SAPE   O3115640   0.935   5.117  10.818 -0.4080 -0.3228  0.5000
  143SAPE   C3115641   1.006   5.102  10.704  0.0787  0.1945  0.4984
  143SAPE   O3215642   1.060   5.001  10.658  0.2854  0.2481 -0.0606
  143SAPE   C3215643   0.993   5.236  10.624  0.0442  0.6186 -0.3452
  143SAPE   H2X15644   1.021   5.325  10.683  0.6562  1.1562 -1.4173
  143SAPE   H2Y15645   0.887   5.251  10.593  0.0881  3.0664  0.4723
  143SAPE   C2315646   0.738   4.625  10.485  0.0622 -0.3709 -0.6115
  143SAPE   H3R15647   0.656   4.582  10.546  0.2632 -0.6377 -0.5276
  143SAPE   H3S15648   0.770   4.545  10.414  0.7415 -0.6681  0.0139
  143SAPE   C2415649   0.660   4.723  10.401 -0.1007 -0.1269  0.1576
  143SAPE   H4R15650   0.624   4.805  10.467 -0.8399 -1.3435  1.2981
  143SAPE   H4S15651   0.567   4.672  10.369 -0.4312  0.0399  0.8513
  143SAPE   C2515652   0.739   4.769  10.280 -0.0546 -0.0193 -0.0837
  143SAPE   H5R15653   0.804   4.855  10.305 -1.5010  0.9444  0.5098
  143SAPE   C2615654   0.746   4.715  10.156  0.1551 -0.2750  0.5748
  143SAPE   H6R15655   0.824   4.755  10.089  0.3686 -1.3317  0.1802
  143SAPE   C2715656   0.673   4.591  10.102  0.7330 -0.8321 -1.4150
  143SAPE   H7R15657   0.597   4.622  10.028  1.4613  1.4171 -1.2747
  143SAPE   H7S15658   0.603   4.556  10.182  1.5453 -0.6926 -0.6235
  143SAPE   C2815659   0.772   4.485  10.064  0.7661  0.2441 -0.3180
  143SAPE   H8R15660   0.806   4.415  10.142  0.0817  0.3418  0.0730
  143SAPE   C2915661   0.814   4.454   9.939 -0.3465  0.0122 -0.4260
  143SAPE   H9R15662   0.883   4.368   9.932 -0.6586 -0.1222 -2.5784
  143SAPE  C21015663   0.766   4.519   9.809 -1.3192 -0.4558  0.3541
  143SAPE  H10R15664   0.817   4.471   9.723  0.5774  1.1975  0.4698
  143SAPE  H10S15665   0.803   4.624   9.819  2.2323 -1.6312  0.9153
  143SAPE  C21115666   0.624   4.521   9.792  0.0135  0.5389 -0.3126
  143SAPE  H11R15667   0.562   4.476   9.872 -2.4054  2.0976 -1.1792
  143SAPE  C21215668   0.554   4.573   9.699  0.2567 -0.7425  0.9163
  143SAPE  H12R15669   0.445   4.559   9.691 -0.0339  1.9682 -1.0266
  143SAPE  C21315670   0.607   4.645   9.580 -0.5334 -0.5111 -0.0247
  143SAPE  H13R15671   0.570   4.595   9.488 -1.3715  0.0678 -0.0210
  143SAPE  H13S15672   0.717   4.644   9.567 -0.6730  0.5104 -1.5360
  143SAPE  C21415673   0.566   4.791   9.595  0.1976  0.3936 -0.1730
  143SAPE  H14R15674   0.516   4.821   9.689 -0.7962  0.6956 -0.7814
  143SAPE  C21515675   0.571   4.885   9.497  0.0264 -0.1829 -0.1616
  143SAPE  H15R15676   0.534   4.985   9.524 -0.2366 -0.7941  1.8581
  143SAPE  C21615677   0.627   4.865   9.361 -0.1975  0.5592  0.2809
  143SAPE  H16R15678   0.728   4.819   9.371  0.0449  0.8196 -0.8477
  143SAPE  H16S15679   0.627   4.964   9.309 -2.3438  0.5967  0.2709
  143SAPE  C21715680   0.535   4.788   9.268  0.5937  0.3083 -0.1765
  143SAPE  H17R15681   0.442   4.848   9.268 -0.7171 -1.5793  1.3052
  143SAPE  H17S15682   0.503   4.688   9.306 -1.1524  0.1097 -2.0040
  143SAPE  C21815683   0.584   4.761   9.122 -0.7116  0.2407 -0.3200
  143SAPE  H18R15684   0.684   4.712   9.126 -2.5021 -3.8610 -1.3687
  143SAPE  H18S15685   0.596   4.860   9.071 -0.8792 -0.4564 -1.7592
  143SAPE  C21915686   0.488   4.671   9.040 -0.7948  0.5661  0.8807
  143SAPE  H19R15687   0.393   4.728   9.032 -0.1881  1.5652  0.5575
  143SAPE  H19S15688   0.475   4.569   9.082  0.2860 -1.2997 -2.8343
  143SAPE  C22015689   0.545   4.645   8.899 -0.0838 -0.7473  0.0750
  143SAPE  H20R15690   0.630   4.573   8.906  0.9816  0.6029  1.3931
  143SAPE  H20S15691   0.578   4.741   8.854 -0.1356 -1.0098 -0.5324
  143SAPE  H20T15692   0.474   4.596   8.829  0.5627  1.9546 -2.6959
  143SAPE   C3315693   1.078   5.236  10.497  0.5021 -0.1713  0.4461
  143SAPE   H3X15694   1.179   5.195  10.515  1.6839  1.5971 -1.6935
  143SAPE   H3Y15695   1.074   5.340  10.458  0.5467 -0.2278  0.2936
  143SAPE   C3415696   1.014   5.146  10.388 -0.0845  0.3027 -0.1787
  143SAPE   H4X15697   0.912   5.186  10.367 -0.1052 -0.0205 -0.7006
  143SAPE   H4Y15698   1.013   5.042  10.428 -0.1913 -0.0642 -1.1251
  143SAPE   C3515699   1.094   5.145  10.252  0.0524 -0.1050  0.5324
  143SAPE   H5X15700   1.043   5.071  10.187 -2.5799  0.3313  1.9978
  143SAPE   H5Y15701   1.200   5.113  10.259 -0.8669 -3.5555  0.4050
  143SAPE   C3615702   1.099   5.281  10.188 -0.7179 -0.3126  0.3921
  143SAPE   H6X15703   1.148   5.351  10.259 -2.7372  0.3957  1.1417
  143SAPE   H6Y15704   0.994   5.314  10.174 -1.7800 -2.3999  2.6926
  143SAPE   C3715705   1.191   5.268  10.053  0.4355 -0.6656 -0.3650
  143SAPE   H7X15706   1.279   5.204  10.073  1.6775  1.6801  2.3744
  143SAPE   H7Y15707   1.231   5.368  10.027  0.9635 -0.7628  0.0617
  143SAPE   C3815708   1.104   5.204   9.939 -0.3004 -0.6799 -0.3215
  143SAPE   H8X15709   1.015   5.271   9.932 -0.6058 -1.1079 -0.5644
  143SAPE   H8Y15710   1.047   5.118   9.979 -0.9889  0.2324  0.7349
  143SAPE   C3915711   1.180   5.202   9.807  0.8253  0.0271  0.1489
  143SAPE   H9X15712   1.263   5.129   9.815 -0.2907 -1.4028 -0.6493
  143SAPE   H9Y15713   1.225   5.303   9.792 -0.7086  0.7537  0.2309
  143SAPE  C31015714   1.096   5.157   9.689  0.2120 -0.6881  0.1830
  143SAPE  H10X15715   1.008   5.225   9.678 -1.4122 -2.8529 -1.1180
  143SAPE  H10Y15716   1.058   5.058   9.720 -0.0866 -1.1108 -1.4193
  143SAPE  C31115717   1.159   5.152   9.554  0.7456  0.2480 -0.1280
  143SAPE  H11X15718   1.245   5.082   9.563  0.5609  0.2269  1.7297
  143SAPE  H11Y15719   1.198   5.249   9.517  2.5657 -0.2729  0.3057
  143SAPE  C31215720   1.048   5.097   9.462  0.0059  0.3339  0.3439
  143SAPE  H12X15721   0.947   5.140   9.481 -0.2834 -0.5050  0.7576
  143SAPE  H12Y15722   1.027   4.990   9.484  3.3698 -0.8601 -1.5008
  143SAPE  C31315723   1.099   5.103   9.320 -0.3354 -0.8099  0.6913
  143SAPE  H13X15724   1.198   5.057   9.304 -0.2589 -0.3716 -0.1377
  143SAPE  H13Y15725   1.116   5.208   9.289 -0.1235 -1.1987 -0.5510
  143SAPE  C31415726   1.001   5.039   9.221  0.2322  0.3540 -0.4080
  143SAPE  H14X15727   0.922   5.117   9.218  0.4502  0.5459 -1.3838
  143SAPE  H14Y15728   0.956   4.946   9.262  0.7697  0.7023  1.0372
  143SAPE  C31515729   1.058   5.010   9.085  0.2148  0.3542 -0.0139
  143SAPE  H15X15730   1.158   4.962   9.093  0.9795  1.9217  0.2129
  143SAPE  H15Y15731   1.085   5.101   9.027  1.3484 -0.5716 -0.9860
  143SAPE  C31615732   0.970   4.924   8.999  0.0305 -0.8973  0.3465
  143SAPE  H16X15733   0.958   4.828   9.053 -0.2653 -0.9814  0.1383
  143SAPE  H16Y15734   1.019   4.895   8.903  0.5816 -0.2811  0.4428
  143SAPE  C31715735   0.828   4.993   8.973 -0.0624 -0.0585 -0.2074
  143SAPE  H17X15736   0.780   5.003   9.073 -1.0068 -0.2723 -0.6223
  143SAPE  H17Y15737   0.776   4.916   8.911 -0.4485  0.1658 -0.1657
  143SAPE  C31815738   0.828   5.117   8.883 -0.5180  0.3178 -0.2364
  143SAPE  H18X15739   0.874   5.201   8.939  1.9774 -0.8537 -0.3873
  143SAPE  H18Y15740   0.724   5.157   8.876 -0.9387 -0.1751  2.1190
  143SAPE  H18Z15741   0.874   5.096   8.785  2.2224  0.5389  0.9125
  144SAPE     N15742   3.587   2.211  11.019  0.3698 -0.0635 -0.3712
  144SAPE   HN115743   3.598   2.307  10.979  3.4527  0.4852  1.4584
  144SAPE   HN215744   3.554   2.140  10.950 -3.2846  2.8541 -1.9629
  144SAPE   HN315745   3.510   2.221  11.087  0.1721 -1.3379 -0.3851
  144SAPE   C1215746   3.717   2.168  11.085 -0.7356 -0.7783 -0.2623
  144SAPE  H12A15747   3.687   2.075  11.138 -0.6555 -1.2654 -1.0513
  144SAPE  H12B15748   3.755   2.254  11.143 -1.5518 -0.8593  0.4059
  144SAPE   C1115749   3.818   2.121  10.982 -0.4822 -0.3779 -0.5334
  144SAPE  H11A15750   3.772   2.045  10.915  0.1154 -1.5947  0.3961
  144SAPE  H11B15751   3.894   2.066  11.041 -3.1011 -0.1630  3.3884
  144SAPE     P15752   4.009   2.270  10.888 -0.4152 -0.5415 -0.2897
  144SAPE   O1315753   4.064   2.324  11.013 -0.6385 -0.2419  0.5811
  144SAPE   O1415754   4.065   2.142  10.836 -0.0693 -0.1502 -0.5753
  144SAPE   O1215755   3.854   2.239  10.912  0.4636 -0.4451  0.1338
  144SAPE   O1115756   4.001   2.379  10.775  0.0758  0.5884 -0.1775
  144SAPE    C115757   3.969   2.346  10.641 -0.1806 -0.0596  0.1115
  144SAPE    HA15758   3.946   2.238  10.624  2.1045 -0.5605 -0.1013
  144SAPE    HB15759   3.886   2.414  10.612 -0.3042 -0.0282  0.5407
  144SAPE    C215760   4.078   2.381  10.535  0.0387  0.0422 -0.7594
  144SAPE    HS15761   4.168   2.321  10.559  1.2260  1.5127 -1.4129
  144SAPE   O2115762   4.103   2.524  10.552  0.4891  0.2304  0.1208
  144SAPE   C2115763   4.202   2.561  10.632  1.0171 -0.6761 -0.1360
  144SAPE   O2215764   4.291   2.486  10.668  0.3083  0.0680  0.2214
  144SAPE   C2215765   4.185   2.705  10.672  0.0953  0.0027 -0.3942
  144SAPE   H2R15766   4.101   2.741  10.609  1.0174 -0.7927 -2.1567
  144SAPE   H2S15767   4.154   2.700  10.778 -0.4130 -0.5011 -0.5657
  144SAPE    C315768   4.020   2.341  10.397 -0.3017  0.5638 -0.5261
  144SAPE    HX15769   3.918   2.383  10.393  0.3440  2.2044 -0.6118
  144SAPE    HY15770   4.015   2.230  10.397 -2.0526  0.5905  1.3845
  144SAPE   O3115771   4.102   2.388  10.292 -0.2716 -0.1487  0.0240
  144SAPE   C3115772   4.224   2.339  10.266  0.3767 -0.2695  0.0163
  144SAPE   O3215773   4.272   2.242  10.321 -0.0814 -0.2776  0.0854
  144SAPE   C3215774   4.291   2.421  10.149 -0.0158 -0.8341  0.4421
  144SAPE   H2X15775   4.386   2.468  10.183  0.5946 -0.6939 -1.3399
  144SAPE   H2Y15776   4.215   2.495  10.116 -0.2652 -0.4075  1.8907
  144SAPE   C2315777   4.319   2.793  10.660  0.5250 -0.2892 -0.8845
  144SAPE   H3R15778   4.399   2.732  10.707 -1.9126 -1.9338  1.3917
  144SAPE   H3S15779   4.302   2.887  10.717 -1.4902 -0.7818 -0.6012
  144SAPE   C2415780   4.347   2.826  10.508 -0.7596  0.6262 -0.1834
  144SAPE   H4R15781   4.354   2.734  10.448 -0.3368 -0.0366  0.8520
  144SAPE   H4S15782   4.450   2.867  10.512  0.1205 -1.4380 -0.6529
  144SAPE   C2515783   4.255   2.927  10.443  0.9470 -0.2004  0.5571
  144SAPE   H5R15784   4.244   3.026  10.488 -0.3620  0.2872 -0.7619
  144SAPE   C2615785   4.195   2.905  10.322  0.8967 -0.6910 -0.1559
  144SAPE   H6R15786   4.141   2.988  10.273 -0.1275 -1.5376 -0.4899
  144SAPE   C2715787   4.193   2.781  10.242 -0.2500  0.8241 -0.7080
  144SAPE   H7R15788   4.109   2.713  10.266 -0.1115  1.1358  0.7479
  144SAPE   H7S15789   4.274   2.707  10.260 -0.8589 -0.2470 -2.1382
  144SAPE   C2815790   4.196   2.819  10.095 -0.2389  0.5657  0.6685
  144SAPE   H8R15791   4.102   2.862  10.057 -0.6543 -1.7694 -1.2237
  144SAPE   C2915792   4.307   2.824  10.015  0.1040 -0.2422 -0.2808
  144SAPE   H9R15793   4.294   2.864   9.914 -0.0847  0.4923  0.0288
  144SAPE  C21015794   4.447   2.800  10.061  0.2426  0.1217  0.4593
  144SAPE  H10R15795   4.495   2.762   9.968 -2.7524  1.6518 -1.9049
  144SAPE  H10S15796   4.462   2.727  10.144 -1.2471  0.4664  1.0517
  144SAPE  C21115797   4.523   2.927  10.103  0.0728  0.3745 -1.0774
  144SAPE  H11R15798   4.501   2.950  10.208 -1.3063 -1.1319 -0.9931
  144SAPE  C21215799   4.619   2.996  10.045  0.4737  0.2278  0.1245
  144SAPE  H12R15800   4.658   3.084  10.098  3.4560 -1.2581  0.6249
  144SAPE  C21315801   4.670   2.969   9.911  0.8580  0.4341  0.5113
  144SAPE  H13R15802   4.674   3.069   9.863 -1.8994  1.7579  2.7102
  144SAPE  H13S15803   4.597   2.919   9.844  1.1151  0.7313  0.0058
  144SAPE  C21415804   4.796   2.893   9.909  0.4195 -0.2816 -0.0336
  144SAPE  H14R15805   4.801   2.806   9.976 -1.6075  0.3313  1.0131
  144SAPE  C21515806   4.898   2.920   9.824  0.1678 -0.0378 -0.2189
  144SAPE  H15R15807   4.984   2.852   9.811  0.8434  0.2273  2.2490
  144SAPE  C21615808   4.900   3.035   9.725  0.5493 -0.0941  0.6812
  144SAPE  H16R15809   4.955   3.123   9.764  0.2078 -0.1165  1.2194
  144SAPE  H16S15810   4.799   3.078   9.710  0.6046  0.2909  1.3808
  144SAPE  C21715811   4.949   2.989   9.579  0.1682  0.0806 -0.1402
  144SAPE  H17R15812   5.027   2.911   9.595  1.0046  1.3829  2.8789
  144SAPE  H17S15813   5.002   3.077   9.538 -0.3846 -0.4193 -1.9979
  144SAPE  C21815814   4.826   2.933   9.498  0.3027 -0.3066  0.3659
  144SAPE  H18R15815   4.745   3.009   9.502 -0.1363 -0.7831  0.6704
  144SAPE  H18S15816   4.792   2.842   9.552  1.2489 -0.8196  0.1253
  144SAPE  C21915817   4.854   2.901   9.352  0.2878 -0.6444  0.1265
  144SAPE  H19R15818   4.931   2.821   9.353  1.2251  0.2362  0.0630
  144SAPE  H19S15819   4.903   2.990   9.309 -1.0797 -0.5206 -1.2320
  144SAPE  C22015820   4.729   2.859   9.267  0.1573  0.0942  0.3037
  144SAPE  H20R15821   4.744   2.834   9.160 -1.9887  1.3142 -0.3520
  144SAPE  H20S15822   4.659   2.945   9.274 -0.2144 -0.2278  0.6157
  144SAPE  H20T15823   4.665   2.777   9.307 -1.0428  1.0600  0.4335
  144SAPE   C3315824   4.316   2.322  10.029 -0.3448 -0.2347  0.4302
  144SAPE   H3X15825   4.221   2.268  10.008  0.4780 -1.8755  0.7213
  144SAPE   H3Y15826   4.380   2.235  10.057 -1.4881 -1.3969 -0.4373
  144SAPE   C3415827   4.367   2.404   9.909 -0.2758  0.3915 -0.2695
  144SAPE   H4X15828   4.402   2.332   9.832 -1.8313  1.2013 -1.7845
  144SAPE   H4Y15829   4.450   2.470   9.944  0.3850 -0.6280  0.1278
  144SAPE   C3515830   4.268   2.505   9.841  0.4865 -0.0060 -0.4169
  144SAPE   H5X15831   4.217   2.583   9.901  1.2723 -0.6427  1.1302
  144SAPE   H5Y15832   4.193   2.434   9.801  2.1652 -1.2656 -1.5006
  144SAPE   C3615833   4.329   2.579   9.716  0.0805 -0.2139  0.4424
  144SAPE   H6X15834   4.349   2.505   9.636  2.0290  0.0714  0.6257
  144SAPE   H6Y15835   4.426   2.625   9.746  0.4723  0.0902 -1.1766
  144SAPE   C3715836   4.254   2.707   9.662 -1.2163  0.2279 -0.1771
  144SAPE   H7X15837   4.232   2.773   9.748  0.7426  4.1805 -2.3902
  144SAPE   H7Y15838   4.155   2.680   9.620 -2.8736  1.6222  2.6073
  144SAPE   C3815839   4.343   2.787   9.563 -0.6096 -0.1169 -0.3263
  144SAPE   H8X15840   4.434   2.825   9.613 -1.6021  0.0874  1.4027
  144SAPE   H8Y15841   4.283   2.877   9.536 -0.5267 -0.0212 -0.1887
  144SAPE   C3915842   4.388   2.696   9.447 -0.2152 -0.0919  0.2629
  144SAPE   H9X15843   4.471   2.628   9.477  0.6421 -0.0826 -1.9332
  144SAPE   H9Y15844   4.442   2.767   9.381 -0.3338 -2.3503 -2.4262
  144SAPE  C31015845   4.278   2.623   9.378 -0.4552 -0.0278 -1.0606
  144SAPE  H10X15846   4.195   2.697   9.371 -0.5658 -0.0921 -0.4949
  144SAPE  H10Y15847   4.239   2.539   9.440 -0.9251  0.8595 -0.1419
  144SAPE  C31115848   4.318   2.579   9.239  0.0301  0.2175  0.0827
  144SAPE  H11X15849   4.266   2.487   9.207  2.5416 -1.3404  0.2259
  144SAPE  H11Y15850   4.424   2.544   9.244 -0.2593 -0.6357  0.4751
  144SAPE  C31215851   4.292   2.691   9.138 -0.4258 -0.9530  0.0873
  144SAPE  H12X15852   4.254   2.786   9.181  2.0472 -0.3135  1.0512
  144SAPE  H12Y15853   4.219   2.655   9.062  1.1705  0.1252 -2.0772
  144SAPE  C31315854   4.415   2.731   9.056 -0.0316 -0.5297  0.0259
  144SAPE  H13X15855   4.451   2.640   9.004 -0.8876 -0.6884 -0.3086
  144SAPE  H13Y15856   4.491   2.766   9.129 -1.9584  0.2829  1.7625
  144SAPE  C31415857   4.378   2.841   8.955  0.0843  0.2084  0.0473
  144SAPE  H14X15858   4.373   2.939   9.007  1.1542  0.5447 -0.4653
  144SAPE  H14Y15859   4.275   2.826   8.916 -0.7561  1.4758  1.6188
  144SAPE  C31515860   4.490   2.860   8.848  0.0841 -0.4330 -0.0533
  144SAPE  H15X15861   4.486   2.772   8.781 -0.5282  1.7146 -3.1007
  144SAPE  H15Y15862   4.589   2.866   8.896 -0.1478 -1.3006  0.5495
  144SAPE  C31615863   4.485   2.981   8.747  0.2447 -0.3845  0.2770
  144SAPE  H16X15864   4.549   2.977   8.656  0.2152 -0.2872  0.2516
  144SAPE  H16Y15865   4.518   3.078   8.790  2.0253  0.6336 -3.0091
  144SAPE  C31715866   4.344   3.005   8.695  0.6466 -0.4940 -0.1475
  144SAPE  H17X15867   4.333   3.111   8.662  0.3038 -0.0661  1.2689
  144SAPE  H17Y15868   4.283   2.994   8.787 -0.0953  3.7838  0.0790
  144SAPE  C31815869   4.289   2.902   8.592  0.0520 -0.1856  0.1557
  144SAPE  H18X15870   4.259   2.806   8.639 -0.3237  0.0212  0.3414
  144SAPE  H18Y15871   4.369   2.892   8.516 -0.8283 -1.5016 -0.6408
  144SAPE  H18Z15872   4.198   2.942   8.542  0.6398  1.2910  0.2148
  145SAPE     N15873   0.471   4.831  11.379 -0.2763  0.5647 -0.1502
  145SAPE   HN115874   0.453   4.933  11.393 -0.1907  0.7364 -1.2364
  145SAPE   HN215875   0.383   4.776  11.380 -0.4679  0.7420 -2.5304
  145SAPE   HN315876   0.520   4.794  11.463 -0.5043  0.3683 -0.1065
  145SAPE   C1215877   0.543   4.820  11.255  0.0800  0.0953 -0.0488
  145SAPE  H12A15878   0.523   4.724  11.202  1.2452 -1.2131  1.7589
  145SAPE  H12B15879   0.653   4.835  11.261  0.2179  0.6846 -2.7307
  145SAPE   C1115880   0.493   4.928  11.165  0.6293 -0.0386 -0.1610
  145SAPE  H11A15881   0.384   4.916  11.150  0.8540 -1.3295 -0.9071
  145SAPE  H11B15882   0.538   4.909  11.065  1.1801  0.2905  0.0195
  145SAPE     P15883   0.621   5.163  11.182 -0.1328 -0.1878 -0.2382
  145SAPE   O1315884   0.569   5.296  11.233 -0.3013  0.5206 -0.4329
  145SAPE   O1415885   0.752   5.116  11.229  0.6512  0.7176 -0.1943
  145SAPE   O1215886   0.525   5.056  11.222  0.0360 -0.4674  0.6834
  145SAPE   O1115887   0.612   5.154  11.026 -0.1015 -0.3314  0.6744
  145SAPE    C115888   0.490   5.173  10.968 -0.0494  0.0241  0.1758
  145SAPE    HA15889   0.407   5.126  11.025  0.6509  0.0782  1.2939
  145SAPE    HB15890   0.452   5.277  10.976 -1.7242 -0.4411 -1.2636
  145SAPE    C215891   0.482   5.136  10.816 -0.0370 -0.2436 -0.9011
  145SAPE    HS15892   0.387   5.184  10.785  0.9210  1.3544 -1.4481
  145SAPE   O2115893   0.473   4.987  10.813  1.2944  0.8572 -0.4876
  145SAPE   C2115894   0.358   4.932  10.847 -0.7417  0.3112 -0.0273
  145SAPE   O2215895   0.257   4.996  10.874 -0.0499 -0.4418 -0.0493
  145SAPE   C2215896   0.366   4.785  10.825 -0.1298  0.0704  0.1712
  145SAPE   H2R15897   0.438   4.770  10.742  0.3503 -0.6508  0.7051
  145SAPE   H2S15898   0.422   4.737  10.908  1.1324  2.3902  0.7432
  145SAPE    C315899   0.605   5.187  10.729  0.0472 -0.4522 -0.0418
  145SAPE    HX15900   0.699   5.187  10.788  0.1814  1.3723 -0.1874
  145SAPE    HY15901   0.589   5.296  10.714  0.3610 -0.4094 -0.0786
  145SAPE   O3115902   0.613   5.113  10.604 -0.2156 -0.2938 -0.0445
  145SAPE   C3115903   0.564   5.184  10.501  0.1505  0.5734 -0.6881
  145SAPE   O3215904   0.534   5.299  10.496 -0.1957 -0.4063  0.2574
  145SAPE   C3215905   0.567   5.100  10.366  0.7924 -0.2040  0.2232
  145SAPE   H2X15906   0.479   5.033  10.373  1.0743 -0.4797  1.4134
  145SAPE   H2Y15907   0.652   5.031  10.386  1.7550  0.8613 -0.0789
  145SAPE   C2315908   0.224   4.722  10.803  0.1011  0.2930 -0.1981
  145SAPE   H3R15909   0.139   4.790  10.825 -0.1661 -0.0718 -0.0822
  145SAPE   H3S15910   0.209   4.638  10.875 -0.4497  0.2127 -0.4005
  145SAPE   C2415911   0.200   4.679  10.652  0.2539 -0.6161  0.3525
  145SAPE   H4R15912   0.206   4.773  10.593 -0.0578  0.1345  1.4799
  145SAPE   H4S15913   0.099   4.633  10.648 -2.3733  4.3275  1.3738
  145SAPE   C2515914   0.297   4.579  10.618 -0.0461 -0.1450 -0.3680
  145SAPE   H5R15915   0.316   4.499  10.691 -0.4807  0.5886  0.5683
  145SAPE   C2615916   0.346   4.576  10.487  0.3427  0.3476 -0.6002
  145SAPE   H6R15917   0.425   4.503  10.463  0.1295 -0.0763 -0.0411
  145SAPE   C2715918   0.306   4.669  10.375  0.2261  0.5987  0.5361
  145SAPE   H7R15919   0.382   4.750  10.377 -0.6451  1.4136  1.5287
  145SAPE   H7S15920   0.216   4.731  10.396  0.2306  0.0616  2.2439
  145SAPE   C2815921   0.292   4.601  10.231  0.0304  0.9090 -0.6703
  145SAPE   H8R15922   0.231   4.510  10.234  0.1287  0.8505 -0.4457
  145SAPE   C2915923   0.307   4.657  10.108 -0.0360  0.3480 -0.3562
  145SAPE   H9R15924   0.292   4.594  10.019  0.0408 -1.0674  0.5962
  145SAPE  C21015925   0.364   4.795  10.092  0.5473 -0.1951 -0.4443
  145SAPE  H10R15926   0.467   4.789  10.053  0.9044  1.5542  0.1262
  145SAPE  H10S15927   0.374   4.855  10.185  0.1048 -0.3137 -0.3178
  145SAPE  C21115928   0.287   4.864   9.985  0.1906  0.2858  0.5253
  145SAPE  H11R15929   0.306   4.819   9.887  1.4193 -0.6135  1.1503
  145SAPE  C21215930   0.195   4.958  10.009 -0.6730 -0.3853 -0.3346
  145SAPE  H12R15931   0.134   5.000   9.928 -1.5053  1.3960  1.1539
  145SAPE  C21315932   0.154   4.999  10.145  0.6956 -0.2410  0.7562
  145SAPE  H13R15933   0.189   4.929  10.224  2.5008 -0.6757 -0.3612
  145SAPE  H13S15934   0.044   4.987  10.152  0.4446  1.7742  0.8289
  145SAPE  C21415935   0.187   5.135  10.196 -0.7017 -0.1315 -0.4627
  145SAPE  H14R15936   0.245   5.204  10.132 -2.3437  1.5483 -0.2303
  145SAPE  C21515937   0.151   5.180  10.322 -0.3183 -0.3836 -0.2913
  145SAPE  H15R15938   0.196   5.278  10.345 -0.1837  0.1324 -2.5574
  145SAPE  C21615939   0.077   5.107  10.430 -0.2337 -0.3900  0.3145
  145SAPE  H16R15940   0.072   4.998  10.408  1.5619  0.0969 -3.2112
  145SAPE  H16S15941  -0.027   5.135  10.404  0.0897  0.1611 -0.4197
  145SAPE  C21715942   0.118   5.125  10.579  0.0597 -0.0319 -0.1007
  145SAPE  H17R15943   0.228   5.110  10.581 -0.3109 -3.2398  1.9195
  145SAPE  H17S15944   0.078   5.038  10.634  0.8266 -0.6601 -0.5236
  145SAPE  C21815945   0.057   5.237  10.662 -0.1454 -0.5122  0.5558
  145SAPE  H18R15946   0.088   5.231  10.768 -0.1269  1.9767  0.7471
  145SAPE  H18S15947  -0.053   5.225  10.662  0.0271 -2.6477 -0.9323
  145SAPE  C21915948   0.084   5.376  10.611  0.0906  0.3638  0.1219
  145SAPE  H19R15949   0.014   5.439  10.670 -1.6270 -0.3578 -1.0641
  145SAPE  H19S15950   0.056   5.370  10.503 -0.0605 -2.0823  0.2370
  145SAPE  C22015951   0.223   5.420  10.632  0.3506 -0.6402 -0.2808
  145SAPE  H20R15952   0.253   5.427  10.739  2.1707  1.6072 -0.8592
  145SAPE  H20S15953   0.221   5.524  10.595 -3.1673  0.0149  1.3656
  145SAPE  H20T15954   0.304   5.363  10.581 -0.4423 -0.5523 -1.6972
  145SAPE   C3315955   0.586   5.182  10.238  0.7882  0.1566 -0.2353
  145SAPE   H3X15956   0.674   5.244  10.263  0.3053  0.0669  1.8488
  145SAPE   H3Y15957   0.503   5.251  10.212 -2.0294 -2.7293  0.4395
  145SAPE   C3415958   0.615   5.089  10.119 -0.5017  0.0464  0.1892
  145SAPE   H4X15959   0.527   5.026  10.092 -1.9714  1.2661  1.9252
  145SAPE   H4Y15960   0.699   5.027  10.156  0.8425  0.0818 -2.5360
  145SAPE   C3515961   0.669   5.158   9.995  0.3212  0.1935  0.8620
  145SAPE   H5X15962   0.692   5.086   9.914 -1.6794 -0.4839  0.8210
  145SAPE   H5Y15963   0.759   5.219  10.014  2.0906 -2.2914  0.8804
  145SAPE   C3615964   0.578   5.275   9.941 -0.0369 -0.1907  0.0396
  145SAPE   H6X15965   0.564   5.346  10.025 -0.0299  1.3958 -1.2537
  145SAPE   H6Y15966   0.477   5.237   9.915 -0.0395 -0.3022  0.2138
  145SAPE   C3715967   0.635   5.344   9.816 -0.1216 -0.3368  0.4298
  145SAPE   H7X15968   0.739   5.377   9.836  0.6772 -1.9251 -0.8323
  145SAPE   H7Y15969   0.579   5.437   9.792 -0.1808 -0.1672  1.2087
  145SAPE   C3815970   0.641   5.265   9.687  0.2956  1.0494  0.3949
  145SAPE   H8X15971   0.549   5.203   9.685 -0.7366  2.5405 -1.1246
  145SAPE   H8Y15972   0.731   5.200   9.695  0.9388  1.9907  1.1442
  145SAPE   C3915973   0.646   5.347   9.555  0.0260 -0.5168  0.5010
  145SAPE   H9X15974   0.737   5.409   9.544  0.0969 -0.9149 -1.4855
  145SAPE   H9Y15975   0.565   5.423   9.560  2.2467  1.9493  1.4242
  145SAPE  C31015976   0.641   5.265   9.430 -0.0117 -0.2173  0.2868
  145SAPE  H10X15977   0.550   5.201   9.425 -1.4880  1.7727  0.4565
  145SAPE  H10Y15978   0.730   5.200   9.431 -1.0366 -1.6738  0.1545
  145SAPE  C31115979   0.648   5.350   9.294 -0.8009  0.0406  0.3454
  145SAPE  H11X15980   0.747   5.400   9.292 -0.5169 -0.5292  0.0708
  145SAPE  H11Y15981   0.569   5.428   9.296 -1.3286 -0.4817  0.2638
  145SAPE  C31215982   0.653   5.272   9.159 -0.5680 -0.2586  0.4253
  145SAPE  H12X15983   0.737   5.200   9.170  2.2494  2.5844 -1.1667
  145SAPE  H12Y15984   0.676   5.347   9.081  0.5800 -1.4036 -0.3948
  145SAPE  C31315985   0.520   5.200   9.133  0.6169  0.5385  0.3725
  145SAPE  H13X15986   0.478   5.160   9.228 -0.2347  1.4112  0.3836
  145SAPE  H13Y15987   0.530   5.114   9.064 -2.3301  0.9085 -0.6599
  145SAPE  C31415988   0.405   5.297   9.080 -0.1987  0.3327 -0.2962
  145SAPE  H14X15989   0.392   5.376   9.157 -0.4776 -1.3453  1.4606
  145SAPE  H14Y15990   0.311   5.239   9.068  0.5581 -0.5049 -2.6222
  145SAPE  C31515991   0.432   5.353   8.943 -0.5933  0.3731  0.2317
  145SAPE  H15X15992   0.419   5.273   8.867  0.5618 -0.0507  0.4521
  145SAPE  H15Y15993   0.534   5.397   8.933  0.1381 -1.4011 -0.4626
  145SAPE  C31615994   0.332   5.465   8.906 -0.5270 -0.1660  0.6685
  145SAPE  H16X15995   0.334   5.550   8.978  1.6181 -1.2568  1.9748
  145SAPE  H16Y15996   0.236   5.410   8.896 -1.2987  1.2652 -0.2424
  145SAPE  C31715997   0.345   5.517   8.761  0.1067  0.2209 -0.0200
  145SAPE  H17X15998   0.419   5.599   8.769 -0.2234  0.7660 -1.9640
  145SAPE  H17Y15999   0.254   5.556   8.710 -0.9426 -1.4711  0.4928
  145SAPE  C31816000   0.390   5.411   8.656  0.2128  0.4273 -0.6025
  145SAPE  H18X16001   0.489   5.367   8.683  0.7528  0.2126 -2.7214
  145SAPE  H18Y16002   0.390   5.460   8.556 -0.5326  1.4920 -0.0920
  145SAPE  H18Z16003   0.321   5.325   8.669  1.2574 -0.1167  1.7828
  146SAPE     N16004   5.200   2.284  11.015 -0.5863 -0.9731  0.4727
  146SAPE   HN116005   5.210   2.250  11.113  0.3057  2.1138  1.5855
  146SAPE   HN216006   5.255   2.215  10.960 -0.2934 -1.0962  0.9074
  146SAPE   HN316007   5.250   2.375  11.012 -1.0317 -0.7066 -2.8666
  146SAPE   C1216008   5.056   2.304  10.989  0.0725  0.4369  0.0101
  146SAPE  H12A16009   5.047   2.325  10.880  1.3743 -4.1277 -1.2035
  146SAPE  H12B16010   5.019   2.379  11.061 -0.1425  0.7963 -0.4729
  146SAPE   C1116011   4.989   2.169  11.031  0.4878 -0.8043 -0.1851
  146SAPE  H11A16012   4.880   2.177  11.007  0.6576 -0.8213 -1.0167
  146SAPE  H11B16013   4.999   2.168  11.141  1.6319 -1.0320 -0.2856
  146SAPE     P16014   5.020   1.984  10.838  0.2051  0.0155 -0.1685
  146SAPE   O1316015   5.141   1.902  10.804  0.9047  0.2003 -0.2333
  146SAPE   O1416016   4.889   1.912  10.844 -0.4866 -0.7208  1.1395
  146SAPE   O1216017   5.048   2.047  10.985 -0.6502 -0.0179 -0.5740
  146SAPE   O1116018   5.011   2.112  10.749  0.2602  0.2214 -0.2973
  146SAPE    C116019   4.885   2.167  10.704 -0.3118  0.5274  0.1481
  146SAPE    HA16020   4.817   2.176  10.791  3.6445 -1.8283  3.9080
  146SAPE    HB16021   4.904   2.272  10.672  1.8681  0.7650  1.9111
  146SAPE    C216022   4.834   2.083  10.586  0.3195  0.1432  0.3086
  146SAPE    HS16023   4.802   1.982  10.617  2.5076 -0.5611  0.4324
  146SAPE   O2116024   4.940   2.082  10.490  0.3104 -0.8169 -0.1900
  146SAPE   C2116025   4.948   1.976  10.404  0.1901 -0.3507 -0.3819
  146SAPE   O2216026   4.881   1.874  10.406 -0.3995 -0.6787  0.0178
  146SAPE   C2216027   5.072   1.994  10.314  0.5139  0.8696 -0.0106
  146SAPE   H2R16028   5.088   2.103  10.302 -1.9555  1.3119  0.2885
  146SAPE   H2S16029   5.157   1.943  10.366 -0.1730  0.1808  0.4652
  146SAPE    C316030   4.718   2.158  10.512 -0.1907 -0.1837 -0.7462
  146SAPE    HX16031   4.750   2.262  10.494 -0.3687  0.2248  1.1174
  146SAPE    HY16032   4.629   2.158  10.579 -0.1912 -3.8171 -0.5297
  146SAPE   O3116033   4.683   2.097  10.384 -0.1817 -0.5222  0.4524
  146SAPE   C3116034   4.596   1.999  10.393  0.3118 -0.5795 -0.2653
  146SAPE   O3216035   4.562   1.939  10.493 -0.2852 -0.6298  0.3827
  146SAPE   C3216036   4.538   1.961  10.253 -0.3227  1.1467 -0.0887
  146SAPE   H2X16037   4.473   2.039  10.208 -0.3925 -0.6929 -3.5220
  146SAPE   H2Y16038   4.466   1.877  10.266 -1.2370  1.9744  0.3474
  146SAPE   C2316039   5.061   1.930  10.176  0.2606 -0.1187  0.2864
  146SAPE   H3R16040   4.959   1.950  10.137 -0.1526  0.0501  1.4207
  146SAPE   H3S16041   5.064   1.819  10.184  0.5265 -0.3160 -1.9289
  146SAPE   C2416042   5.178   1.978  10.091  0.6428 -0.4681 -0.3870
  146SAPE   H4R16043   5.271   1.966  10.151  0.4704 -0.0821 -0.0314
  146SAPE   H4S16044   5.163   2.088  10.080  0.5030 -0.2727  1.4013
  146SAPE   C2516045   5.178   1.908   9.962 -0.1617 -0.2141 -0.0717
  146SAPE   H5R16046   5.212   1.804   9.952 -3.3367 -1.1243 -3.8384
  146SAPE   C2616047   5.112   1.943   9.858  0.9526  0.2844 -0.1699
  146SAPE   H6R16048   5.126   1.881   9.768  1.6654  1.6350 -1.0051
  146SAPE   C2716049   5.024   2.064   9.833 -0.3855  0.1895 -0.3752
  146SAPE   H7R16050   4.938   2.077   9.902  1.3494  0.8139  1.7972
  146SAPE   H7S16051   4.982   2.045   9.732 -0.9657  1.4963 -0.4049
  146SAPE   C2816052   5.101   2.191   9.823 -0.7114  0.7822  0.6477
  146SAPE   H8R16053   5.132   2.223   9.923  0.9406 -0.8245  0.7130
  146SAPE   C2916054   5.150   2.252   9.710  0.3507  0.2033  0.0689
  146SAPE   H9R16055   5.213   2.341   9.725  2.4189 -1.3987  1.4164
  146SAPE  C21016056   5.132   2.208   9.570  0.1021  0.1005  0.9138
  146SAPE  H10R16057   5.162   2.289   9.500  0.4291  0.8648  1.9281
  146SAPE  H10S16058   5.022   2.206   9.555  0.2729 -0.6517 -0.5000
  146SAPE  C21116059   5.188   2.074   9.531  0.2560 -0.4356  0.3778
  146SAPE  H11R16060   5.222   1.994   9.598  0.3811 -2.9552 -2.4990
  146SAPE  C21216061   5.193   2.035   9.401 -0.2511 -0.2646 -0.4459
  146SAPE  H12R16062   5.236   1.935   9.386  0.3384 -0.0599 -0.1576
  146SAPE  C21316063   5.146   2.122   9.288  0.9478  0.2272 -0.0506
  146SAPE  H13R16064   5.233   2.173   9.241  1.0874  0.0249 -0.0104
  146SAPE  H13S16065   5.076   2.202   9.322 -0.7609 -1.1100 -0.2882
  146SAPE  C21416066   5.068   2.039   9.189 -0.7444  0.0718  0.4886
  146SAPE  H14R16067   4.973   1.995   9.222 -0.7268  1.1649  2.1254
  146SAPE  C21516068   5.101   2.002   9.058 -0.4037  0.3454 -0.3410
  146SAPE  H15R16069   5.031   1.931   9.012  1.4230 -1.5940 -0.2714
  146SAPE  C21616070   5.222   2.044   8.973 -0.1088 -0.3786 -0.8027
  146SAPE  H16R16071   5.266   1.955   8.924  0.2155 -0.9834  0.5578
  146SAPE  H16S16072   5.306   2.073   9.040  1.2692 -2.2638 -1.6209
  146SAPE  C21716073   5.203   2.143   8.864  0.5506  0.0324 -0.0691
  146SAPE  H17R16074   5.149   2.231   8.907  0.2008 -1.1177  1.9694
  146SAPE  H17S16075   5.136   2.098   8.788 -0.2768  3.6968 -1.7789
  146SAPE  C21816076   5.330   2.190   8.791 -0.1958 -0.9005  0.6107
  146SAPE  H18R16077   5.379   2.097   8.754 -2.1749 -0.9561 -2.1793
  146SAPE  H18S16078   5.400   2.252   8.852  0.7878  0.1486 -1.4866
  146SAPE  C21916079   5.298   2.279   8.671 -0.8606 -0.6580  0.4609
  146SAPE  H19R16080   5.247   2.213   8.598  0.0127 -1.5295  0.6087
  146SAPE  H19S16081   5.389   2.327   8.630 -0.6939 -0.7520  0.7160
  146SAPE  C22016082   5.216   2.403   8.709  0.1602  0.3876  0.2256
  146SAPE  H20R16083   5.129   2.385   8.775 -0.2829 -2.4930 -1.0158
  146SAPE  H20S16084   5.167   2.451   8.622  1.2953  1.0315 -0.0856
  146SAPE  H20T16085   5.278   2.471   8.772  0.4875 -1.4643  2.0080
  146SAPE   C3316086   4.645   1.915  10.151 -1.1136 -0.1638  0.6698
  146SAPE   H3X16087   4.711   1.833  10.186  0.3416 -0.1949 -1.9203
  146SAPE   H3Y16088   4.715   2.002  10.150 -0.8867 -0.3264  1.5810
  146SAPE   C3416089   4.594   1.898  10.006  0.4866  0.3810 -0.1417
  146SAPE   H4X16090   4.512   1.972   9.990  0.0851  0.0132  0.2095
  146SAPE   H4Y16091   4.547   1.799   9.987  0.2612  0.4546  0.0236
  146SAPE   C3516092   4.702   1.919   9.898  0.0357  0.7134  0.2502
  146SAPE   H5X16093   4.784   1.847   9.917  1.1896  1.6704 -0.9188
  146SAPE   H5Y16094   4.744   2.022   9.901  1.6871  0.0670  0.1124
  146SAPE   C3616095   4.636   1.891   9.755 -0.7254 -0.0801 -0.6095
  146SAPE   H6X16096   4.560   1.971   9.743  2.2830  3.0235 -0.4573
  146SAPE   H6Y16097   4.587   1.793   9.773 -0.6339  0.2722  1.9364
  146SAPE   C3716098   4.724   1.900   9.632 -0.6335  0.2937 -0.4492
  146SAPE   H7X16099   4.816   1.840   9.651 -0.1195  0.7996 -1.2717
  146SAPE   H7Y16100   4.751   2.007   9.619  0.8884 -0.2389 -2.0267
  146SAPE   C3816101   4.654   1.854   9.499 -0.2506  0.7575  0.0062
  146SAPE   H8X16102   4.559   1.903   9.470 -1.3745 -1.5536 -0.4251
  146SAPE   H8Y16103   4.641   1.746   9.520  0.5104  0.6319 -0.1406
  146SAPE   C3916104   4.756   1.868   9.376 -0.3468 -0.0882 -0.0424
  146SAPE   H9X16105   4.855   1.834   9.411  0.6541  2.0791 -0.5749
  146SAPE   H9Y16106   4.761   1.977   9.351  3.1718 -0.0088  0.4838
  146SAPE  C31016107   4.715   1.784   9.254  0.1649  0.1483 -0.1723
  146SAPE  H10X16108   4.603   1.784   9.253 -0.0027 -2.6593  2.4135
  146SAPE  H10Y16109   4.750   1.682   9.283 -0.9351 -0.0511  0.5230
  146SAPE  C31116110   4.780   1.824   9.126 -0.1314  0.6914  0.4659
  146SAPE  H11X16111   4.889   1.807   9.141  0.0294 -0.4416 -1.6200
  146SAPE  H11Y16112   4.768   1.935   9.118 -1.0335  0.7242  1.9221
  146SAPE  C31216113   4.712   1.764   9.003 -0.0648 -0.0479  0.2700
  146SAPE  H12X16114   4.605   1.796   9.007  0.1755  1.2553 -2.1713
  146SAPE  H12Y16115   4.716   1.653   9.005  0.6015 -0.0454 -0.4313
  146SAPE  C31316116   4.766   1.817   8.872 -0.1611 -0.1897  0.1387
  146SAPE  H13X16117   4.719   1.754   8.794  0.4815 -1.1503  0.5197
  146SAPE  H13Y16118   4.876   1.812   8.866 -0.1305  1.5436 -3.9052
  146SAPE  C31416119   4.725   1.965   8.843 -0.2615  0.0210 -0.2217
  146SAPE  H14X16120   4.776   1.992   8.748 -0.6035 -0.5499 -0.5787
  146SAPE  H14Y16121   4.758   2.030   8.927 -0.6936  0.2693 -0.2391
  146SAPE  C31516122   4.581   1.993   8.807  0.2878  0.6395  0.3472
  146SAPE  H15X16123   4.513   1.939   8.877  0.5891 -1.8748 -1.1897
  146SAPE  H15Y16124   4.547   1.950   8.711 -0.9615 -1.5564  1.6719
  146SAPE  C31616125   4.539   2.148   8.815 -0.3043 -0.1321  0.0064
  146SAPE  H16X16126   4.435   2.149   8.775 -1.0180 -1.9183  1.6252
  146SAPE  H16Y16127   4.601   2.205   8.743  0.1101  0.9905  1.2239
  146SAPE  C31716128   4.547   2.216   8.950  0.2272 -0.2577  1.0906
  146SAPE  H17X16129   4.653   2.227   8.981 -0.1172  4.4669  1.4002
  146SAPE  H17Y16130   4.509   2.155   9.034 -1.5853  0.6166  0.9636
  146SAPE  C31816131   4.490   2.359   8.946  0.3950 -0.2478  0.0917
  146SAPE  H18X16132   4.548   2.424   8.877  1.4608 -0.6434  0.5956
  146SAPE  H18Y16133   4.494   2.402   9.049 -0.3014  1.1855 -0.4580
  146SAPE  H18Z16134   4.382   2.366   8.922  0.0942 -1.1558  1.1004
  147SAPE     N16135   2.585   1.753   6.204  0.3293 -0.4548 -0.1830
  147SAPE   HN116136   2.548   1.821   6.274 -0.6300 -1.6293  0.5016
  147SAPE   HN216137   2.588   1.789   6.106  1.8649 -0.7055 -0.2524
  147SAPE   HN316138   2.529   1.666   6.202  0.2825 -0.4270 -2.3577
  147SAPE   C1216139   2.720   1.702   6.238  0.0659 -0.3101 -0.2040
  147SAPE  H12A16140   2.774   1.768   6.309  1.3093 -1.0203 -0.4565
  147SAPE  H12B16141   2.787   1.704   6.149 -0.3961  1.4193 -0.5632
  147SAPE   C1116142   2.712   1.553   6.280  0.3398 -0.0774 -0.1362
  147SAPE  H11A16143   2.811   1.515   6.314 -1.3020 -2.1530  2.7548
  147SAPE  H11B16144   2.693   1.499   6.184  1.0791 -0.2581 -0.1845
  147SAPE     P16145   2.601   1.595   6.510 -0.1748  0.0914 -0.2242
  147SAPE   O1316146   2.562   1.737   6.508  0.3676  0.4851 -0.6837
  147SAPE   O1416147   2.530   1.498   6.590 -0.1425  0.2018  0.0923
  147SAPE   O1216148   2.596   1.537   6.360  0.0825  0.0478 -0.2074
  147SAPE   O1116149   2.751   1.575   6.544 -0.6845 -0.0539  0.0106
  147SAPE    C116150   2.834   1.459   6.556  0.0787 -0.0267  0.2029
  147SAPE    HA16151   2.773   1.370   6.531  0.5571  0.0334 -1.2720
  147SAPE    HB16152   2.921   1.461   6.486  2.6985 -3.6173  2.9947
  147SAPE    C216153   2.901   1.449   6.703  0.9452  1.0755 -0.1493
  147SAPE    HS16154   2.972   1.365   6.715  3.5023  3.1548  0.1527
  147SAPE   O2116155   2.795   1.421   6.797 -0.3345  0.5899 -0.3820
  147SAPE   C2116156   2.735   1.308   6.790  0.3385 -0.4449  0.4391
  147SAPE   O2216157   2.758   1.215   6.712 -0.5834 -0.5180 -0.6798
  147SAPE   C2216158   2.627   1.311   6.895  0.6236  0.8011  0.7326
  147SAPE   H2R16159   2.662   1.373   6.980  0.9303  0.6515  0.7161
  147SAPE   H2S16160   2.528   1.339   6.854  1.0788  0.6524 -0.4993
  147SAPE    C316161   2.978   1.580   6.739 -0.5143  0.1902  0.7450
  147SAPE    HX16162   2.897   1.656   6.735  1.3023  2.1888  0.0588
  147SAPE    HY16163   3.052   1.579   6.657 -0.9778 -2.4553  0.2739
  147SAPE   O3116164   3.049   1.562   6.870  0.5720 -0.0236 -0.1232
  147SAPE   C3116165   3.141   1.654   6.874 -0.2755  0.0443  0.0610
  147SAPE   O3216166   3.172   1.726   6.779 -0.8686 -0.8211  0.2583
  147SAPE   C3216167   3.203   1.648   7.017 -0.1933  0.1502 -0.6700
  147SAPE   H2X16168   3.230   1.541   7.032 -1.4049 -0.0906 -0.1372
  147SAPE   H2Y16169   3.123   1.671   7.090  2.7857  2.0062  2.3696
  147SAPE   C2316170   2.597   1.167   6.959 -0.2446  0.4620 -0.0176
  147SAPE   H3R16171   2.695   1.126   6.992 -1.4104 -2.4880  0.0689
  147SAPE   H3S16172   2.561   1.089   6.890 -0.8832 -0.7402  1.6118
  147SAPE   C2416173   2.505   1.163   7.080  0.4591  0.0574  0.2111
  147SAPE   H4R16174   2.413   1.209   7.039 -0.0085 -0.0960  1.0787
  147SAPE   H4S16175   2.547   1.221   7.165  0.7220  0.1738  0.0034
  147SAPE   C2516176   2.469   1.022   7.112  0.3818 -0.1435 -0.3963
  147SAPE   H5R16177   2.451   0.957   7.026 -0.9871  0.5410 -0.6473
  147SAPE   C2616178   2.480   0.967   7.238  0.5444 -0.0122  0.3413
  147SAPE   H6R16179   2.431   0.868   7.243 -1.8849  1.1593  1.2093
  147SAPE   C2716180   2.514   1.032   7.372  0.0713  0.1010 -0.1896
  147SAPE   H7R16181   2.493   1.141   7.378  0.7255  0.1729  0.9734
  147SAPE   H7S16182   2.624   1.038   7.372  0.1341 -0.6705  1.1807
  147SAPE   C2816183   2.454   0.963   7.498  0.2108 -0.2795 -0.4838
  147SAPE   H8R16184   2.347   0.936   7.495  0.4664 -1.2629 -1.3894
  147SAPE   C2916185   2.524   0.907   7.595 -0.3302  0.8767 -1.0254
  147SAPE   H9R16186   2.469   0.849   7.670 -0.0491  0.3176 -1.2448
  147SAPE  C21016187   2.673   0.915   7.621  0.4260 -0.4971 -0.6483
  147SAPE  H10R16188   2.726   0.972   7.542  0.7783 -0.7348 -0.5857
  147SAPE  H10S16189   2.715   0.812   7.617  3.0869  0.3783  1.5626
  147SAPE  C21116190   2.696   0.989   7.752  0.2475 -0.6883 -0.0368
  147SAPE  H11R16191   2.692   1.098   7.737  0.7230 -0.1375  3.2108
  147SAPE  C21216192   2.692   0.930   7.881 -0.5098  0.0696  0.1147
  147SAPE  H12R16193   2.704   0.997   7.967 -3.7984 -0.3098  0.9926
  147SAPE  C21316194   2.666   0.788   7.909 -0.9150 -0.7660  0.0185
  147SAPE  H13R16195   2.593   0.742   7.839  0.5572 -0.4352 -1.8055
  147SAPE  H13S16196   2.628   0.783   8.013  1.1206 -1.9213  0.7772
  147SAPE  C21416197   2.799   0.711   7.893 -0.5832 -1.3185  0.5557
  147SAPE  H14R16198   2.848   0.723   7.795  0.8667  2.1582  1.5518
  147SAPE  C21516199   2.875   0.643   7.980  0.0835  0.1118  1.1159
  147SAPE  H15R16200   2.961   0.591   7.935 -1.5462  0.1133 -2.3304
  147SAPE  C21616201   2.849   0.607   8.127  0.8154  0.5617  0.2503
  147SAPE  H16R16202   2.769   0.670   8.170  0.1855  0.3400 -0.5705
  147SAPE  H16S16203   2.935   0.631   8.193  1.0207  0.7854 -0.0909
  147SAPE  C21716204   2.803   0.469   8.143 -0.4601 -0.2204  0.1893
  147SAPE  H17R16205   2.729   0.450   8.063 -0.4872  1.3850 -0.2050
  147SAPE  H17S16206   2.756   0.455   8.243 -1.6809  0.2657 -0.3099
  147SAPE  C21816207   2.914   0.360   8.131  0.5571  0.0356  0.8126
  147SAPE  H18R16208   2.963   0.359   8.032  0.8414 -2.5666  0.9172
  147SAPE  H18S16209   2.861   0.263   8.139 -2.6028  1.2265 -2.6697
  147SAPE  C21916210   3.028   0.367   8.235 -0.6776  0.3241  0.4264
  147SAPE  H19R16211   2.976   0.353   8.332  0.6018 -1.7525  0.8837
  147SAPE  H19S16212   3.090   0.459   8.236  0.6292 -0.4822 -1.1626
  147SAPE  C22016213   3.118   0.248   8.222 -0.1143 -0.9400 -0.7922
  147SAPE  H20R16214   3.194   0.264   8.302 -0.9356  1.5443 -0.4086
  147SAPE  H20S16215   3.184   0.251   8.132  1.4954  2.9568  0.3273
  147SAPE  H20T16216   3.061   0.156   8.245 -1.7828 -0.2365 -1.9144
  147SAPE   C3316217   3.328   1.731   7.038 -0.1073 -0.3446 -0.5452
  147SAPE   H3X16218   3.304   1.830   6.991  1.3262  0.0974 -0.3962
  147SAPE   H3Y16219   3.405   1.675   6.981  1.7208  1.4945 -0.0178
  147SAPE   C3416220   3.377   1.749   7.182 -0.0842 -0.0558 -0.1075
  147SAPE   H4X16221   3.325   1.821   7.249 -0.6171 -0.0656 -0.5098
  147SAPE   H4Y16222   3.481   1.788   7.186  0.5909 -1.7976  0.2538
  147SAPE   C3516223   3.375   1.619   7.260  0.6190 -0.5489 -0.0003
  147SAPE   H5X16224   3.444   1.541   7.220 -0.2282 -1.7143  0.7154
  147SAPE   H5Y16225   3.277   1.566   7.266  1.5398 -2.4818 -0.9903
  147SAPE   C3616226   3.427   1.639   7.406 -0.1117 -0.0147  0.5615
  147SAPE   H6X16227   3.363   1.710   7.463 -0.2484  0.3160  0.0040
  147SAPE   H6Y16228   3.537   1.659   7.413  0.0009 -0.8767  1.6025
  147SAPE   C3716229   3.422   1.501   7.483 -0.0083 -0.5500 -0.0298
  147SAPE   H7X16230   3.471   1.418   7.428  0.2907 -1.1302  1.0888
  147SAPE   H7Y16231   3.315   1.471   7.479 -0.0241 -0.6823  1.0313
  147SAPE   C3816232   3.474   1.513   7.626 -0.6021 -0.2353 -0.0326
  147SAPE   H8X16233   3.429   1.609   7.660 -0.7984 -0.2077 -0.3739
  147SAPE   H8Y16234   3.584   1.529   7.624 -0.4578 -0.9280  1.1153
  147SAPE   C3916235   3.424   1.412   7.734 -0.3527 -0.4245  0.0839
  147SAPE   H9X16236   3.452   1.306   7.716 -0.3167 -0.2991 -0.6055
  147SAPE   H9Y16237   3.313   1.423   7.735 -0.5437 -1.9381 -1.2069
  147SAPE  C31016238   3.464   1.449   7.876 -0.4942  1.0400 -0.0710
  147SAPE  H10X16239   3.480   1.559   7.881  1.5426  0.7317  3.2127
  147SAPE  H10Y16240   3.561   1.398   7.894 -1.5425 -0.7432  0.8611
  147SAPE  C31116241   3.353   1.404   7.983  0.1228 -0.2779 -1.0056
  147SAPE  H11X16242   3.338   1.296   7.958 -0.5793 -0.3942 -0.1454
  147SAPE  H11Y16243   3.264   1.466   7.958 -0.7025  0.6823  3.3713
  147SAPE  C31216244   3.410   1.423   8.126 -0.7482  0.3554  0.2513
  147SAPE  H12X16245   3.447   1.527   8.138  0.5728 -0.0207 -0.3327
  147SAPE  H12Y16246   3.497   1.355   8.138 -0.4069  0.8994  0.9324
  147SAPE  C31316247   3.303   1.380   8.230 -0.6388 -0.5194  0.7119
  147SAPE  H13X16248   3.337   1.400   8.334  1.5335 -0.1576 -0.0087
  147SAPE  H13Y16249   3.271   1.274   8.218  1.4465 -1.0036 -1.3832
  147SAPE  C31416250   3.173   1.469   8.197 -0.2493  0.3209 -0.3262
  147SAPE  H14X16251   3.124   1.418   8.112  2.5744 -0.1278 -1.8117
  147SAPE  H14Y16252   3.209   1.572   8.177  2.5570 -0.0896  1.9288
  147SAPE  C31516253   3.087   1.462   8.323 -0.2032  0.1935  0.1164
  147SAPE  H15X16254   3.027   1.554   8.307  1.2430  0.8929 -1.7291
  147SAPE  H15Y16255   3.150   1.489   8.411  0.1104  0.1017 -0.0746
  147SAPE  C31616256   3.004   1.341   8.334  0.7531  1.0750 -0.2983
  147SAPE  H16X16257   3.066   1.257   8.373  1.5770  0.8952 -1.9234
  147SAPE  H16Y16258   2.973   1.314   8.231  1.0313 -2.2506  0.3873
  147SAPE  C31716259   2.874   1.360   8.420 -0.0373 -0.4064 -0.8843
  147SAPE  H17X16260   2.836   1.264   8.460 -0.2656 -0.8931 -2.2001
  147SAPE  H17Y16261   2.791   1.395   8.354  0.8916  0.1643 -1.7916
  147SAPE  C31816262   2.894   1.452   8.543 -0.7314 -0.2647  0.4586
  147SAPE  H18X16263   2.919   1.554   8.509  1.7032 -1.3785 -1.4311
  147SAPE  H18Y16264   2.986   1.413   8.591 -1.4909 -1.4535  1.0014
  147SAPE  H18Z16265   2.813   1.440   8.618 -2.2779  0.8769 -0.9699
  148SAPE     N16266   1.657   0.365   6.772 -0.3389  0.3039  0.1271
  148SAPE   HN116267   1.741   0.304   6.770 -0.4102  0.2224 -1.3552
  148SAPE   HN216268   1.664   0.422   6.685  0.1252  0.2555  0.1317
  148SAPE   HN316269   1.666   0.424   6.857  0.9607  0.4877 -0.1184
  148SAPE   C1216270   1.534   0.276   6.772  0.0257  0.0203  0.0650
  148SAPE  H12A16271   1.531   0.233   6.874  1.8009  0.4833  0.3564
  148SAPE  H12B16272   1.539   0.208   6.685  0.3018  0.0032  0.0942
  148SAPE   C1116273   1.407   0.362   6.759 -0.4844  0.5246 -0.1285
  148SAPE  H11A16274   1.384   0.422   6.850 -1.4376  1.7449 -1.1350
  148SAPE  H11B16275   1.318   0.297   6.766  1.0649 -1.6629  0.1747
  148SAPE     P16276   1.339   0.413   6.515 -0.1191 -0.2061  0.5550
  148SAPE   O1316277   1.321   0.546   6.441 -0.1760 -0.0392 -0.3915
  148SAPE   O1416278   1.414   0.311   6.439 -0.3173  0.1925 -0.6019
  148SAPE   O1216279   1.397   0.445   6.650 -0.3482 -0.3171  0.3305
  148SAPE   O1116280   1.194   0.347   6.541  0.4241 -0.1857 -0.3145
  148SAPE    C116281   1.083   0.431   6.574 -0.3833  0.2912  0.1221
  148SAPE    HA16282   1.110   0.532   6.534 -3.1452  1.3690  0.7914
  148SAPE    HB16283   0.998   0.391   6.516 -2.0812  2.6967  0.8018
  148SAPE    C216284   1.058   0.422   6.723 -0.1460 -0.1626  0.1025
  148SAPE    HS16285   0.953   0.455   6.733 -1.2057 -1.9856 -3.2567
  148SAPE   O2116286   1.151   0.503   6.792 -0.0522  0.0648 -0.6146
  148SAPE   C2116287   1.138   0.637   6.799  0.0046  0.5914  0.7286
  148SAPE   O2216288   1.049   0.696   6.739 -0.6926  0.2478 -0.3260
  148SAPE   C2216289   1.252   0.699   6.882  0.5298  0.3209  0.7682
  148SAPE   H2R16290   1.317   0.619   6.923  2.7667  1.3755 -0.5391
  148SAPE   H2S16291   1.307   0.758   6.805 -0.7327 -2.1134 -2.1978
  148SAPE    C316292   1.045   0.274   6.776  0.0838  0.4233  0.3213
  148SAPE    HX16293   1.113   0.208   6.717 -0.9907  0.0051 -0.4786
  148SAPE    HY16294   0.944   0.235   6.751  0.7342 -1.6518  0.7249
  148SAPE   O3116295   1.061   0.260   6.914 -0.4787  0.2810 -0.0497
  148SAPE   C3116296   0.962   0.289   7.002 -0.0969 -0.5491  0.0682
  148SAPE   O3216297   0.860   0.349   6.980  0.4283  0.1348  0.7577
  148SAPE   C3216298   1.018   0.269   7.144  0.3854 -0.1476 -0.3432
  148SAPE   H2X16299   1.121   0.310   7.144  1.3506 -2.3976 -0.8488
  148SAPE   H2Y16300   1.019   0.158   7.134  0.6329  0.0742 -4.0316
  148SAPE   C2316301   1.204   0.797   6.991  0.0869 -0.0081  0.8090
  148SAPE   H3R16302   1.125   0.870   6.963  2.6337  2.1813 -1.1975
  148SAPE   H3S16303   1.291   0.858   7.022 -1.2010  2.2282  0.2159
  148SAPE   C2416304   1.152   0.709   7.106  0.5051 -0.2409 -0.0650
  148SAPE   H4R16305   1.085   0.633   7.060  0.3250  1.0921 -2.1526
  148SAPE   H4S16306   1.078   0.771   7.160 -1.1082  0.3049 -2.7609
  148SAPE   C2516307   1.253   0.631   7.189 -0.1364 -0.2805  0.0218
  148SAPE   H5R16308   1.333   0.594   7.122 -0.4432 -2.3827  0.7399
  148SAPE   C2616309   1.242   0.607   7.322 -0.0877 -0.2596 -0.8557
  148SAPE   H6R16310   1.316   0.542   7.370 -1.4782 -1.8759 -0.7879
  148SAPE   C2716311   1.143   0.653   7.425 -0.1097 -0.4602  0.8725
  148SAPE   H7R16312   1.125   0.567   7.494  1.9939 -1.1413  0.6283
  148SAPE   H7S16313   1.044   0.678   7.381  0.2048  2.4327  1.6375
  148SAPE   C2816314   1.190   0.777   7.494  0.0426 -0.0250 -0.3447
  148SAPE   H8R16315   1.191   0.864   7.426  2.3725 -1.3910 -2.2134
  148SAPE   C2916316   1.229   0.790   7.624  0.1721 -0.0174 -0.3855
  148SAPE   H9R16317   1.268   0.887   7.655 -0.7312 -0.0302  0.8578
  148SAPE  C21016318   1.241   0.686   7.734 -0.0960  0.1806  0.5127
  148SAPE  H10R16319   1.222   0.585   7.692  0.5004  0.4924 -0.5408
  148SAPE  H10S16320   1.160   0.708   7.806 -2.6666 -0.2276 -2.1061
  148SAPE  C21116321   1.379   0.671   7.797  0.1779  0.3153 -0.0316
  148SAPE  H11R16322   1.452   0.615   7.737  0.2349 -0.0558  0.3816
  148SAPE  C21216323   1.425   0.718   7.911  0.3987  0.3843  0.1877
  148SAPE  H12R16324   1.527   0.694   7.947  0.5883  1.5957  0.5154
  148SAPE  C21316325   1.345   0.801   8.006  0.1375  0.4272  0.1992
  148SAPE  H13R16326   1.360   0.751   8.104  0.1338 -0.9069 -0.4607
  148SAPE  H13S16327   1.235   0.804   7.989 -0.1409  1.1786  1.9684
  148SAPE  C21416328   1.384   0.945   8.015  0.2727  0.1064  0.3493
  148SAPE  H14R16329   1.362   1.005   7.925  0.8690  0.1048  0.1987
  148SAPE  C21516330   1.446   1.006   8.121 -0.1855 -0.7147  0.4270
  148SAPE  H15R16331   1.475   1.112   8.118  0.0705 -0.7908  0.1612
  148SAPE  C21616332   1.470   0.940   8.251  0.4833  0.6161 -0.3046
  148SAPE  H16R16333   1.536   0.852   8.237 -2.2807 -1.6462 -0.0352
  148SAPE  H16S16334   1.373   0.911   8.296 -0.8988  0.4403 -3.1631
  148SAPE  C21716335   1.548   1.041   8.341  0.0135  0.4283 -0.1875
  148SAPE  H17R16336   1.568   0.983   8.433  1.3469 -3.5882 -2.7348
  148SAPE  H17S16337   1.487   1.133   8.354  1.9906  1.4041  3.1904
  148SAPE  C21816338   1.687   1.085   8.289 -0.6252 -0.3280  0.3888
  148SAPE  H18R16339   1.690   1.121   8.184 -0.3035 -1.9517 -0.1882
  148SAPE  H18S16340   1.751   0.994   8.290 -0.1711 -0.0697 -1.1572
  148SAPE  C21916341   1.754   1.196   8.371 -0.7338  0.1716  0.5446
  148SAPE  H19R16342   1.768   1.158   8.475  0.1407  0.1546  0.4242
  148SAPE  H19S16343   1.696   1.290   8.373  0.1711  0.7371  1.0273
  148SAPE  C22016344   1.893   1.237   8.325 -0.1074 -0.1583  0.3077
  148SAPE  H20R16345   1.954   1.145   8.311  0.7204  0.3418  0.5938
  148SAPE  H20S16346   1.952   1.299   8.395  1.9706 -0.3159 -1.2146
  148SAPE  H20T16347   1.873   1.290   8.230 -1.6083  1.6433  1.5697
  148SAPE   C3316348   0.921   0.332   7.249 -0.3031 -0.3821  0.2696
  148SAPE   H3X16349   0.820   0.285   7.241  0.2541 -1.4148 -1.0664
  148SAPE   H3Y16350   0.920   0.441   7.227  0.9182 -0.3967  0.1028
  148SAPE   C3416351   0.965   0.310   7.391  0.7876 -0.1380  0.0294
  148SAPE   H4X16352   1.045   0.384   7.413  1.3274 -0.8273  0.3932
  148SAPE   H4Y16353   1.021   0.215   7.399  0.1586 -0.4942  0.2351
  148SAPE   C3516354   0.847   0.315   7.497  0.1256 -0.6565 -0.6814
  148SAPE   H5X16355   0.785   0.226   7.473  1.9177 -1.8111 -1.1876
  148SAPE   H5Y16356   0.788   0.409   7.487 -0.7334 -1.1720 -0.5041
  148SAPE   C3616357   0.900   0.306   7.647  0.5605 -0.4805 -0.2938
  148SAPE   H6X16358   0.976   0.385   7.668  1.3507 -1.2501 -0.1745
  148SAPE   H6Y16359   0.950   0.208   7.659  0.8616 -0.6457 -2.5469
  148SAPE   C3716360   0.782   0.324   7.753 -0.0467  0.1259  0.5382
  148SAPE   H7X16361   0.721   0.234   7.729  3.8664 -2.8266  0.7793
  148SAPE   H7Y16362   0.728   0.420   7.742  0.3344  0.1210 -1.8943
  148SAPE   C3816363   0.827   0.310   7.897 -0.6007  0.1906 -0.4138
  148SAPE   H8X16364   0.870   0.411   7.912 -0.7200  0.4739 -1.8658
  148SAPE   H8Y16365   0.905   0.232   7.916 -1.8039 -1.3937 -1.6225
  148SAPE   C3916366   0.712   0.266   7.995  0.0100 -0.6118  0.4239
  148SAPE   H9X16367   0.674   0.164   7.969  1.7464 -0.7989 -1.6483
  148SAPE   H9Y16368   0.631   0.335   7.962  1.1958  0.2752 -0.6983
  148SAPE  C31016369   0.739   0.279   8.142  0.4826  0.2334  0.1015
  148SAPE  H10X16370   0.798   0.372   8.153  1.5693 -0.2420 -1.4406
  148SAPE  H10Y16371   0.800   0.201   8.193  2.6912  2.5712  1.2373
  148SAPE  C31116372   0.613   0.299   8.229  0.0359  0.4982 -0.8223
  148SAPE  H11X16373   0.530   0.239   8.186  0.5970 -0.3949 -0.6803
  148SAPE  H11Y16374   0.588   0.407   8.223 -2.6345  0.0238  0.2670
  148SAPE  C31216375   0.627   0.265   8.382  0.1270  0.4602  0.2703
  148SAPE  H12X16376   0.726   0.304   8.416  1.0491  0.7680 -2.4692
  148SAPE  H12Y16377   0.635   0.155   8.390  0.6387  0.5649  1.3405
  148SAPE  C31316378   0.512   0.301   8.470 -0.2083 -0.6900  0.1007
  148SAPE  H13X16379   0.415   0.253   8.448  0.1591 -2.0597  1.3435
  148SAPE  H13Y16380   0.497   0.407   8.437  0.1066 -0.9583 -0.9411
  148SAPE  C31416381   0.543   0.289   8.618 -0.2534  0.6327 -0.4257
  148SAPE  H14X16382   0.468   0.339   8.684 -1.8513 -0.2080 -1.5302
  148SAPE  H14Y16383   0.645   0.324   8.644  0.1121  0.1552 -1.2059
  148SAPE  C31516384   0.538   0.138   8.672  0.6447 -0.7888  0.3202
  148SAPE  H15X16385   0.620   0.079   8.625  0.5424  0.4278 -1.5274
  148SAPE  H15Y16386   0.450   0.088   8.626 -0.9212 -0.7574  3.0992
  148SAPE  C31616387   0.527   0.136   8.820 -0.0138  0.3975  0.0528
  148SAPE  H16X16388   0.429   0.159   8.865  0.4855  0.9384  0.8937
  148SAPE  H16Y16389   0.598   0.215   8.854  1.2744 -0.4427 -0.5810
  148SAPE  C31716390   0.598  -0.000   8.872  0.0720  0.1171  0.3411
  148SAPE  H17X16391   0.708  -0.006   8.856 -0.0554 -2.1060 -0.0279
  148SAPE  H17Y16392   0.562  -0.082   8.806 -0.2328  0.2265  0.3709
  148SAPE  C31816393   0.555  -0.012   9.023  0.4874 -0.7305  0.0196
  148SAPE  H18X16394   0.601   0.049   9.104 -1.2523  0.6060  0.0615
  148SAPE  H18Y16395   0.550  -0.118   9.056 -0.0028 -0.6857  0.0962
  148SAPE  H18Z16396   0.446   0.012   9.032  0.5607 -0.6518  0.7876
  149SAPE     N16397   0.486   1.141   5.918 -0.0636 -0.1761  0.6636
  149SAPE   HN116398   0.488   1.185   5.824  0.5699  0.6971  1.0719
  149SAPE   HN216399   0.544   1.205   5.976 -0.7299  0.1671  0.9704
  149SAPE   HN316400   0.538   1.051   5.918 -2.2085 -1.4922  0.7498
  149SAPE   C1216401   0.355   1.109   5.987 -0.6117  0.2075 -0.4266
  149SAPE  H12A16402   0.304   1.031   5.925  0.2799  0.3785 -1.4141
  149SAPE  H12B16403   0.306   1.207   5.972  0.3644  0.6808 -0.5565
  149SAPE   C1116404   0.367   1.088   6.136 -0.0512  0.2014 -0.9191
  149SAPE  H11A16405   0.267   1.080   6.184  0.5387 -2.7834  0.0820
  149SAPE  H11B16406   0.417   1.174   6.185  0.9200 -2.1248  2.5361
  149SAPE     P16407   0.399   0.843   6.212 -0.0147 -0.4533  0.0305
  149SAPE   O1316408   0.260   0.822   6.175 -0.2005 -0.7080 -0.2696
  149SAPE   O1416409   0.501   0.742   6.163  0.1996  0.0300 -0.1451
  149SAPE   O1216410   0.453   0.976   6.160 -0.1576 -0.1847 -0.3246
  149SAPE   O1116411   0.409   0.851   6.370  0.2427  0.2077  0.4110
  149SAPE    C116412   0.383   0.732   6.448 -0.7076  0.9915  0.2852
  149SAPE    HA16413   0.276   0.703   6.444 -0.6900  1.0384 -0.6508
  149SAPE    HB16414   0.452   0.648   6.424 -1.6206  0.3935 -0.2904
  149SAPE    C216415   0.409   0.754   6.595 -0.2079  0.4540 -0.9792
  149SAPE    HS16416   0.391   0.658   6.649 -0.8566  0.8312 -0.4956
  149SAPE   O2116417   0.330   0.860   6.641 -0.1403 -0.1818  0.3169
  149SAPE   C2116418   0.299   0.848   6.770 -0.4035 -0.3806  0.6709
  149SAPE   O2216419   0.318   0.760   6.847 -0.7465  0.1358 -0.8379
  149SAPE   C2216420   0.261   0.987   6.817  0.1480  0.0456  0.3415
  149SAPE   H2R16421   0.305   1.063   6.748  1.8581 -1.1016  0.1100
  149SAPE   H2S16422   0.151   0.998   6.811  0.2631  0.5452 -1.3416
  149SAPE    C316423   0.562   0.784   6.614 -0.3424  0.9065  0.1478
  149SAPE    HX16424   0.580   0.870   6.545 -2.0537  2.2018  1.2212
  149SAPE    HY16425   0.615   0.694   6.576 -0.3015  1.5696 -1.4398
  149SAPE   O3116426   0.617   0.818   6.739  0.2634 -0.2469  0.6880
  149SAPE   C3116427   0.625   0.731   6.833  0.0198 -0.0058 -0.1847
  149SAPE   O3216428   0.598   0.611   6.830 -0.0108 -0.0775 -0.0257
  149SAPE   C3216429   0.686   0.805   6.952 -0.0034 -0.0706  0.2921
  149SAPE   H2X16430   0.615   0.886   6.980  0.8104 -0.0796  2.6302
  149SAPE   H2Y16431   0.780   0.858   6.924 -0.4657  1.4658  1.4945
  149SAPE   C2316432   0.296   1.015   6.964 -0.5725  0.3483  0.6056
  149SAPE   H3R16433   0.402   1.050   6.960 -0.6193  0.5901  1.3914
  149SAPE   H3S16434   0.285   0.923   7.024 -0.1534 -1.7189 -2.2885
  149SAPE   C2416435   0.218   1.131   7.030  0.3871  0.6395  0.3099
  149SAPE   H4R16436   0.206   1.222   6.968  0.0193 -0.2110 -0.9043
  149SAPE   H4S16437   0.283   1.151   7.118  2.4217  0.1603 -0.9942
  149SAPE   C2516438   0.080   1.072   7.072  0.3567  0.7834  0.1073
  149SAPE   H5R16439   0.009   1.047   6.992  1.3622 -0.7763 -0.3534
  149SAPE   C2616440   0.055   1.024   7.195 -0.0197 -0.9876  0.6233
  149SAPE   H6R16441  -0.036   0.965   7.215 -1.2578  0.7923  0.4268
  149SAPE   C2716442   0.153   1.017   7.309 -0.1616 -0.7576  0.3491
  149SAPE   H7R16443   0.257   1.050   7.288 -0.1598 -1.0413 -0.1030
  149SAPE   H7S16444   0.169   0.910   7.332 -0.1734 -0.7611  0.3413
  149SAPE   C2816445   0.096   1.091   7.427 -0.7869  0.3510 -0.5201
  149SAPE   H8R16446  -0.012   1.110   7.421 -0.7546  0.3583 -1.1591
  149SAPE   C2916447   0.165   1.149   7.522 -0.4826 -0.9820  0.0233
  149SAPE   H9R16448   0.115   1.214   7.596  0.7888  1.4713 -1.1588
  149SAPE  C21016449   0.322   1.159   7.537 -0.5401 -0.2108 -0.2954
  149SAPE  H10R16450   0.349   1.215   7.629  0.7839 -0.3005 -0.6086
  149SAPE  H10S16451   0.359   1.221   7.453 -0.8163 -0.0187 -0.2749
  149SAPE  C21116452   0.397   1.025   7.537  0.1767  0.3065 -0.2165
  149SAPE  H11R16453   0.421   0.975   7.442 -1.6446 -0.2399 -0.4306
  149SAPE  C21216454   0.441   0.963   7.651 -1.1319  0.1563  0.1752
  149SAPE  H12R16455   0.499   0.871   7.641 -0.5349  0.1192  3.0529
  149SAPE  C21316456   0.431   1.007   7.794 -0.5710  0.5303 -0.2616
  149SAPE  H13R16457   0.392   1.110   7.812 -0.4750  0.4169  0.6359
  149SAPE  H13S16458   0.531   1.012   7.842  0.1989 -0.1095 -1.7230
  149SAPE  C21416459   0.351   0.903   7.870 -0.0013 -0.5307  0.1637
  149SAPE  H14R16460   0.280   0.840   7.815  0.4698  0.5539 -1.7745
  149SAPE  C21516461   0.361   0.867   8.001 -0.4537  0.3693  0.8525
  149SAPE  H15R16462   0.281   0.804   8.043  1.3848 -1.4702  1.8040
  149SAPE  C21616463   0.455   0.910   8.115 -0.5919 -0.6912  0.5879
  149SAPE  H16R16464   0.545   0.962   8.074  0.6450 -0.5231  3.3015
  149SAPE  H16S16465   0.487   0.823   8.176  0.1227 -0.3585  0.6958
  149SAPE  C21716466   0.386   1.007   8.217 -0.4903 -0.0611  0.4576
  149SAPE  H17R16467   0.305   0.945   8.262 -2.5563  1.3131 -1.1766
  149SAPE  H17S16468   0.341   1.092   8.161  2.0434  0.5120 -0.8424
  149SAPE  C21816469   0.488   1.067   8.323  0.5159 -0.4827 -0.0474
  149SAPE  H18R16470   0.562   1.128   8.267 -2.2930  2.1995 -1.0787
  149SAPE  H18S16471   0.552   0.994   8.377 -0.8183 -1.9069 -0.3216
  149SAPE  C21916472   0.423   1.147   8.440  0.2345 -0.2206  0.0528
  149SAPE  H19R16473   0.351   1.091   8.504 -1.7524  1.4645 -0.5904
  149SAPE  H19S16474   0.369   1.237   8.403 -0.5487 -0.7323 -0.0685
  149SAPE  C22016475   0.538   1.193   8.522 -0.5996  0.2035  0.2118
  149SAPE  H20R16476   0.583   1.109   8.579 -1.6494 -1.2913 -1.0327
  149SAPE  H20S16477   0.502   1.273   8.590  1.8278  0.1852  1.6303
  149SAPE  H20T16478   0.612   1.239   8.453 -1.1264  0.7376 -0.0043
  149SAPE   C3316479   0.713   0.715   7.071  1.1236 -0.0332 -0.3505
  149SAPE   H3X16480   0.795   0.645   7.044  2.1872  1.1098 -0.1677
  149SAPE   H3Y16481   0.624   0.652   7.091  1.0480  1.0001  3.2520
  149SAPE   C3416482   0.745   0.791   7.204  0.3432 -0.0779  0.5136
  149SAPE   H4X16483   0.664   0.862   7.232  0.7659  0.7002 -0.1665
  149SAPE   H4Y16484   0.826   0.864   7.182  0.3592  0.4046  2.0989
  149SAPE   C3516485   0.766   0.700   7.325 -0.7555 -0.8284 -0.1675
  149SAPE   H5X16486   0.857   0.641   7.299 -0.0443 -2.0029  4.1573
  149SAPE   H5Y16487   0.682   0.634   7.355  1.0137 -1.4294  4.2675
  149SAPE   C3616488   0.782   0.784   7.451 -0.2194 -0.0094 -0.2591
  149SAPE   H6X16489   0.698   0.855   7.466 -2.2706 -2.2849 -0.2876
  149SAPE   H6Y16490   0.872   0.847   7.440  0.2407 -0.5060  0.5536
  149SAPE   C3716491   0.808   0.707   7.585 -0.2435 -0.1247  0.2364
  149SAPE   H7X16492   0.889   0.633   7.568 -0.4853 -0.5414  0.8585
  149SAPE   H7Y16493   0.722   0.640   7.608 -0.8194  0.1733 -0.9674
  149SAPE   C3816494   0.847   0.792   7.702  0.4042  0.0529 -0.4751
  149SAPE   H8X16495   0.756   0.853   7.722  0.8800  0.6062  0.0449
  149SAPE   H8Y16496   0.936   0.854   7.679  1.8272 -1.8699 -0.4112
  149SAPE   C3916497   0.865   0.704   7.828 -0.0473  0.6184  1.0109
  149SAPE   H9X16498   0.964   0.653   7.822  0.2939  1.2454  1.2113
  149SAPE   H9Y16499   0.792   0.621   7.816 -1.3889  1.9390 -0.4234
  149SAPE  C31016500   0.848   0.766   7.974  0.4505  0.4374  0.2749
  149SAPE  H10X16501   0.745   0.809   7.979 -0.2576 -0.8760 -1.7903
  149SAPE  H10Y16502   0.916   0.853   7.983 -0.5259  1.2375  0.1533
  149SAPE  C31116503   0.853   0.662   8.087 -0.1904 -0.2857 -0.8463
  149SAPE  H11X16504   0.941   0.602   8.056  1.4104  1.2386  0.4971
  149SAPE  H11Y16505   0.765   0.595   8.096  0.8741 -1.6328 -0.0695
  149SAPE  C31216506   0.884   0.719   8.232 -0.9151  0.2457  0.4814
  149SAPE  H12X16507   0.815   0.798   8.267  1.0206  1.2564  2.2185
  149SAPE  H12Y16508   0.986   0.762   8.221 -1.0799  0.5234  0.0300
  149SAPE  C31316509   0.881   0.603   8.333 -0.2499  0.1129 -0.9492
  149SAPE  H13X16510   0.789   0.542   8.341 -0.0837  0.0366  1.3139
  149SAPE  H13Y16511   0.884   0.664   8.426  0.2164 -1.0291 -0.1965
  149SAPE  C31416512   1.004   0.507   8.336  0.1247 -0.1345  0.3817
  149SAPE  H14X16513   1.086   0.568   8.294  2.6111 -1.3849  3.1149
  149SAPE  H14Y16514   0.975   0.419   8.273  1.4185 -1.1810  1.2104
  149SAPE  C31516515   1.057   0.460   8.473 -0.1375 -0.1620 -0.6051
  149SAPE  H15X16516   1.081   0.556   8.523 -0.2972  0.0984 -1.0258
  149SAPE  H15Y16517   1.158   0.418   8.453 -0.5571 -2.2149  1.1728
  149SAPE  C31616518   0.965   0.365   8.543  1.0842  0.6234 -1.0006
  149SAPE  H16X16519   0.924   0.292   8.469 -0.1449  0.5743 -0.2991
  149SAPE  H16Y16520   0.872   0.412   8.582  1.4931 -0.4219  1.3396
  149SAPE  C31716521   1.032   0.308   8.662  0.0461  0.0619  0.9485
  149SAPE  H17X16522   1.068   0.397   8.718 -1.2082  0.6943  0.7820
  149SAPE  H17Y16523   1.116   0.241   8.632  1.8270  2.8309 -0.7023
  149SAPE  C31816524   0.933   0.216   8.736 -0.0634  0.4771  0.1875
  149SAPE  H18X16525   0.910   0.130   8.669  0.1522 -0.6872  1.5546
  149SAPE  H18Y16526   0.844   0.274   8.767 -0.3815  1.2182 -1.9350
  149SAPE  H18Z16527   0.979   0.164   8.823 -2.6184 -1.9753  0.2203
  150SAPE     N16528   0.635   3.057   6.425  0.2043 -0.3903 -0.5958
  150SAPE   HN116529   0.637   3.156   6.394 -0.9121  0.1115  0.8285
  150SAPE   HN216530   0.542   3.036   6.468  0.9175 -0.4684  0.9431
  150SAPE   HN316531   0.705   3.049   6.500  1.0527  2.2957 -0.9934
  150SAPE   C1216532   0.681   2.976   6.309 -0.7440  0.0471 -0.4188
  150SAPE  H12A16533   0.787   3.000   6.286 -0.4338  0.7784  1.5627
  150SAPE  H12B16534   0.616   3.004   6.223 -1.9105 -3.9453 -1.0186
  150SAPE   C1116535   0.660   2.824   6.335  0.6391 -0.1631  1.0337
  150SAPE  H11A16536   0.686   2.768   6.243  2.4973  2.2228 -0.0146
  150SAPE  H11B16537   0.550   2.815   6.353  0.6369 -0.7353  0.7501
  150SAPE     P16538   0.790   2.650   6.473  0.2437  0.1350  0.0665
  150SAPE   O1316539   0.681   2.548   6.457 -0.3473  0.4362 -0.4926
  150SAPE   O1416540   0.906   2.623   6.378  0.2053 -0.8694 -0.4059
  150SAPE   O1216541   0.726   2.787   6.456 -0.0639 -0.2918  0.3257
  150SAPE   O1116542   0.832   2.646   6.623 -0.1918 -0.0068 -0.1704
  150SAPE    C116543   0.932   2.738   6.675  0.0572 -0.4298 -0.4637
  150SAPE    HA16544   1.033   2.691   6.668  0.6339  0.8622 -1.3975
  150SAPE    HB16545   0.943   2.832   6.616  1.1263  0.8494  1.6265
  150SAPE    C216546   0.917   2.766   6.829  0.1138 -0.2525  0.7171
  150SAPE    HS16547   0.979   2.858   6.839  1.0213 -0.6511 -0.9112
  150SAPE   O2116548   0.980   2.663   6.904  0.6679  0.0176  0.9480
  150SAPE   C2116549   1.108   2.680   6.947  0.2688  0.2873 -0.0170
  150SAPE   O2216550   1.178   2.769   6.912 -0.3083 -0.4843 -0.0911
  150SAPE   C2216551   1.140   2.553   7.030 -0.8205  0.6699 -0.0126
  150SAPE   H2R16552   1.064   2.542   7.111  0.0815  1.9130  1.0355
  150SAPE   H2S16553   1.146   2.465   6.963 -0.8752 -1.0078  2.0613
  150SAPE    C316554   0.770   2.779   6.874  0.5085  0.7083 -0.0705
  150SAPE    HX16555   0.731   2.678   6.850 -0.3028  0.2317  2.9729
  150SAPE    HY16556   0.723   2.855   6.807  2.2237  1.7569 -0.1520
  150SAPE   O3116557   0.747   2.789   7.014 -0.2626 -0.6272 -0.3865
  150SAPE   C3116558   0.737   2.912   7.059  0.4386 -0.5431 -0.5911
  150SAPE   O3216559   0.747   3.016   6.995 -0.3997  0.2858 -0.7144
  150SAPE   C3216560   0.713   2.903   7.211 -0.1791  0.1877 -0.2862
  150SAPE   H2X16561   0.817   2.906   7.250 -0.6697 -2.2419  1.4368
  150SAPE   H2Y16562   0.672   2.803   7.237 -0.9133  0.5038 -0.1900
  150SAPE   C2316563   1.284   2.570   7.093  0.3953  0.1286 -0.2130
  150SAPE   H3R16564   1.346   2.599   7.005 -2.6208  1.0630 -2.1992
  150SAPE   H3S16565   1.323   2.470   7.121 -0.4361 -0.8181 -2.1933
  150SAPE   C2416566   1.295   2.683   7.194  0.2932 -0.7558  0.6752
  150SAPE   H4R16567   1.279   2.779   7.141  1.1449 -0.3383  1.1464
  150SAPE   H4S16568   1.399   2.681   7.234  0.8241  0.3772 -0.5706
  150SAPE   C2516569   1.198   2.650   7.305 -0.1387 -0.7179 -0.2501
  150SAPE   H5R16570   1.093   2.659   7.274  0.2091 -1.0646 -1.6302
  150SAPE   C2616571   1.229   2.631   7.437 -0.3665 -0.0091 -0.0385
  150SAPE   H6R16572   1.143   2.606   7.501  0.2093  1.3590  1.3206
  150SAPE   C2716573   1.365   2.646   7.505  0.1452 -1.3074 -0.0216
  150SAPE   H7R16574   1.361   2.726   7.581  1.2510 -2.6058  1.4678
  150SAPE   H7S16575   1.454   2.676   7.445 -0.1365  2.0293  1.0286
  150SAPE   C2816576   1.399   2.510   7.569 -0.3557 -0.2951 -0.3231
  150SAPE   H8R16577   1.365   2.423   7.510 -0.2032 -0.2580 -0.4658
  150SAPE   C2916578   1.463   2.498   7.685 -0.2737 -0.0690  0.3528
  150SAPE   H9R16579   1.490   2.398   7.722 -0.9278 -1.2639 -2.1758
  150SAPE  C21016580   1.516   2.610   7.766  0.3220 -0.4237  0.9194
  150SAPE  H10R16581   1.431   2.679   7.785  0.2333  0.5557 -2.4117
  150SAPE  H10S16582   1.586   2.658   7.695 -0.1030 -0.3969  0.5124
  150SAPE  C21116583   1.593   2.590   7.892  0.4852 -0.8811 -0.1326
  150SAPE  H11R16584   1.606   2.488   7.931  1.7934 -0.8304 -0.3900
  150SAPE  C21216585   1.634   2.691   7.977 -0.2517 -0.2690  0.5787
  150SAPE  H12R16586   1.678   2.669   8.076  0.7487 -1.7782 -0.1719
  150SAPE  C21316587   1.616   2.842   7.955 -0.4064 -0.6216 -0.0261
  150SAPE  H13R16588   1.553   2.860   7.866 -0.5625 -0.2100  0.1661
  150SAPE  H13S16589   1.712   2.892   7.932 -0.1326 -0.9296  0.4268
  150SAPE  C21416590   1.542   2.914   8.073  0.2202 -0.2624 -0.7859
  150SAPE  H14R16591   1.432   2.912   8.073  0.1584  0.2524  1.9152
  150SAPE  C21516592   1.600   2.959   8.184  0.0814 -0.7199  0.4560
  150SAPE  H15R16593   1.542   3.025   8.250  1.0017 -0.9781  1.5364
  150SAPE  C21616594   1.750   2.961   8.226  0.5792  0.2607  0.9913
  150SAPE  H16R16595   1.791   3.064   8.236  0.1825  0.4755  0.4748
  150SAPE  H16S16596   1.815   2.910   8.152  1.5810  2.3424  0.3494
  150SAPE  C21716597   1.784   2.891   8.367  0.0487 -1.4240  0.0862
  150SAPE  H17R16598   1.749   2.946   8.458  1.5787  0.0693 -0.1662
  150SAPE  H17S16599   1.892   2.915   8.372 -0.4155  0.6419  2.4255
  150SAPE  C21816600   1.756   2.748   8.379 -0.4959  0.2930 -0.7536
  150SAPE  H18R16601   1.798   2.676   8.306 -0.8421 -1.2867  0.5462
  150SAPE  H18S16602   1.646   2.729   8.380 -0.6341  1.0502 -1.1171
  150SAPE  C21916603   1.818   2.702   8.513  0.5222  0.3295  0.0462
  150SAPE  H19R16604   1.780   2.772   8.591 -0.2693  0.5896 -0.5584
  150SAPE  H19S16605   1.929   2.705   8.510  0.5037  0.5363 -0.6791
  150SAPE  C22016606   1.761   2.569   8.558  0.8340 -0.1809 -0.4263
  150SAPE  H20R16607   1.658   2.584   8.594  0.1818  2.1352 -2.9293
  150SAPE  H20S16608   1.816   2.528   8.645 -2.1549  0.6365  2.0050
  150SAPE  H20T16609   1.761   2.492   8.477  0.3773 -1.6793  0.9340
  150SAPE   C3316610   0.634   3.015   7.278 -0.3098  0.0318 -0.3491
  150SAPE   H3X16611   0.556   3.041   7.204 -0.3133  2.7905  0.4930
  150SAPE   H3Y16612   0.689   3.112   7.282  1.0523 -0.6360 -1.8663
  150SAPE   C3416613   0.580   2.977   7.419 -0.3652  0.0434 -0.0116
  150SAPE   H4X16614   0.525   2.882   7.403  1.7165 -1.7491  2.7532
  150SAPE   H4Y16615   0.511   3.053   7.460 -1.4062 -1.6877  1.6066
  150SAPE   C3516616   0.696   2.950   7.512 -0.8178  0.3063  0.0979
  150SAPE   H5X16617   0.759   3.040   7.530 -0.1990  0.5106 -2.6460
  150SAPE   H5Y16618   0.763   2.868   7.478  1.0207  1.2189  1.3545
  150SAPE   C3616619   0.645   2.906   7.655 -0.3218  0.2032 -0.3436
  150SAPE   H6X16620   0.735   2.860   7.699  0.6182  3.1824  1.1526
  150SAPE   H6Y16621   0.561   2.836   7.635 -0.2647  0.5486 -1.9131
  150SAPE   C3716622   0.607   3.024   7.745 -1.1156 -0.1829  0.0988
  150SAPE   H7X16623   0.542   3.096   7.692  1.5437  1.5096 -1.0827
  150SAPE   H7Y16624   0.700   3.084   7.757 -2.0491  1.2626  0.2121
  150SAPE   C3816625   0.571   2.988   7.880 -0.7095  0.5435 -0.6211
  150SAPE   H8X16626   0.483   2.921   7.874 -0.4033  0.2172 -1.9238
  150SAPE   H8Y16627   0.550   3.081   7.937 -1.5539  0.4373 -0.7507
  150SAPE   C3916628   0.689   2.928   7.960 -0.0354  0.2041 -0.4533
  150SAPE   H9X16629   0.783   2.985   7.971 -1.0495  2.1415 -1.3487
  150SAPE   H9Y16630   0.714   2.830   7.915  1.3439 -0.0986  0.8807
  150SAPE  C31016631   0.661   2.891   8.107  0.0907 -0.3184  0.1611
  150SAPE  H10X16632   0.563   2.841   8.119  0.4681 -1.6951 -1.8675
  150SAPE  H10Y16633   0.656   2.988   8.161 -1.5069  0.3434 -1.0743
  150SAPE  C31116634   0.767   2.811   8.184  0.0582  0.3664  0.2388
  150SAPE  H11X16635   0.725   2.805   8.286 -0.0958  0.7326  0.1987
  150SAPE  H11Y16636   0.864   2.865   8.181 -0.6099  1.5887 -0.4987
  150SAPE  C31216637   0.802   2.667   8.135 -0.3131  0.0605  0.1498
  150SAPE  H12X16638   0.798   2.654   8.025 -0.7775  1.7483 -0.0648
  150SAPE  H12Y16639   0.724   2.598   8.174 -3.1457  2.1000 -1.4589
  150SAPE  C31316640   0.945   2.627   8.165  0.2539 -0.8045 -0.6103
  150SAPE  H13X16641   0.953   2.613   8.275  0.1868  0.4813 -0.4378
  150SAPE  H13Y16642   1.018   2.707   8.140 -2.0278  1.4443 -0.3815
  150SAPE  C31416643   0.981   2.497   8.099 -0.0106  0.1151 -0.2040
  150SAPE  H14X16644   0.968   2.504   7.989 -0.8627  2.6011 -0.0196
  150SAPE  H14Y16645   0.902   2.432   8.141 -0.2386  0.9145  0.6564
  150SAPE  C31516646   1.129   2.451   8.131 -0.5222 -0.3355 -0.4214
  150SAPE  H15X16647   1.199   2.529   8.094  1.0014 -1.6742 -0.4567
  150SAPE  H15Y16648   1.145   2.364   8.064 -0.0621 -0.2165 -0.4708
  150SAPE  C31616649   1.152   2.430   8.281  0.3674  0.6094  0.3624
  150SAPE  H16X16650   1.120   2.517   8.342  0.5329  1.2734 -0.4725
  150SAPE  H16Y16651   1.259   2.426   8.312 -0.2412  0.6290  2.6061
  150SAPE  C31716652   1.091   2.299   8.328  0.1373 -0.5298 -0.1787
  150SAPE  H17X16653   1.146   2.218   8.275  0.1032  0.5045 -1.8579
  150SAPE  H17Y16654   0.984   2.296   8.297  0.3114  0.3190 -0.8827
  150SAPE  C31816655   1.091   2.300   8.479 -0.6160  0.0597  0.1382
  150SAPE  H18X16656   1.067   2.403   8.513 -0.1698 -0.2740  1.5308
  150SAPE  H18Y16657   1.194   2.276   8.514 -0.8450  0.0551  0.8175
  150SAPE  H18Z16658   1.031   2.220   8.528 -0.2939 -0.2596  0.0193
  151SAPE     N16659   2.398   6.693   6.668  0.4628  0.2584 -0.2542
  151SAPE   HN116660   2.395   6.790   6.706 -0.3585  0.9224 -1.9026
  151SAPE   HN216661   2.353   6.628   6.735  1.3724 -0.2683 -0.1382
  151SAPE   HN316662   2.501   6.686   6.665  0.4473 -0.3294  0.4630
  151SAPE   C1216663   2.328   6.672   6.540  0.2792 -0.1316  0.5905
  151SAPE  H12A16664   2.373   6.754   6.480  1.2041  2.3158  4.2788
  151SAPE  H12B16665   2.218   6.683   6.556  0.1380 -2.3738  1.5180
  151SAPE   C1116666   2.365   6.540   6.467  0.4404 -0.3585  0.6972
  151SAPE  H11A16667   2.315   6.530   6.369  1.6667 -2.2349  0.2223
  151SAPE  H11B16668   2.319   6.472   6.542 -2.1156  3.2227  2.6755
  151SAPE     P16669   2.559   6.369   6.422  0.1502 -0.2023  0.4943
  151SAPE   O1316670   2.476   6.314   6.315  0.2510 -0.4581  0.2834
  151SAPE   O1416671   2.708   6.376   6.398  0.1216  0.2849  0.1180
  151SAPE   O1216672   2.506   6.520   6.453 -0.3781  0.3255 -0.1168
  151SAPE   O1116673   2.525   6.296   6.549 -0.2714 -0.0721 -0.4421
  151SAPE    C116674   2.557   6.330   6.685 -0.0628  0.0102 -0.2921
  151SAPE    HA16675   2.649   6.279   6.722  1.7380  2.8544 -0.5030
  151SAPE    HB16676   2.577   6.438   6.704 -2.2388  0.2690  0.8094
  151SAPE    C216677   2.438   6.295   6.778 -0.2041 -0.1325  0.1183
  151SAPE    HS16678   2.352   6.354   6.741  1.3055  1.9389 -0.2656
  151SAPE   O2116679   2.475   6.311   6.920  0.3214  0.2108 -0.1123
  151SAPE   C2116680   2.462   6.434   6.968 -0.0184  0.3217 -0.5465
  151SAPE   O2216681   2.428   6.533   6.903 -0.2897  0.0719 -0.2992
  151SAPE   C2216682   2.509   6.426   7.117  0.0180 -0.1260 -0.0601
  151SAPE   H2R16683   2.452   6.342   7.162  1.5863 -0.9799  0.3892
  151SAPE   H2S16684   2.616   6.397   7.122 -0.1386 -0.5252  1.6532
  151SAPE    C316685   2.405   6.142   6.759  0.2128  0.1170 -0.0128
  151SAPE    HX16686   2.497   6.079   6.762 -0.3419 -0.7641 -0.9086
  151SAPE    HY16687   2.365   6.126   6.657 -0.6542 -2.5551  0.6628
  151SAPE   O3116688   2.307   6.100   6.861 -0.2515  0.2435  0.3694
  151SAPE   C3116689   2.290   5.970   6.846  0.2145 -0.0651  0.6040
  151SAPE   O3216690   2.362   5.896   6.785  0.6318 -0.4263 -0.0041
  151SAPE   C3216691   2.164   5.928   6.923  0.1026 -0.4833 -0.3069
  151SAPE   H2X16692   2.094   5.875   6.854 -1.5396 -0.5396  1.3178
  151SAPE   H2Y16693   2.112   6.019   6.960 -2.1131 -1.3349 -1.1040
  151SAPE   C2316694   2.477   6.552   7.203 -0.1871  0.1652 -0.0401
  151SAPE   H3R16695   2.491   6.645   7.144  0.6648 -1.0206 -1.7881
  151SAPE   H3S16696   2.543   6.557   7.292 -0.4219 -1.3257  0.2494
  151SAPE   C2416697   2.330   6.557   7.253 -0.4901 -0.1479 -0.3075
  151SAPE   H4R16698   2.265   6.575   7.164  1.0756 -1.5360 -1.7896
  151SAPE   H4S16699   2.313   6.643   7.321 -0.0448 -0.9580  0.8628
  151SAPE   C2516700   2.286   6.431   7.326 -0.2416 -0.1029  0.4517
  151SAPE   H5R16701   2.211   6.372   7.270 -0.6818  2.0102 -1.2854
  151SAPE   C2616702   2.314   6.391   7.448  0.2462  0.6145 -0.4737
  151SAPE   H6R16703   2.283   6.290   7.480  1.2589  0.9476  1.7002
  151SAPE   C2716704   2.401   6.460   7.547  0.3195  0.4450 -0.4820
  151SAPE   H7R16705   2.394   6.567   7.520 -3.7625 -0.5279 -4.3964
  151SAPE   H7S16706   2.509   6.436   7.537  0.7166  0.8351  2.0329
  151SAPE   C2816707   2.364   6.430   7.690 -0.1881  0.2181 -0.9377
  151SAPE   H8R16708   2.455   6.411   7.748 -0.9340  0.5507  0.3863
  151SAPE   C2916709   2.248   6.420   7.758 -0.1370  0.1711 -0.5872
  151SAPE   H9R16710   2.259   6.394   7.865  0.7973 -2.6851 -1.2889
  151SAPE  C21016711   2.108   6.443   7.710  0.3335 -0.1558 -0.1340
  151SAPE  H10R16712   2.093   6.487   7.609 -0.8817 -0.5128 -0.1340
  151SAPE  H10S16713   2.064   6.524   7.772 -1.6119 -0.6351 -0.7864
  151SAPE  C21116714   2.022   6.322   7.726  0.3409 -0.4111  0.2574
  151SAPE  H11R16715   2.026   6.266   7.632  0.0603 -0.4703  0.2800
  151SAPE  C21216716   1.944   6.286   7.833  0.2577 -0.1200  0.2680
  151SAPE  H12R16717   1.882   6.196   7.825 -0.9093  0.7055 -0.1816
  151SAPE  C21316718   1.935   6.365   7.960 -0.2448  0.6892 -0.3050
  151SAPE  H13R16719   1.952   6.473   7.937 -1.1065  1.0057  0.4996
  151SAPE  H13S16720   2.014   6.347   8.036  1.2225  1.0324 -1.6918
  151SAPE  C21416721   1.800   6.341   8.023 -0.5880  0.1953  0.0977
  151SAPE  H14R16722   1.721   6.383   7.960 -0.7004 -4.4400 -3.3812
  151SAPE  C21516723   1.763   6.295   8.142 -0.3961 -0.2621 -0.0023
  151SAPE  H15R16724   1.657   6.304   8.171 -0.4580 -0.0471 -0.2977
  151SAPE  C21616725   1.853   6.247   8.253 -0.2204  0.2782  0.2136
  151SAPE  H16R16726   1.947   6.203   8.214  0.4538  0.3626  1.6709
  151SAPE  H16S16727   1.799   6.163   8.304  1.0298  0.4817  1.9612
  151SAPE  C21716728   1.889   6.344   8.362 -0.4089  0.0326  0.2574
  151SAPE  H17R16729   1.963   6.296   8.430  2.0363 -1.3435 -3.1320
  151SAPE  H17S16730   1.800   6.377   8.420 -2.4612 -0.1843 -2.5538
  151SAPE  C21816731   1.951   6.478   8.328 -0.2432  0.5429 -0.2531
  151SAPE  H18R16732   1.878   6.542   8.275 -0.8558  0.1204  0.0717
  151SAPE  H18S16733   2.037   6.464   8.259 -1.0058  0.8016 -1.2720
  151SAPE  C21916734   2.004   6.552   8.454 -0.6031  0.1334 -0.0612
  151SAPE  H19R16735   2.097   6.503   8.490  0.7183  1.2659 -1.7498
  151SAPE  H19S16736   1.933   6.562   8.539 -2.5127 -0.0771 -1.5462
  151SAPE  C22016737   2.039   6.695   8.411 -0.2891 -0.0423 -0.3926
  151SAPE  H20R16738   2.067   6.764   8.494 -0.8116 -0.3786  0.0730
  151SAPE  H20S16739   2.119   6.701   8.334 -0.1863 -0.9082 -0.3551
  151SAPE  H20T16740   1.949   6.736   8.360  0.8721  0.8682 -1.8098
  151SAPE   C3316741   2.204   5.823   7.029 -0.3868  0.3578 -0.0971
  151SAPE   H3X16742   2.282   5.754   6.989  0.3082  0.6484  0.7188
  151SAPE   H3Y16743   2.114   5.765   7.058 -0.0221 -0.2305 -0.1075
  151SAPE   C3416744   2.248   5.893   7.160  0.2681  0.3753 -0.2462
  151SAPE   H4X16745   2.330   5.968   7.165 -0.6535  1.3425  1.1736
  151SAPE   H4Y16746   2.286   5.813   7.226  0.8315 -0.1127 -1.1448
  151SAPE   C3516747   2.122   5.947   7.240  0.0253 -0.3666  0.9991
  151SAPE   H5X16748   2.037   5.875   7.233  0.2428 -0.4713 -1.9493
  151SAPE   H5Y16749   2.086   6.037   7.187 -0.8091 -2.2938 -1.9150
  151SAPE   C3616750   2.156   5.996   7.379 -0.2137 -0.0686 -0.6941
  151SAPE   H6X16751   2.073   6.053   7.424  0.3062 -0.0549  0.2697
  151SAPE   H6Y16752   2.247   6.061   7.375  0.1797 -0.5684 -0.0022
  151SAPE   C3716753   2.205   5.877   7.472  0.4607  0.2273 -0.2293
  151SAPE   H7X16754   2.299   5.829   7.437  0.8758  0.3585  0.6758
  151SAPE   H7Y16755   2.125   5.802   7.454  1.6181 -1.5178  1.4508
  151SAPE   C3816756   2.217   5.940   7.617 -0.0404  0.6390  0.1349
  151SAPE   H8X16757   2.114   5.974   7.642  0.9713  3.1027  1.2959
  151SAPE   H8Y16758   2.288   6.025   7.615  1.1039 -0.2052  1.8543
  151SAPE   C3916759   2.263   5.851   7.728  0.5231 -0.1227  1.2193
  151SAPE   H9X16760   2.363   5.805   7.712 -0.0574 -1.0477  0.0881
  151SAPE   H9Y16761   2.190   5.768   7.741  1.0552 -0.6791  0.7008
  151SAPE  C31016762   2.276   5.921   7.862 -1.0359  0.6921 -0.0995
  151SAPE  H10X16763   2.372   5.976   7.857  0.1218 -0.9258  2.0961
  151SAPE  H10Y16764   2.291   5.836   7.932  2.0515 -0.5992 -2.1184
  151SAPE  C31116765   2.149   5.992   7.922  0.2801 -0.5402  0.5358
  151SAPE  H11X16766   2.062   5.922   7.923  1.1054 -1.5866  0.5763
  151SAPE  H11Y16767   2.127   6.073   7.849 -0.6920 -2.2518 -1.1771
  151SAPE  C31216768   2.164   6.051   8.063  0.3642  0.1296 -0.9522
  151SAPE  H12X16769   2.178   5.958   8.123 -0.9922 -0.4863 -1.5394
  151SAPE  H12Y16770   2.075   6.113   8.086  1.4228  1.6115 -0.7021
  151SAPE  C31316771   2.272   6.160   8.065 -0.2530  0.3554 -0.1355
  151SAPE  H13X16772   2.241   6.222   7.979  1.7794 -1.3205 -2.2147
  151SAPE  H13Y16773   2.376   6.127   8.044  0.5097  1.2256  1.9807
  151SAPE  C31416774   2.265   6.246   8.188  0.0610  1.0524 -0.4106
  151SAPE  H14X16775   2.161   6.286   8.196 -0.1697  0.1449  1.8282
  151SAPE  H14Y16776   2.332   6.333   8.170  0.9465  0.5620  0.4469
  151SAPE  C31516777   2.305   6.180   8.322 -0.3271 -0.4388 -0.8528
  151SAPE  H15X16778   2.415   6.164   8.318 -0.1032  0.9096 -0.5926
  151SAPE  H15Y16779   2.244   6.089   8.343 -1.3787  0.0840 -1.5330
  151SAPE  C31616780   2.289   6.273   8.447 -0.1353  0.8118 -0.0030
  151SAPE  H16X16781   2.312   6.217   8.541  1.8043  1.5296 -0.0038
  151SAPE  H16Y16782   2.182   6.304   8.446 -1.0585 -2.0693  0.1817
  151SAPE  C31716783   2.374   6.401   8.446  0.0628 -0.0923  0.1429
  151SAPE  H17X16784   2.335   6.462   8.530 -2.5735  1.2699 -1.9116
  151SAPE  H17Y16785   2.338   6.450   8.353 -0.2018  0.2686  0.4302
  151SAPE  C31816786   2.531   6.389   8.442  0.2710 -0.1600  0.3355
  151SAPE  H18X16787   2.574   6.337   8.354  2.8433  0.7299  0.9524
  151SAPE  H18Y16788   2.563   6.330   8.530  3.2035 -0.1643 -0.6010
  151SAPE  H18Z16789   2.575   6.489   8.463 -0.4052 -0.1903  2.0375
  152SAPE     N16790   0.247   2.557   6.174 -0.1815 -0.2660  0.2420
  152SAPE   HN116791   0.306   2.503   6.241  0.6863  1.7960  1.2335
  152SAPE   HN216792   0.283   2.559   6.077  1.4661  3.3761  0.7575
  152SAPE   HN316793   0.257   2.654   6.212 -0.7680 -0.3107  0.5271
  152SAPE   C1216794   0.101   2.511   6.171  0.1565 -0.6182  0.3511
  152SAPE  H12A16795   0.055   2.550   6.078  2.4069  0.0328 -0.5695
  152SAPE  H12B16796   0.051   2.557   6.259  1.5959 -3.7119  2.9686
  152SAPE   C1116797   0.110   2.356   6.181  0.0954  0.5983  0.0956
  152SAPE  H11A16798   0.157   2.332   6.083 -2.1185  0.7942 -1.0841
  152SAPE  H11B16799   0.017   2.296   6.184  1.1005 -1.2479 -2.2725
  152SAPE     P16800   0.256   2.194   6.330  0.1939  0.1031  0.1563
  152SAPE   O1316801   0.239   2.093   6.220  0.2354 -0.4613 -0.2619
  152SAPE   O1416802   0.395   2.233   6.377 -0.6113 -1.0051 -0.3444
  152SAPE   O1216803   0.191   2.332   6.293 -0.1584 -0.1573  0.0350
  152SAPE   O1116804   0.159   2.153   6.446  0.0658  0.0575  0.8298
  152SAPE    C116805   0.022   2.116   6.426 -0.5643 -0.2903  0.2881
  152SAPE    HA16806  -0.017   2.134   6.324 -2.0804 -1.9668  0.5201
  152SAPE    HB16807   0.005   2.010   6.456 -3.3916  0.4502  1.6361
  152SAPE    C216808  -0.066   2.215   6.505 -0.4700 -0.3880 -1.3574
  152SAPE    HS16809  -0.037   2.320   6.483  0.2541 -0.5720 -1.2989
  152SAPE   O2116810  -0.048   2.180   6.643 -0.2001  0.8137  0.0975
  152SAPE   C2116811  -0.031   2.276   6.727 -0.2133 -0.6005  0.3152
  152SAPE   O2216812  -0.059   2.395   6.709  0.6019 -0.0398 -0.0754
  152SAPE   C2216813   0.041   2.217   6.851 -0.1114  0.2996  0.3785
  152SAPE   H2R16814   0.023   2.108   6.860  1.9467  0.0812  3.1269
  152SAPE   H2S16815   0.148   2.230   6.823 -0.1763 -1.2954 -0.7748
  152SAPE    C316816  -0.216   2.193   6.465 -0.0954  0.1594 -0.5110
  152SAPE    HX16817  -0.248   2.087   6.465 -1.6149  0.5407  1.8767
  152SAPE    HY16818  -0.218   2.222   6.358  2.1102  1.0808 -0.3493
  152SAPE   O3116819  -0.308   2.261   6.552 -0.3638  0.0518  0.2162
  152SAPE   C3116820  -0.330   2.391   6.527  0.0712  0.4715  0.4027
  152SAPE   O3216821  -0.278   2.450   6.431 -0.0451 -0.0793  0.0547
  152SAPE   C3216822  -0.436   2.443   6.619 -0.0521 -0.1623  0.1930
  152SAPE   H2X16823  -0.533   2.393   6.601  0.1246 -0.4073 -0.0894
  152SAPE   H2Y16824  -0.440   2.554   6.615  1.0455 -0.0812  0.9252
  152SAPE   C2316825   0.013   2.300   6.975 -0.4651  0.7038  0.3752
  152SAPE   H3R16826  -0.084   2.260   7.012  0.6476 -2.7446 -0.0684
  152SAPE   H3S16827   0.016   2.408   6.947  1.9345  0.7421  0.5322
  152SAPE   C2416828   0.109   2.266   7.089 -0.2176 -0.2824 -0.1479
  152SAPE   H4R16829   0.211   2.293   7.053  0.5552 -1.8306  0.7303
  152SAPE   H4S16830   0.121   2.156   7.105 -0.4477 -0.3102 -0.1603
  152SAPE   C2516831   0.065   2.329   7.221 -0.5110  0.2582  0.4150
  152SAPE   H5R16832  -0.043   2.331   7.245 -0.7568  1.1669 -0.6770
  152SAPE   C2616833   0.146   2.391   7.309 -0.0036 -0.9618  0.6512
  152SAPE   H6R16834   0.108   2.401   7.411  0.9787 -1.3857  1.0723
  152SAPE   C2716835   0.295   2.413   7.296 -0.3214 -1.2260 -0.2737
  152SAPE   H7R16836   0.329   2.397   7.192  0.2687  1.2848 -0.5258
  152SAPE   H7S16837   0.343   2.336   7.360  1.0962  0.3520  0.6590
  152SAPE   C2816838   0.348   2.551   7.339  0.0840 -0.2843  0.2622
  152SAPE   H8R16839   0.404   2.600   7.259 -0.8467  2.4441  1.1701
  152SAPE   C2916840   0.360   2.612   7.461 -0.4004  0.1596 -0.0587
  152SAPE   H9R16841   0.402   2.714   7.461  0.3848 -0.0238 -3.8729
  152SAPE  C21016842   0.306   2.553   7.591  0.7722 -0.2338  0.0689
  152SAPE  H10R16843   0.337   2.447   7.582 -0.5595 -0.5405 -1.2993
  152SAPE  H10S16844   0.195   2.551   7.593  0.7775 -0.2269  0.3662
  152SAPE  C21116845   0.360   2.617   7.715  0.1355 -0.4664 -1.3441
  152SAPE  H11R16846   0.470   2.621   7.718  0.0975  1.5817 -1.0665
  152SAPE  C21216847   0.290   2.656   7.823 -0.3575  0.0223  0.1907
  152SAPE  H12R16848   0.341   2.710   7.904 -1.4130 -0.5079  1.2461
  152SAPE  C21316849   0.144   2.653   7.850 -0.8396 -0.3738 -0.4054
  152SAPE  H13R16850   0.097   2.670   7.750  1.5326  1.4884 -1.3136
  152SAPE  H13S16851   0.124   2.742   7.912 -2.1472 -0.3708 -0.8104
  152SAPE  C21416852   0.090   2.528   7.919  0.3804 -0.4133  0.3857
  152SAPE  H14R16853   0.059   2.445   7.854 -2.7457  0.9132 -0.0249
  152SAPE  C21516854   0.063   2.506   8.047 -0.4160  0.2191  0.7268
  152SAPE  H15R16855   0.011   2.414   8.080 -1.0629  1.4842  3.5872
  152SAPE  C21616856   0.094   2.602   8.157 -0.0483  0.4325 -0.1789
  152SAPE  H16R16857   0.152   2.695   8.141  0.1829  0.4332  0.6112
  152SAPE  H16S16858   0.154   2.543   8.230 -0.7536 -1.6667 -1.2191
  152SAPE  C21716859  -0.031   2.638   8.241  0.5485 -0.2835 -0.3896
  152SAPE  H17R16860  -0.070   2.542   8.281 -0.9365  0.1675 -0.7023
  152SAPE  H17S16861  -0.101   2.677   8.164  0.9086  2.8113  0.7094
  152SAPE  C21816862  -0.009   2.746   8.347  0.3167  0.3349  0.2406
  152SAPE  H18R16863   0.027   2.835   8.290  3.0766 -0.9874 -0.2496
  152SAPE  H18S16864   0.073   2.715   8.415 -0.8614 -2.4452  0.5361
  152SAPE  C21916865  -0.135   2.766   8.435  0.7495  0.1246  0.1126
  152SAPE  H19R16866  -0.171   2.666   8.468  0.0748 -0.6696 -2.7627
  152SAPE  H19S16867  -0.209   2.815   8.368 -1.5459 -1.5383  1.2796
  152SAPE  C22016868  -0.105   2.851   8.558 -0.6591  0.0661  0.2174
  152SAPE  H20R16869  -0.068   2.953   8.536  2.9592 -1.2727 -0.7240
  152SAPE  H20S16870  -0.023   2.797   8.610  0.1654  1.2074  0.1395
  152SAPE  H20T16871  -0.193   2.856   8.625  0.2141  1.0771  1.3374
  152SAPE   C3316872  -0.404   2.425   6.776  0.7354  0.4439 -0.1176
  152SAPE   H3X16873  -0.305   2.467   6.801  0.5900  0.5471  0.2960
  152SAPE   H3Y16874  -0.406   2.317   6.801 -2.1538 -0.0193 -1.8876
  152SAPE   C3416875  -0.510   2.503   6.863  0.5683  0.1832  0.3143
  152SAPE   H4X16876  -0.606   2.473   6.817  0.0240 -0.7671  1.9765
  152SAPE   H4Y16877  -0.495   2.613   6.853  2.9480 -0.1088 -0.0315
  152SAPE   C3516878  -0.502   2.474   7.008  0.2216  0.2792  0.0770
  152SAPE   H5X16879  -0.396   2.472   7.041 -0.1144  0.2696  1.2000
  152SAPE   H5Y16880  -0.533   2.368   7.017  1.5890 -0.1635 -0.2107
  152SAPE   C3616881  -0.568   2.563   7.112  0.2619  0.2963 -0.4955
  152SAPE   H6X16882  -0.671   2.596   7.085  0.1074  1.3371  1.2673
  152SAPE   H6Y16883  -0.515   2.659   7.128  1.3451 -0.7772  3.5715
  152SAPE   C3716884  -0.586   2.486   7.254 -0.7348 -0.3882  0.7053
  152SAPE   H7X16885  -0.491   2.433   7.276 -0.9058 -0.2595  1.8028
  152SAPE   H7Y16886  -0.657   2.401   7.240 -0.2661 -0.5215 -1.1589
  152SAPE   C3816887  -0.614   2.563   7.388 -0.1200 -0.5640 -0.0199
  152SAPE   H8X16888  -0.690   2.642   7.373 -1.6379 -1.9638 -0.0733
  152SAPE   H8Y16889  -0.520   2.611   7.420  0.2206 -1.4458  0.3315
  152SAPE   C3916890  -0.669   2.479   7.496  0.6439  0.0840  0.0326
  152SAPE   H9X16891  -0.592   2.403   7.523 -0.6751 -1.1153  0.5843
  152SAPE   H9Y16892  -0.750   2.414   7.457  0.8200 -0.0167 -0.1646
  152SAPE  C31016893  -0.712   2.559   7.625  0.3611 -0.2643  0.6956
  152SAPE  H10X16894  -0.786   2.637   7.599  0.9194  0.0059 -0.1079
  152SAPE  H10Y16895  -0.619   2.603   7.667  1.4216  0.5542 -2.2677
  152SAPE  C31116896  -0.793   2.474   7.725  0.3977  0.0333  0.3974
  152SAPE  H11X16897  -0.720   2.394   7.745 -0.0217 -0.1317  1.3238
  152SAPE  H11Y16898  -0.886   2.441   7.673 -0.4519  2.6564  0.0627
  152SAPE  C31216899  -0.826   2.546   7.860  0.0852 -0.6097 -0.9049
  152SAPE  H12X16900  -0.874   2.642   7.833  0.8935 -0.0772 -0.4916
  152SAPE  H12Y16901  -0.728   2.555   7.910 -0.0132 -0.4185 -0.7452
  152SAPE  C31316902  -0.922   2.472   7.965  0.2454 -0.1493  0.1269
  152SAPE  H13X16903  -0.881   2.369   7.966  0.2546 -0.1399  0.6421
  152SAPE  H13Y16904  -1.019   2.458   7.914  0.2419 -0.4947  0.2243
  152SAPE  C31416905  -0.925   2.526   8.104 -0.1991 -0.4117  0.4735
  152SAPE  H14X16906  -0.972   2.627   8.097  1.0689  0.1261 -0.5489
  152SAPE  H14Y16907  -0.820   2.537   8.136 -0.1958 -1.4063  0.8441
  152SAPE  C31516908  -0.988   2.417   8.202  0.2026  0.1979 -0.5600
  152SAPE  H15X16909  -0.907   2.351   8.240 -0.7611 -1.1412 -0.7644
  152SAPE  H15Y16910  -1.048   2.348   8.139  0.1407  1.2138 -1.6564
  152SAPE  C31616911  -1.060   2.469   8.317 -0.0129 -0.4702  0.2526
  152SAPE  H16X16912  -1.110   2.386   8.372 -0.6573 -1.9548 -2.3881
  152SAPE  H16Y16913  -1.133   2.543   8.278  0.7233 -0.1997 -0.6411
  152SAPE  C31716914  -0.976   2.569   8.411 -0.4247  0.9441 -0.2924
  152SAPE  H17X16915  -0.932   2.647   8.346  0.2052  0.7087 -0.1606
  152SAPE  H17Y16916  -0.892   2.507   8.449 -0.7893  0.0213 -0.9615
  152SAPE  C31816917  -1.066   2.641   8.513 -0.4511 -0.4703 -0.5751
  152SAPE  H18X16918  -1.010   2.670   8.604  0.5609  0.3811 -1.4434
  152SAPE  H18Y16919  -1.151   2.580   8.550 -2.1779  1.3309 -1.4467
  152SAPE  H18Z16920  -1.106   2.730   8.461  0.5161 -0.3020 -1.0627
  153SAPE     N16921   1.841   2.771   6.357 -0.5098  0.1461  0.1944
  153SAPE   HN116922   1.868   2.811   6.449  0.2588  2.3346 -0.9163
  153SAPE   HN216923   1.764   2.703   6.372 -2.2051  1.2276 -2.7076
  153SAPE   HN316924   1.933   2.735   6.326 -0.0239  1.8447 -0.4449
  153SAPE   C1216925   1.794   2.876   6.263 -0.8706 -0.9108  0.2255
  153SAPE  H12A16926   1.694   2.915   6.290 -0.1527  0.9601  0.3451
  153SAPE  H12B16927   1.801   2.829   6.163  1.5714  0.7551 -0.5005
  153SAPE   C1116928   1.904   2.983   6.268  0.3312  0.0594 -0.9518
  153SAPE  H11A16929   1.884   3.046   6.179  3.0258 -0.7069 -2.2029
  153SAPE  H11B16930   2.003   2.934   6.254 -0.5900 -2.0282 -0.5809
  153SAPE     P16931   1.871   3.202   6.398  0.3792  0.1950 -0.1495
  153SAPE   O1316932   1.977   3.278   6.334 -0.2280 -0.1420 -0.3274
  153SAPE   O1416933   1.738   3.234   6.344 -0.0602  0.2977 -0.0143
  153SAPE   O1216934   1.894   3.047   6.396  0.0517  0.0671  0.8978
  153SAPE   O1116935   1.874   3.228   6.551 -0.0271  0.6274  1.0301
  153SAPE    C116936   1.842   3.140   6.658  0.0150 -0.2800  0.8016
  153SAPE    HA16937   1.821   3.192   6.754 -1.0999  1.3016 -0.2527
  153SAPE    HB16938   1.753   3.081   6.629  1.1573 -1.7184  0.1090
  153SAPE    C216939   1.963   3.049   6.688  0.1807  0.0777 -0.1047
  153SAPE    HS16940   1.998   3.005   6.592 -0.2214 -1.7833  0.5601
  153SAPE   O2116941   1.932   2.948   6.782 -0.3872  0.1744  0.0482
  153SAPE   C2116942   1.878   2.843   6.729 -0.3822  0.2163  0.0864
  153SAPE   O2216943   1.863   2.826   6.610  0.4115 -0.6189 -0.3170
  153SAPE   C2216944   1.841   2.744   6.839  0.0598 -0.2303  0.3122
  153SAPE   H2R16945   1.925   2.730   6.911 -0.3412 -4.1214  0.2280
  153SAPE   H2S16946   1.762   2.802   6.891 -0.4074  1.1542 -1.7937
  153SAPE    C316947   2.081   3.130   6.747  0.4657  0.1564  0.6407
  153SAPE    HX16948   2.118   3.210   6.680  1.5614  1.1658  2.3637
  153SAPE    HY16949   2.158   3.049   6.746  0.4698  0.1553  0.8644
  153SAPE   O3116950   2.050   3.179   6.879 -0.6096 -0.5677  0.2538
  153SAPE   C3116951   2.164   3.215   6.941 -0.7925 -0.0382  0.3298
  153SAPE   O3216952   2.272   3.181   6.897  0.1522 -0.6795  0.2448
  153SAPE   C3216953   2.133   3.281   7.081  0.2308  0.0382 -0.3588
  153SAPE   H2X16954   2.023   3.296   7.089  0.4164  1.1034  0.3608
  153SAPE   H2Y16955   2.184   3.379   7.094 -0.7000  0.5054 -0.1563
  153SAPE   C2316956   1.806   2.608   6.781  0.6865 -0.1726  0.1787
  153SAPE   H3R16957   1.893   2.562   6.729  0.1758 -1.1439  0.1614
  153SAPE   H3S16958   1.723   2.622   6.709  0.0395 -0.5113  0.8457
  153SAPE   C2416959   1.751   2.497   6.873 -0.0801 -0.0033  0.3990
  153SAPE   H4R16960   1.750   2.405   6.812  1.4167 -0.3732  0.8857
  153SAPE   H4S16961   1.656   2.530   6.920  0.2056 -1.0769  1.7991
  153SAPE   C2516962   1.840   2.476   6.990 -0.9222  0.3181 -0.3680
  153SAPE   H5R16963   1.932   2.420   6.968 -1.0616 -0.9282  1.8796
  153SAPE   C2616964   1.809   2.501   7.119  0.2926  0.1183 -1.4713
  153SAPE   H6R16965   1.880   2.470   7.197 -0.2306  2.7116  0.1679
  153SAPE   C2716966   1.690   2.560   7.181  0.0703  0.6936 -0.6527
  153SAPE   H7R16967   1.658   2.514   7.277  1.3285 -0.8709 -0.9261
  153SAPE   H7S16968   1.601   2.546   7.116 -0.3522 -1.4892  0.2866
  153SAPE   C2816969   1.711   2.708   7.195 -0.2066  0.6510 -0.3461
  153SAPE   H8R16970   1.705   2.759   7.098  0.5974  1.8988  0.2297
  153SAPE   C2916971   1.732   2.780   7.312  0.2437 -0.4380 -0.4397
  153SAPE   H9R16972   1.735   2.889   7.304  1.5742 -0.4844 -0.8441
  153SAPE  C21016973   1.745   2.729   7.455  0.1927 -0.6446 -0.3079
  153SAPE  H10R16974   1.695   2.632   7.469 -0.3575 -0.2438  0.5664
  153SAPE  H10S16975   1.705   2.804   7.527 -2.9712 -0.7415 -1.8340
  153SAPE  C21116976   1.894   2.711   7.478  0.5352  0.4848  0.9575
  153SAPE  H11R16977   1.926   2.607   7.460 -0.4658  0.1837  0.8501
  153SAPE  C21216978   1.978   2.809   7.510 -0.0199 -0.1278 -0.7500
  153SAPE  H12R16979   2.085   2.783   7.499 -0.0887  0.0044 -1.8900
  153SAPE  C21316980   1.948   2.951   7.531 -0.4365 -0.2158 -0.3427
  153SAPE  H13R16981   1.853   2.979   7.482 -0.1145  1.8451  0.1156
  153SAPE  H13S16982   2.027   3.009   7.477  1.3633  0.2389  2.5574
  153SAPE  C21416983   1.919   2.994   7.671 -0.4619 -0.1775 -0.6454
  153SAPE  H14R16984   1.850   2.932   7.730 -0.5356  1.2812  0.8741
  153SAPE  C21516985   1.962   3.104   7.727 -0.1556 -0.8043  0.6387
  153SAPE  H15R16986   1.909   3.136   7.817  0.1947  0.7177  0.3367
  153SAPE  C21616987   2.050   3.201   7.654  0.5093 -0.0902  0.8940
  153SAPE  H16R16988   2.001   3.301   7.661 -0.1601 -0.3789  0.3714
  153SAPE  H16S16989   2.049   3.185   7.544 -3.4922  0.5979  0.6991
  153SAPE  C21716990   2.191   3.194   7.719  0.0529 -0.1556  0.1500
  153SAPE  H17R16991   2.184   3.236   7.822 -0.1059 -0.4387  0.2521
  153SAPE  H17S16992   2.262   3.260   7.664  0.1615 -2.2897 -2.4761
  153SAPE  C21816993   2.246   3.054   7.721  0.5436  0.4185  0.2495
  153SAPE  H18R16994   2.208   3.003   7.631  1.2327  0.4970 -0.0913
  153SAPE  H18S16995   2.209   2.993   7.807  0.6637  0.0722  0.0563
  153SAPE  C21916996   2.400   3.045   7.722  0.3117 -0.5645 -0.9296
  153SAPE  H19R16997   2.445   3.091   7.632  2.5030 -1.5978 -0.4577
  153SAPE  H19S16998   2.432   2.939   7.709  0.5988 -0.2643 -2.8813
  153SAPE  C22016999   2.467   3.087   7.852  0.6418 -0.3052  0.5895
  153SAPE  H20R17000   2.577   3.100   7.843  0.7963 -0.7122  1.6688
  153SAPE  H20S17001   2.459   3.001   7.922 -0.5046 -1.1064 -0.4802
  153SAPE  H20T17002   2.424   3.180   7.895 -0.0195  0.3688 -1.4112
  153SAPE   C3317003   2.173   3.188   7.202 -0.0393 -0.6771  0.7141
  153SAPE   H3X17004   2.161   3.080   7.177  0.0718 -0.5719  0.1945
  153SAPE   H3Y17005   2.100   3.209   7.283 -3.1599  0.6138 -2.1934
  153SAPE   C3417006   2.308   3.212   7.260  0.2640 -0.4741 -0.8973
  153SAPE   H4X17007   2.386   3.218   7.181 -0.4251 -1.9936 -1.7244
  153SAPE   H4Y17008   2.335   3.141   7.341 -0.1198  2.0489  1.6025
  153SAPE   C3517009   2.323   3.344   7.333 -0.0184 -0.8273  0.2342
  153SAPE   H5X17010   2.257   3.340   7.422 -0.2443  1.0989  0.1990
  153SAPE   H5Y17011   2.279   3.425   7.271 -3.1359 -2.3059  0.3450
  153SAPE   C3617012   2.457   3.376   7.390 -1.3081  0.1443 -0.2699
  153SAPE   H6X17013   2.529   3.392   7.306  0.4508  3.7047  1.6961
  153SAPE   H6Y17014   2.506   3.288   7.435 -0.1680  0.0601 -1.5906
  153SAPE   C3717015   2.454   3.490   7.490  0.0585  0.3078  0.3760
  153SAPE   H7X17016   2.393   3.462   7.579  0.4508 -2.4911 -0.1332
  153SAPE   H7Y17017   2.411   3.580   7.443  0.9794  0.2717 -0.5663
  153SAPE   C3817018   2.592   3.522   7.542 -0.1808  0.1348 -1.1993
  153SAPE   H8X17019   2.656   3.562   7.461  1.7422  2.0303  1.1261
  153SAPE   H8Y17020   2.644   3.428   7.572  0.1784  0.0636 -2.0229
  153SAPE   C3917021   2.587   3.636   7.653 -0.4676 -0.2489  0.5458
  153SAPE   H9X17022   2.540   3.730   7.616  0.8253  0.2841  0.2049
  153SAPE   H9Y17023   2.692   3.669   7.670  0.7034 -2.1098 -2.3026
  153SAPE  C31017024   2.526   3.598   7.785 -0.7447 -0.0760 -0.4402
  153SAPE  H10X17025   2.417   3.575   7.775 -0.3246 -2.1899 -0.6793
  153SAPE  H10Y17026   2.531   3.692   7.843 -0.5465  0.5903 -1.5092
  153SAPE  C31117027   2.609   3.488   7.855 -0.7191  0.9778 -0.3723
  153SAPE  H11X17028   2.718   3.509   7.859 -0.8128  1.4024 -0.0304
  153SAPE  H11Y17029   2.606   3.395   7.794  0.5931 -1.9323  3.5871
  153SAPE  C31217030   2.546   3.453   7.991 -0.5270  0.6338  0.2777
  153SAPE  H12X17031   2.451   3.395   7.982  0.3089 -0.7783  0.1912
  153SAPE  H12Y17032   2.532   3.541   8.057 -0.2989  1.5396 -0.8550
  153SAPE  C31317033   2.646   3.360   8.069  0.1920  0.2243 -0.1801
  153SAPE  H13X17034   2.718   3.421   8.127  0.4342 -1.2659  1.1689
  153SAPE  H13Y17035   2.704   3.304   7.992  1.2767  0.8364  0.1609
  153SAPE  C31417036   2.567   3.275   8.168  0.1932  0.1222 -0.5891
  153SAPE  H14X17037   2.483   3.215   8.128  0.0631  0.7305 -1.2477
  153SAPE  H14Y17038   2.516   3.341   8.242  0.4148  1.0551 -1.2519
  153SAPE  C31517039   2.660   3.191   8.251  0.2511  0.8212 -0.3020
  153SAPE  H15X17040   2.606   3.136   8.331 -0.0312  1.1163 -0.2873
  153SAPE  H15Y17041   2.742   3.249   8.298  0.7375  0.0944 -0.2440
  153SAPE  C31617042   2.726   3.081   8.164  0.3825  0.5759  1.2599
  153SAPE  H16X17043   2.795   3.122   8.086  0.5198  1.8079  1.9925
  153SAPE  H16Y17044   2.643   3.028   8.112  1.9491  0.1496 -0.9357
  153SAPE  C31717045   2.804   2.975   8.244  0.5591  0.4693  0.0699
  153SAPE  H17X17046   2.847   2.895   8.180 -2.2437 -1.0257 -0.1428
  153SAPE  H17Y17047   2.737   2.929   8.320  2.2191  0.2967  1.4841
  153SAPE  C31817048   2.921   3.031   8.332  0.3072  0.2730 -0.4062
  153SAPE  H18X17049   3.002   3.069   8.266  0.5681  0.6602  0.1334
  153SAPE  H18Y17050   2.970   2.962   8.403  2.4574  1.1342 -0.9848
  153SAPE  H18Z17051   2.884   3.113   8.397 -1.5023 -0.8832  0.1053
  154SAPE     N17052   0.020   1.096   6.419 -0.0298  0.1491  0.0905
  154SAPE   HN117053   0.034   1.108   6.521  4.1684  0.3008 -0.3306
  154SAPE   HN217054   0.018   0.994   6.401 -2.3592  0.0962  0.3598
  154SAPE   HN317055   0.101   1.139   6.370  0.3354 -0.9415 -0.2829
  154SAPE   C1217056  -0.105   1.154   6.369  0.4992  0.9115  0.1480
  154SAPE  H12A17057  -0.105   1.258   6.406  0.3452  0.3589  1.8185
  154SAPE  H12B17058  -0.186   1.102   6.425  0.1431  3.5227  2.2413
  154SAPE   C1117059  -0.099   1.120   6.224  0.2998 -0.2063 -0.2637
  154SAPE  H11A17060  -0.196   1.156   6.182 -0.4590 -2.2751 -0.4086
  154SAPE  H11B17061  -0.097   1.011   6.200 -0.3874 -0.1588 -0.5633
  154SAPE     P17062   0.009   1.318   6.080  0.1748 -0.0857  0.0618
  154SAPE   O1317063   0.099   1.314   5.965 -0.3336 -0.8294  0.4522
  154SAPE   O1417064  -0.122   1.369   6.043  0.3129  0.7642 -0.5676
  154SAPE   O1217065   0.015   1.175   6.158 -0.0621 -0.1819  0.1787
  154SAPE   O1117066   0.075   1.409   6.184 -0.1367  0.0371 -0.3352
  154SAPE    C117067   0.007   1.500   6.276  0.3901  0.2949 -0.2329
  154SAPE    HA17068  -0.010   1.596   6.223 -1.2534 -0.1325 -0.5160
  154SAPE    HB17069  -0.092   1.457   6.300 -0.5420  2.6617  0.3944
  154SAPE    C217070   0.097   1.540   6.401  0.9984  0.3347 -0.4662
  154SAPE    HS17071   0.187   1.584   6.354 -0.7373  1.7250 -2.6786
  154SAPE   O2117072   0.120   1.430   6.493  0.0014  0.4130  0.0511
  154SAPE   C2117073   0.236   1.437   6.556 -0.4748  0.0844 -0.6077
  154SAPE   O2217074   0.324   1.517   6.527  0.1804 -1.0098  0.0330
  154SAPE   C2217075   0.224   1.361   6.686  0.3309  0.3653 -0.0854
  154SAPE   H2R17076   0.135   1.393   6.743 -1.2295 -2.2492 -0.8949
  154SAPE   H2S17077   0.208   1.255   6.660 -0.4385  0.2455  0.8380
  154SAPE    C317078   0.021   1.637   6.491  0.1095 -0.1199  0.7273
  154SAPE    HX17079  -0.061   1.573   6.530 -0.6677  0.0880 -0.4905
  154SAPE    HY17080  -0.025   1.714   6.425 -0.9789 -1.0098  0.4233
  154SAPE   O3117081   0.092   1.698   6.594  0.4325 -0.3941 -0.4303
  154SAPE   C3117082   0.172   1.797   6.554  0.3257 -0.0568 -0.0608
  154SAPE   O3217083   0.193   1.821   6.434  0.6258 -0.4312  0.1359
  154SAPE   C3217084   0.248   1.874   6.666 -0.1093 -0.0541  0.5737
  154SAPE   H2X17085   0.246   1.983   6.642 -0.6473 -0.0586  0.6056
  154SAPE   H2Y17086   0.352   1.844   6.639 -0.2599  1.4639 -2.0075
  154SAPE   C2317087   0.354   1.367   6.764  0.6049  0.4169  0.7421
  154SAPE   H3R17088   0.444   1.359   6.699 -0.0790  1.4963 -0.3650
  154SAPE   H3S17089   0.363   1.280   6.833 -0.1369 -0.3014 -0.0453
  154SAPE   C2417090   0.362   1.496   6.849 -0.6273 -0.6648  0.1976
  154SAPE   H4R17091   0.281   1.522   6.921  1.0261  1.1197  1.5449
  154SAPE   H4S17092   0.366   1.582   6.779  2.7734  0.9870  2.1120
  154SAPE   C2517093   0.489   1.499   6.933 -0.7623 -0.1441  0.2312
  154SAPE   H5R17094   0.573   1.514   6.864 -1.2298  1.9653  0.0419
  154SAPE   C2617095   0.513   1.492   7.068  0.0050  0.5504  0.3163
  154SAPE   H6R17096   0.613   1.502   7.112 -0.2957 -1.0076  1.4257
  154SAPE   C2717097   0.404   1.473   7.164  0.8218  0.5149 -0.6013
  154SAPE   H7R17098   0.450   1.406   7.240 -1.1336 -1.4134 -1.0026
  154SAPE   H7S17099   0.326   1.405   7.124  0.5418 -0.4993  1.5294
  154SAPE   C2817100   0.345   1.603   7.222 -0.0572  0.3874  0.4367
  154SAPE   H8R17101   0.265   1.650   7.163  1.4106  0.6543 -1.4444
  154SAPE   C2917102   0.369   1.662   7.341  0.0269  0.9900  0.0370
  154SAPE   H9R17103   0.319   1.759   7.361 -1.0350  0.1777  1.4807
  154SAPE  C21017104   0.469   1.609   7.442 -0.0278 -0.1554 -0.0101
  154SAPE  H10R17105   0.502   1.697   7.500 -1.4715  0.0864  0.4818
  154SAPE  H10S17106   0.560   1.568   7.392 -0.7028 -1.0939 -0.5117
  154SAPE  C21117107   0.416   1.502   7.539  0.2876  0.1343  0.1846
  154SAPE  H11R17108   0.385   1.408   7.492 -0.0006  1.4004 -2.3354
  154SAPE  C21217109   0.404   1.518   7.671 -0.4596 -0.0006 -0.5178
  154SAPE  H12R17110   0.356   1.432   7.721 -0.4459 -1.2211 -2.4869
  154SAPE  C21317111   0.433   1.642   7.751 -0.3660  0.1540  0.7268
  154SAPE  H13R17112   0.375   1.633   7.845 -1.8481  0.5012 -0.1051
  154SAPE  H13S17113   0.395   1.730   7.694 -0.8268 -0.7688 -0.4387
  154SAPE  C21417114   0.587   1.643   7.778  0.2757  0.2971  0.7047
  154SAPE  H14R17115   0.655   1.584   7.715  0.5037 -0.3382  1.5233
  154SAPE  C21517116   0.634   1.743   7.860 -0.1061 -0.1744  0.4169
  154SAPE  H15R17117   0.743   1.736   7.876  0.1874 -1.4012 -1.7245
  154SAPE  C21617118   0.548   1.846   7.940 -0.5991  0.0445 -0.4461
  154SAPE  H16R17119   0.440   1.851   7.915 -0.6349  1.0443 -0.1094
  154SAPE  H16S17120   0.587   1.944   7.907 -0.7973  0.7134  1.2451
  154SAPE  C21717121   0.574   1.847   8.094 -0.7252 -0.1399 -0.1682
  154SAPE  H17R17122   0.568   1.744   8.134 -0.9081 -0.2426 -0.4581
  154SAPE  H17S17123   0.498   1.909   8.145 -1.3395 -0.5041 -0.6246
  154SAPE  C21817124   0.710   1.915   8.118 -0.3986 -0.1786 -0.3352
  154SAPE  H18R17125   0.682   2.017   8.085 -1.2198 -0.1160  0.5044
  154SAPE  H18S17126   0.790   1.874   8.051  2.6495  1.1107  2.2724
  154SAPE  C21917127   0.749   1.933   8.259  1.2408 -0.4361 -0.3456
  154SAPE  H19R17128   0.779   1.833   8.296 -0.8512 -0.1914  2.2601
  154SAPE  H19S17129   0.668   1.980   8.318  1.3292 -2.1168  1.1849
  154SAPE  C22017130   0.875   2.028   8.264 -0.5770  0.2005  0.0518
  154SAPE  H20R17131   0.958   1.995   8.199  0.7102 -0.5460  1.9663
  154SAPE  H20S17132   0.922   2.030   8.365 -2.2222 -0.0806  0.8504
  154SAPE  H20T17133   0.847   2.132   8.237 -1.7593 -0.4082 -1.1901
  154SAPE   C3317134   0.224   1.843   6.818  0.4444  0.0668 -0.6653
  154SAPE   H3X17135   0.223   1.732   6.828  0.2471  0.1332  0.0962
  154SAPE   H3Y17136   0.124   1.881   6.849  0.7657 -0.0411  0.5799
  154SAPE   C3417137   0.335   1.886   6.909 -0.0907 -0.7008  0.0919
  154SAPE   H4X17138   0.434   1.837   6.901  1.1515  1.7832 -0.8386
  154SAPE   H4Y17139   0.302   1.871   7.014  1.6927  1.5375  1.0718
  154SAPE   C3517140   0.367   2.038   6.894 -0.0467 -0.9096 -0.3053
  154SAPE   H5X17141   0.279   2.091   6.937  0.6278  0.7061 -0.8432
  154SAPE   H5Y17142   0.381   2.078   6.792 -0.6614  1.2927  0.4093
  154SAPE   C3617143   0.491   2.068   6.980  0.1347 -0.2327  0.2222
  154SAPE   H6X17144   0.579   2.006   6.953 -2.1635 -2.8089 -2.0399
  154SAPE   H6Y17145   0.463   2.038   7.083 -1.1222  0.2874  0.0537
  154SAPE   C3717146   0.523   2.215   6.977  0.5221 -0.4359  0.0842
  154SAPE   H7X17147   0.434   2.275   7.005  0.1333 -1.3095  0.7666
  154SAPE   H7Y17148   0.562   2.240   6.876  0.1418 -1.5771 -0.3591
  154SAPE   C3817149   0.619   2.257   7.086  0.2470 -0.6017 -0.1373
  154SAPE   H8X17150   0.715   2.204   7.069  0.4879 -0.4084  0.6022
  154SAPE   H8Y17151   0.569   2.233   7.182  0.6479  1.5496  0.6427
  154SAPE   C3917152   0.634   2.408   7.084 -0.9657  0.7650 -0.2445
  154SAPE   H9X17153   0.547   2.473   7.106  0.2903  3.2408 -2.0238
  154SAPE   H9Y17154   0.670   2.438   6.983  2.0153 -0.2755  0.3910
  154SAPE  C31017155   0.747   2.461   7.171  0.1052  0.0120  0.1393
  154SAPE  H10X17156   0.746   2.571   7.179  3.0713  0.0761  0.7729
  154SAPE  H10Y17157   0.844   2.426   7.130 -0.6186 -2.8358  0.6442
  154SAPE  C31117158   0.736   2.420   7.320 -0.5094  0.5027  0.0222
  154SAPE  H11X17159   0.714   2.311   7.323  1.2066  0.0942 -0.6262
  154SAPE  H11Y17160   0.659   2.490   7.357 -1.0379  1.0123 -1.9057
  154SAPE  C31217161   0.867   2.448   7.401  0.7256  0.4467  0.4010
  154SAPE  H12X17162   0.894   2.554   7.379 -1.9417  1.8983  3.3125
  154SAPE  H12Y17163   0.942   2.379   7.357  1.7215 -0.3470  3.2046
  154SAPE  C31317164   0.854   2.421   7.551  0.6920 -0.1764  0.1123
  154SAPE  H13X17165   0.871   2.312   7.566 -0.2173 -0.3430 -0.0205
  154SAPE  H13Y17166   0.751   2.456   7.574 -0.6849 -2.6625 -1.8795
  154SAPE  C31417167   0.941   2.489   7.653 -0.0808 -0.2909 -0.2080
  154SAPE  H14X17168   1.044   2.451   7.635 -0.7864 -3.2532  1.3744
  154SAPE  H14Y17169   0.909   2.445   7.750  1.5530  0.1284  0.5508
  154SAPE  C31517170   0.929   2.642   7.655  0.3579 -0.0464  0.2959
  154SAPE  H15X17171   0.823   2.676   7.662  0.3166  0.1386 -1.0212
  154SAPE  H15Y17172   0.949   2.665   7.548 -1.1979 -0.6387 -0.1571
  154SAPE  C31617173   1.023   2.709   7.752  0.5818  0.1522  0.1033
  154SAPE  H16X17174   1.125   2.669   7.739  1.3529  1.7881  0.8788
  154SAPE  H16Y17175   0.994   2.687   7.857  2.1848 -1.8800  0.1915
  154SAPE  C31717176   1.038   2.859   7.719  0.1190  0.5724 -0.9405
  154SAPE  H17X17177   0.952   2.893   7.657 -1.0350 -1.4709 -0.5479
  154SAPE  H17Y17178   1.125   2.868   7.650 -0.1274  1.9658 -1.1130
  154SAPE  C31817179   1.077   2.941   7.846 -0.0629  0.0302 -0.5475
  154SAPE  H18X17180   1.108   3.044   7.817  0.6317  0.0548  0.2303
  154SAPE  H18Y17181   1.167   2.906   7.902 -0.1260  1.3386  0.4235
  154SAPE  H18Z17182   0.989   2.953   7.913 -1.1262 -1.7642 -1.5568
  155SAPE     N17183   1.305   3.019   6.540 -0.4422  0.0826  0.2704
  155SAPE   HN117184   1.214   3.064   6.564 -0.2120 -0.0718  1.5014
  155SAPE   HN217185   1.379   3.082   6.504 -0.8269  0.4548  0.1112
  155SAPE   HN317186   1.294   2.955   6.459 -1.3005  1.7308 -0.9664
  155SAPE   C1217187   1.356   2.938   6.656  0.3065  0.2758 -0.4379
  155SAPE  H12A17188   1.276   2.862   6.671  0.2955  0.2556 -0.6011
  155SAPE  H12B17189   1.360   3.001   6.748  1.9621  2.0898 -1.6640
  155SAPE   C1117190   1.490   2.870   6.642 -0.9028 -0.3419 -0.6457
  155SAPE  H11A17191   1.506   2.811   6.734  0.4603  0.1190 -0.5503
  155SAPE  H11B17192   1.575   2.942   6.633 -1.1218 -0.0906 -0.7206
  155SAPE     P17193   1.508   2.642   6.498  0.3651  0.0300 -0.1248
  155SAPE   O1317194   1.398   2.622   6.399  0.4106 -0.0657  0.3995
  155SAPE   O1417195   1.640   2.607   6.453 -0.3590 -0.2294 -0.0572
  155SAPE   O1217196   1.505   2.796   6.526 -0.1307  0.5377 -0.7824
  155SAPE   O1117197   1.484   2.571   6.625  0.1503 -0.7393  0.4809
  155SAPE    C117198   1.359   2.560   6.701 -0.8081  0.4375  0.3287
  155SAPE    HA17199   1.388   2.573   6.807 -1.6688  1.5920  0.4478
  155SAPE    HB17200   1.287   2.639   6.670 -1.9353 -0.3563  0.8973
  155SAPE    C217201   1.297   2.433   6.668  0.0851  0.1016 -0.4671
  155SAPE    HS17202   1.286   2.427   6.558  1.0959  2.1905 -0.7227
  155SAPE   O2117203   1.171   2.430   6.740  0.0432  0.3791 -0.0431
  155SAPE   C2117204   1.085   2.332   6.708 -0.0662 -0.1388  0.4904
  155SAPE   O2217205   1.103   2.260   6.611  0.2064  0.4724 -0.1321
  155SAPE   C2217206   0.974   2.315   6.809  0.9660 -0.3065  0.8902
  155SAPE   H2R17207   0.978   2.391   6.890 -1.1721 -0.0548  0.8237
  155SAPE   H2S17208   0.880   2.329   6.751  2.1933  3.6098 -0.5332
  155SAPE    C317209   1.386   2.314   6.706  0.4368  0.6074 -0.3569
  155SAPE    HX17210   1.476   2.334   6.644  0.2399 -0.0541 -0.8584
  155SAPE    HY17211   1.337   2.218   6.679 -0.2788  1.0802 -0.7537
  155SAPE   O3117212   1.417   2.309   6.849 -0.8991  0.4392  0.7005
  155SAPE   C3117213   1.514   2.215   6.869  0.5344 -0.2784 -0.5829
  155SAPE   O3217214   1.559   2.144   6.779 -0.4344 -0.4663 -0.4991
  155SAPE   C3217215   1.549   2.216   7.014  0.0015 -0.3287 -0.7772
  155SAPE   H2X17216   1.475   2.283   7.063  0.7476  0.5904 -0.8722
  155SAPE   H2Y17217   1.636   2.284   7.027 -0.9825  0.6200  1.3347
  155SAPE   C2317218   0.977   2.184   6.882 -0.7447  1.2381  0.2479
  155SAPE   H3R17219   0.975   2.095   6.815  0.4114  2.4806 -1.5253
  155SAPE   H3S17220   0.883   2.160   6.937  1.0557 -2.2238  2.1331
  155SAPE   C2417221   1.095   2.174   6.985 -0.1921 -0.5437  0.3963
  155SAPE   H4R17222   1.093   2.266   7.047  1.0426 -0.9208  1.0211
  155SAPE   H4S17223   1.189   2.188   6.928 -0.4828 -1.6190 -0.3828
  155SAPE   C2517224   1.118   2.048   7.071  0.4547 -0.2093  0.5478
  155SAPE   H5R17225   1.112   1.953   7.017  1.2199  0.6148 -1.0685
  155SAPE   C2617226   1.142   2.035   7.200 -0.1038  0.4275  0.4933
  155SAPE   H6R17227   1.149   1.933   7.241 -0.4899 -0.0457 -0.5684
  155SAPE   C2717228   1.152   2.143   7.305 -0.6454 -0.3369 -0.2419
  155SAPE   H7R17229   1.047   2.168   7.333 -0.1784  1.9307 -0.2847
  155SAPE   H7S17230   1.209   2.230   7.264 -1.1755  0.0869 -0.0960
  155SAPE   C2817231   1.240   2.092   7.421 -0.5658 -0.3559 -0.6611
  155SAPE   H8R17232   1.341   2.135   7.432 -1.7355  1.9423  3.2607
  155SAPE   C2917233   1.203   2.012   7.520 -0.6833 -0.2111  0.4154
  155SAPE   H9R17234   1.279   1.972   7.589  0.0516  1.0516  0.3625
  155SAPE  C21017235   1.062   1.961   7.540  0.1232  0.3523 -0.0749
  155SAPE  H10R17236   1.073   1.853   7.518  0.4085  0.4312 -0.3210
  155SAPE  H10S17237   0.991   1.988   7.459  1.5831 -2.9244 -2.7057
  155SAPE  C21117238   0.999   1.987   7.676 -0.5886  0.2694  0.2561
  155SAPE  H11R17239   0.941   2.081   7.674 -1.2437 -0.0615  1.9190
  155SAPE  C21217240   1.000   1.921   7.794 -0.3712 -0.1545  0.7323
  155SAPE  H12R17241   0.950   1.958   7.885  0.4481  0.2061  1.0443
  155SAPE  C21317242   1.074   1.784   7.814  0.4694  0.5139 -0.5569
  155SAPE  H13R17243   1.175   1.778   7.767  1.3955 -0.3797  1.3866
  155SAPE  H13S17244   1.002   1.711   7.771 -0.5988 -0.3516  2.4487
  155SAPE  C21417245   1.087   1.749   7.956 -0.4062 -0.3304  0.9444
  155SAPE  H14R17246   1.039   1.818   8.026  0.8481  2.0660 -0.4212
  155SAPE  C21517247   1.160   1.643   8.004  0.3028  0.0677 -0.2658
  155SAPE  H15R17248   1.164   1.628   8.112  1.7300  0.1594 -0.2794
  155SAPE  C21617249   1.244   1.547   7.933  0.0212 -0.4762 -0.1283
  155SAPE  H16R17250   1.264   1.566   7.825  0.2123 -0.2200 -0.0475
  155SAPE  H16S17251   1.203   1.443   7.937  0.0162 -0.4388  1.0834
  155SAPE  C21717252   1.388   1.540   7.997 -0.4072  0.0047  0.1778
  155SAPE  H17R17253   1.430   1.643   7.997 -0.6534  0.1157  1.0547
  155SAPE  H17S17254   1.460   1.477   7.941  1.2447  1.1432  0.9491
  155SAPE  C21817255   1.381   1.482   8.141 -0.6578 -0.8898 -0.8103
  155SAPE  H18R17256   1.314   1.393   8.136 -1.5523 -0.4601  1.8906
  155SAPE  H18S17257   1.327   1.552   8.209  2.9446 -0.0139  1.4155
  155SAPE  C21917258   1.515   1.445   8.205  0.0403  0.3565  0.1602
  155SAPE  H19R17259   1.579   1.391   8.132  0.7151 -0.5745  1.4011
  155SAPE  H19S17260   1.486   1.384   8.293 -1.0895  0.9547  0.2184
  155SAPE  C22017261   1.606   1.562   8.261 -0.0051 -0.3569 -0.2868
  155SAPE  H20R17262   1.550   1.616   8.340  0.1935  0.1317 -0.4752
  155SAPE  H20S17263   1.641   1.637   8.187  2.9670 -0.2430  1.1097
  155SAPE  H20T17264   1.703   1.533   8.307 -1.0690  0.5097  2.7040
  155SAPE   C3317265   1.558   2.075   7.071 -0.4821 -0.0413  0.0817
  155SAPE   H3X17266   1.641   2.021   7.022 -0.5600 -0.3708  0.3069
  155SAPE   H3Y17267   1.466   2.015   7.053 -0.5981 -0.2749  1.3365
  155SAPE   C3417268   1.576   2.076   7.228 -1.0075  0.1127  0.0008
  155SAPE   H4X17269   1.625   1.980   7.255 -0.6454  0.4582  0.6140
  155SAPE   H4Y17270   1.476   2.077   7.277 -1.4873  0.7655 -0.9574
  155SAPE   C3517271   1.661   2.186   7.290 -0.5047 -0.5076  0.2879
  155SAPE   H5X17272   1.609   2.283   7.275  0.9446  0.0496 -1.4682
  155SAPE   H5Y17273   1.755   2.208   7.234 -1.0469  0.8288 -0.1292
  155SAPE   C3617274   1.705   2.151   7.434  0.2316  0.0439  0.5037
  155SAPE   H6X17275   1.779   2.069   7.423  0.8578  0.8470 -1.8964
  155SAPE   H6Y17276   1.611   2.120   7.485 -0.0357  0.1805  0.1018
  155SAPE   C3717277   1.762   2.263   7.516  0.6889 -0.7917 -0.0282
  155SAPE   H7X17278   1.680   2.337   7.528  0.3193 -0.9759 -1.3195
  155SAPE   H7Y17279   1.852   2.307   7.469  0.0314 -0.1063 -0.6877
  155SAPE   C3817280   1.814   2.209   7.649 -0.1806  0.0243 -0.5180
  155SAPE   H8X17281   1.890   2.132   7.626  0.1885  0.2046  0.0637
  155SAPE   H8Y17282   1.729   2.162   7.701  0.1667  0.1437  0.1730
  155SAPE   C3917283   1.877   2.313   7.745 -0.6083  0.4033  0.2758
  155SAPE   H9X17284   1.913   2.250   7.830  0.0767  1.9475  1.1698
  155SAPE   H9Y17285   1.794   2.372   7.789  0.0061  3.0620 -1.8584
  155SAPE  C31017286   1.992   2.392   7.683 -0.2998 -0.2753  0.3665
  155SAPE  H10X17287   1.947   2.441   7.594  1.4016  1.5725  0.4264
  155SAPE  H10Y17288   2.070   2.325   7.643 -0.5950 -0.1472 -0.4426
  155SAPE  C31117289   2.063   2.489   7.779  0.3259 -0.3225 -0.0082
  155SAPE  H11X17290   2.134   2.550   7.719 -1.9705  0.8763 -1.6520
  155SAPE  H11Y17291   2.124   2.421   7.842  0.7102  0.0855  0.0682
  155SAPE  C31217292   1.984   2.588   7.875 -0.0291 -0.4553  1.0809
  155SAPE  H12X17293   1.911   2.535   7.940  0.2514 -0.8110  1.1092
  155SAPE  H12Y17294   1.923   2.645   7.801  2.7128  1.0197 -0.1891
  155SAPE  C31317295   2.079   2.675   7.953 -0.0631 -0.0021  0.5066
  155SAPE  H13X17296   2.121   2.742   7.875 -0.6085 -1.1383 -0.8051
  155SAPE  H13Y17297   2.161   2.621   8.004 -0.4793 -1.7468 -0.5831
  155SAPE  C31417298   2.004   2.771   8.046 -0.0222  0.3836 -0.1202
  155SAPE  H14X17299   1.929   2.709   8.101  0.3313 -3.2743 -3.3270
  155SAPE  H14Y17300   1.934   2.827   7.981 -1.1984 -1.1334 -0.2292
  155SAPE  C31517301   2.093   2.862   8.133 -0.2548  0.5341 -0.3735
  155SAPE  H15X17302   2.029   2.934   8.189  1.9113  1.0274  1.6062
  155SAPE  H15Y17303   2.159   2.916   8.062  0.4997 -0.8464 -0.7615
  155SAPE  C31617304   2.172   2.779   8.235 -0.7855 -0.2281  0.1586
  155SAPE  H16X17305   2.219   2.695   8.179 -1.6952  0.7151 -2.1352
  155SAPE  H16Y17306   2.112   2.737   8.319 -0.3277 -1.6715 -0.2064
  155SAPE  C31717307   2.286   2.847   8.299  0.4719  0.3923  0.7600
  155SAPE  H17X17308   2.300   2.780   8.386 -1.6984 -0.3563  0.6044
  155SAPE  H17Y17309   2.261   2.953   8.320 -1.3352  0.1609 -0.0222
  155SAPE  C31817310   2.418   2.845   8.217 -0.3120  0.6800 -0.5609
  155SAPE  H18X17311   2.398   2.918   8.136 -4.1957  1.0975  0.5381
  155SAPE  H18Y17312   2.422   2.748   8.164  0.7126  0.5929 -0.3349
  155SAPE  H18Z17313   2.509   2.858   8.280 -0.8242 -1.3531  0.6648
  156SAPE     N17314   6.165   4.079   6.105  0.2272 -0.8585 -0.4272
  156SAPE   HN117315   6.121   4.088   6.011 -0.9765 -0.9737  0.1031
  156SAPE   HN217316   6.195   4.172   6.142  0.5686 -0.6662 -1.1732
  156SAPE   HN317317   6.245   4.012   6.101  0.7154 -0.3590  0.5657
  156SAPE   C1217318   6.062   4.030   6.207 -0.8887  0.1865  0.1140
  156SAPE  H12A17319   5.959   4.060   6.178 -0.7729 -0.1969 -0.7125
  156SAPE  H12B17320   6.083   4.082   6.303 -2.3304  0.6858  0.1945
  156SAPE   C1117321   6.068   3.872   6.233  0.3693  0.1423 -0.3648
  156SAPE  H11A17322   6.036   3.803   6.152  1.6069  0.4472 -1.1503
  156SAPE  H11B17323   5.994   3.846   6.311 -0.3659 -0.2265 -1.1730
  156SAPE     P17324   6.250   3.693   6.280  0.2533 -0.1043  0.0681
  156SAPE   O1317325   6.193   3.608   6.173  0.0901  0.8549  0.6654
  156SAPE   O1417326   6.400   3.694   6.285  0.4477 -0.1207 -0.1503
  156SAPE   O1217327   6.198   3.841   6.271  0.0992 -0.5169 -0.0569
  156SAPE   O1117328   6.178   3.645   6.411 -0.4407  0.4212  0.1017
  156SAPE    C117329   6.223   3.682   6.539  0.0667 -0.9210  0.8122
  156SAPE    HA17330   6.325   3.725   6.526  0.4111 -2.5131 -2.9565
  156SAPE    HB17331   6.147   3.757   6.572 -1.4792 -1.3765 -1.4545
  156SAPE    C217332   6.219   3.561   6.635  0.2942 -0.0887  0.0845
  156SAPE    HS17333   6.286   3.490   6.581  3.3223  2.2628  0.5122
  156SAPE   O2117334   6.081   3.517   6.657 -0.1771  0.2392  0.3062
  156SAPE   C2117335   6.059   3.395   6.620 -0.1481 -0.5398 -0.5389
  156SAPE   O2217336   6.130   3.323   6.551 -0.0945  0.0717  0.4369
  156SAPE   C2217337   5.935   3.338   6.691 -0.6403 -0.4724 -0.1136
  156SAPE   H2R17338   5.855   3.414   6.682 -1.9857 -1.8633 -0.4393
  156SAPE   H2S17339   5.909   3.246   6.634 -0.3866 -0.4905 -0.2029
  156SAPE    C317340   6.296   3.596   6.762 -0.3720  0.1430 -0.6255
  156SAPE    HX17341   6.396   3.632   6.730  0.5077  1.0227  2.7591
  156SAPE    HY17342   6.321   3.505   6.820  1.5977 -0.1686 -1.8686
  156SAPE   O3117343   6.216   3.688   6.847  0.0266  0.4355  0.6616
  156SAPE   C3117344   6.294   3.776   6.910  0.4484 -0.5527 -0.2109
  156SAPE   O3217345   6.410   3.800   6.881 -0.4012 -0.9096 -0.3456
  156SAPE   C3217346   6.212   3.850   7.003 -0.3462 -0.7615 -0.0784
  156SAPE   H2X17347   6.135   3.779   7.040 -2.5933 -0.5523 -3.8121
  156SAPE   H2Y17348   6.158   3.928   6.945  1.1738  1.2234  1.0540
  156SAPE   C2317349   5.956   3.288   6.835  0.2834 -0.5789 -0.2068
  156SAPE   H3R17350   6.018   3.196   6.830  0.8054 -0.3904  1.8262
  156SAPE   H3S17351   5.856   3.250   6.867  0.1774  0.0742  0.2477
  156SAPE   C2417352   6.015   3.383   6.943 -0.3155 -0.0544 -0.4724
  156SAPE   H4R17353   6.117   3.403   6.903  1.4295 -3.6303  1.6887
  156SAPE   H4S17354   6.034   3.323   7.034  2.3850  1.8191  0.3308
  156SAPE   C2517355   5.945   3.513   6.964 -0.3760  0.1638  0.3524
  156SAPE   H5R17356   5.943   3.579   6.877  1.0930  0.2251  0.3389
  156SAPE   C2617357   5.893   3.555   7.081 -0.8438  1.0006 -0.2882
  156SAPE   H6R17358   5.843   3.652   7.089 -1.9010  0.2834  3.4109
  156SAPE   C2717359   5.908   3.468   7.212 -0.6285  0.0523  0.5142
  156SAPE   H7R17360   5.903   3.360   7.186  2.4744 -0.2678  0.8418
  156SAPE   H7S17361   5.822   3.491   7.279 -3.4765 -1.9147 -2.1929
  156SAPE   C2817362   6.050   3.497   7.283 -0.4880  0.4618  0.1435
  156SAPE   H8R17363   6.131   3.486   7.210 -1.1954 -1.8677 -0.3877
  156SAPE   C2917364   6.078   3.515   7.413 -0.0211 -0.1770 -0.7150
  156SAPE   H9R17365   6.186   3.520   7.434 -0.2880 -0.4386  0.8071
  156SAPE  C21017366   5.986   3.538   7.528  0.4268  0.1880 -0.6122
  156SAPE  H10R17367   5.898   3.598   7.497  0.5195 -0.2840 -1.8667
  156SAPE  H10S17368   6.042   3.605   7.596 -0.3129  0.2213 -0.0300
  156SAPE  C21117369   5.943   3.418   7.605 -1.1557  0.4827 -0.4140
  156SAPE  H11R17370   5.916   3.329   7.545 -0.5667 -0.6354  0.9189
  156SAPE  C21217371   5.934   3.408   7.743  0.0901 -0.8726  0.9455
  156SAPE  H12R17372   5.876   3.323   7.780 -3.7836  1.1804  0.1360
  156SAPE  C21317373   5.983   3.522   7.831  0.0556  1.0766 -1.1572
  156SAPE  H13R17374   5.893   3.560   7.885  0.5375 -1.4888  1.7257
  156SAPE  H13S17375   6.019   3.614   7.781 -0.0977  0.1914 -2.9691
  156SAPE  C21417376   6.084   3.472   7.929  0.0474  0.0260  0.1868
  156SAPE  H14R17377   6.184   3.458   7.884 -1.1149  0.0131 -2.6089
  156SAPE  C21517378   6.085   3.457   8.061  0.0233 -0.4557  0.5511
  156SAPE  H15R17379   6.175   3.422   8.113 -0.6176 -1.6412  0.9073
  156SAPE  C21617380   5.978   3.497   8.157 -0.2666  1.3005  0.5821
  156SAPE  H16R17381   5.880   3.500   8.106 -0.6895  0.8544  1.3374
  156SAPE  H16S17382   5.991   3.602   8.190 -3.0349  1.8638  0.1015
  156SAPE  C21717383   5.970   3.412   8.284  0.1103  0.2779  1.2129
  156SAPE  H17R17384   6.070   3.416   8.331  0.8162 -0.1610 -0.1702
  156SAPE  H17S17385   5.956   3.304   8.261 -1.8227  0.5381  0.9965
  156SAPE  C21817386   5.857   3.443   8.383 -0.0554 -0.1464  0.4599
  156SAPE  H18R17387   5.768   3.419   8.321  0.6991 -1.2085 -0.2282
  156SAPE  H18S17388   5.854   3.552   8.408 -2.0694 -0.1305  0.2706
  156SAPE  C21917389   5.866   3.356   8.509 -0.4591  0.8852 -0.1172
  156SAPE  H19R17390   5.780   3.373   8.577  0.5631 -0.3417  1.5674
  156SAPE  H19S17391   5.956   3.390   8.565  0.1406  0.5830 -0.8732
  156SAPE  C22017392   5.891   3.202   8.491  0.1536 -0.3168 -0.5916
  156SAPE  H20R17393   5.989   3.165   8.453  0.6027 -0.4582  0.6560
  156SAPE  H20S17394   5.818   3.164   8.417 -0.4610  0.5986 -0.4721
  156SAPE  H20T17395   5.880   3.150   8.589  0.0534 -1.9162 -1.4230
  156SAPE   C3317396   6.289   3.906   7.125  0.2471 -0.3142 -0.7025
  156SAPE   H3X17397   6.244   4.004   7.151  0.1096 -0.5204 -0.1585
  156SAPE   H3Y17398   6.394   3.927   7.096 -0.1272  2.4014 -0.3280
  156SAPE   C3417399   6.271   3.817   7.253  0.6578  0.9071  0.0696
  156SAPE   H4X17400   6.330   3.724   7.238  0.6347  1.1466 -1.7199
  156SAPE   H4Y17401   6.171   3.770   7.252  1.2236 -0.3495 -1.1219
  156SAPE   C3517402   6.309   3.888   7.389  0.0945 -0.8120  0.7446
  156SAPE   H5X17403   6.260   3.987   7.397  1.0884 -0.3282  0.9495
  156SAPE   H5Y17404   6.414   3.922   7.387 -0.0210 -0.2569 -3.1132
  156SAPE   C3617405   6.269   3.804   7.506  0.2614  0.4523 -0.1882
  156SAPE   H6X17406   6.328   3.712   7.521  0.4255  0.6625  0.4927
  156SAPE   H6Y17407   6.161   3.786   7.485  0.1316  0.9008  0.0703
  156SAPE   C3717408   6.286   3.887   7.638  0.4061  0.3753 -0.4182
  156SAPE   H7X17409   6.202   3.959   7.647 -0.0286 -0.2025  0.2407
  156SAPE   H7Y17410   6.388   3.931   7.636 -0.0308  1.5898  1.3359
  156SAPE   C3817411   6.288   3.795   7.763  0.1368 -0.1875 -0.4291
  156SAPE   H8X17412   6.373   3.725   7.753 -1.4353 -2.3187  0.3004
  156SAPE   H8Y17413   6.189   3.746   7.764 -0.2352  0.5440  0.3072
  156SAPE   C3917414   6.302   3.878   7.895 -0.0911 -0.3063  0.1475
  156SAPE   H9X17415   6.237   3.968   7.887 -1.3240 -1.1687  0.1140
  156SAPE   H9Y17416   6.403   3.916   7.921  0.1739 -1.7286  1.3509
  156SAPE  C31017417   6.246   3.801   8.019  0.8575 -0.3973 -0.3392
  156SAPE  H10X17418   6.307   3.716   8.055 -0.4335 -0.1637  2.7122
  156SAPE  H10Y17419   6.158   3.747   7.979 -1.8537  1.2981  2.8706
  156SAPE  C31117420   6.214   3.872   8.153 -0.4465  0.6631 -0.4616
  156SAPE  H11X17421   6.160   3.800   8.218 -0.4905  0.9151 -0.2127
  156SAPE  H11Y17422   6.143   3.957   8.144 -0.3050  1.0389  1.4312
  156SAPE  C31217423   6.352   3.908   8.220  1.3843 -0.0392 -0.7463
  156SAPE  H12X17424   6.386   4.009   8.188 -2.0501  1.0275 -1.4132
  156SAPE  H12Y17425   6.426   3.832   8.188  2.0019 -0.5014  1.5756
  156SAPE  C31317426   6.358   3.909   8.380  0.5091  0.4809  0.5267
  156SAPE  H13X17427   6.406   3.817   8.420 -0.8924  0.0298  1.2790
  156SAPE  H13Y17428   6.252   3.900   8.412  0.6347  3.0855  1.9800
  156SAPE  C31417429   6.428   4.022   8.445 -0.1979 -0.1231  0.7148
  156SAPE  H14X17430   6.361   4.110   8.435  1.5411  1.2846  0.9639
  156SAPE  H14Y17431   6.527   4.043   8.399  0.1867  1.0032  2.0038
  156SAPE  C31517432   6.473   4.009   8.600  0.1352 -0.1433  0.3668
  156SAPE  H15X17433   6.535   4.098   8.620 -1.8196  1.4408 -0.3036
  156SAPE  H15Y17434   6.524   3.912   8.618  1.3480  0.3118 -0.5408
  156SAPE  C31617435   6.347   3.992   8.688  0.0812  0.2972 -0.6579
  156SAPE  H16X17436   6.277   3.915   8.651  0.0149 -0.5268  1.0760
  156SAPE  H16Y17437   6.288   4.086   8.680 -1.6269 -0.6744  0.1212
  156SAPE  C31717438   6.374   3.965   8.833  0.0865  0.8005 -0.2114
  156SAPE  H17X17439   6.426   4.048   8.884  2.2072 -2.1549  2.9194
  156SAPE  H17Y17440   6.451   3.884   8.840 -0.8746  0.0027  1.8454
  156SAPE  C31817441   6.248   3.924   8.916  0.4631  0.0199  0.6687
  156SAPE  H18X17442   6.201   3.828   8.886 -0.6873  0.7482  0.0667
  156SAPE  H18Y17443   6.171   4.004   8.924 -0.0047 -0.1331 -1.6073
  156SAPE  H18Z17444   6.278   3.905   9.022 -2.4980  1.3857  1.8656
  157SAPE     N17445   2.910   6.184   6.122  0.2596  0.8738 -0.5579
  157SAPE   HN117446   2.949   6.278   6.139  1.1826  0.8940 -2.5191
  157SAPE   HN217447   2.981   6.115   6.153  0.2283  0.8318 -0.5809
  157SAPE   HN317448   2.895   6.178   6.019  1.4908  0.8176 -0.7402
  157SAPE   C1217449   2.777   6.156   6.199 -0.4347  0.1018  0.0592
  157SAPE  H12A17450   2.714   6.246   6.183  0.7401  0.7456 -1.1710
  157SAPE  H12B17451   2.808   6.164   6.305 -0.5917  1.1043  0.0374
  157SAPE   C1117452   2.704   6.036   6.147  0.5751  0.1661 -0.2443
  157SAPE  H11A17453   2.656   6.052   6.049 -1.2453 -2.0535  0.1966
  157SAPE  H11B17454   2.618   6.008   6.212 -0.3751  1.2118 -1.0188
  157SAPE     P17455   2.760   5.787   6.198 -0.0616 -0.2330 -0.0690
  157SAPE   O1317456   2.620   5.738   6.159 -0.1484 -0.1885 -0.0483
  157SAPE   O1417457   2.871   5.691   6.168 -0.4560  0.3395 -0.3591
  157SAPE   O1217458   2.793   5.923   6.132 -0.0937  0.4086 -0.0610
  157SAPE   O1117459   2.765   5.810   6.351  0.5590 -0.4687  0.2709
  157SAPE    C117460   2.881   5.878   6.400  0.0881 -0.0841  0.4254
  157SAPE    HA17461   2.950   5.928   6.328  1.7202 -0.4287  1.6842
  157SAPE    HB17462   2.847   5.951   6.476 -2.9980 -0.4171 -0.5204
  157SAPE    C217463   2.977   5.773   6.467  0.7076 -0.5265  0.1151
  157SAPE    HS17464   3.021   5.710   6.387  1.1597 -0.5537  0.3803
  157SAPE   O2117465   2.895   5.694   6.554 -0.2050  0.4047 -0.0930
  157SAPE   C2117466   2.929   5.569   6.579 -0.5802  0.3173 -0.7924
  157SAPE   O2217467   3.003   5.496   6.514 -0.1235  0.4758 -0.3385
  157SAPE   C2217468   2.849   5.519   6.700  0.3825 -0.2439  0.4451
  157SAPE   H2R17469   2.901   5.542   6.796 -2.8667  1.5633  1.9155
  157SAPE   H2S17470   2.748   5.564   6.701  0.2153 -0.6217  0.6886
  157SAPE    C317471   3.095   5.848   6.539 -0.1936  0.3910 -0.0977
  157SAPE    HX17472   3.049   5.930   6.598 -0.0835  0.1684  0.3046
  157SAPE    HY17473   3.164   5.887   6.461 -0.4916  1.1286  0.0016
  157SAPE   O3117474   3.159   5.772   6.645 -0.7349  0.4860  0.0119
  157SAPE   C3117475   3.259   5.702   6.618 -0.3279 -0.0328  0.4028
  157SAPE   O3217476   3.310   5.689   6.508  0.1524  0.0008  0.0777
  157SAPE   C3217477   3.312   5.627   6.742 -0.1573  0.0754  0.6077
  157SAPE   H2X17478   3.421   5.648   6.747 -0.5312  2.1083  1.2884
  157SAPE   H2Y17479   3.283   5.527   6.703  0.0603  0.3384 -0.2378
  157SAPE   C2317480   2.831   5.362   6.696  0.2851  0.7899  0.0902
  157SAPE   H3R17481   2.925   5.304   6.708 -1.3921 -2.1670 -0.1022
  157SAPE   H3S17482   2.777   5.329   6.605 -0.5804  0.2345  0.7904
  157SAPE   C2417483   2.733   5.315   6.814  0.0504  0.1805  0.1584
  157SAPE   H4R17484   2.772   5.328   6.917  2.2391  0.7876 -0.6844
  157SAPE   H4S17485   2.693   5.211   6.806 -0.9280  0.5710 -0.2706
  157SAPE   C2517486   2.603   5.389   6.810  0.1266 -0.1740  0.2508
  157SAPE   H5R17487   2.536   5.356   6.729 -3.2655  2.2660  1.8347
  157SAPE   C2617488   2.558   5.485   6.893  0.1812  0.3593 -0.7425
  157SAPE   H6R17489   2.467   5.540   6.869 -0.1634  0.3161  0.4090
  157SAPE   C2717490   2.638   5.540   7.010 -0.4366  0.1093  0.4750
  157SAPE   H7R17491   2.741   5.557   6.971 -0.2607  0.3449  1.0339
  157SAPE   H7S17492   2.654   5.462   7.086 -0.3385  0.9532  1.3386
  157SAPE   C2817493   2.575   5.661   7.082  0.1006  0.1304  0.0902
  157SAPE   H8R17494   2.540   5.740   7.014 -0.0289 -0.3687 -0.4401
  157SAPE   C2917495   2.565   5.686   7.221  0.2589 -0.3274  0.5792
  157SAPE   H9R17496   2.510   5.777   7.249  0.1092  0.2268 -1.4031
  157SAPE  C21017497   2.610   5.596   7.336 -1.1411 -0.4448  0.2662
  157SAPE  H10R17498   2.573   5.492   7.322 -1.2620 -0.6489  1.9121
  157SAPE  H10S17499   2.546   5.613   7.425 -1.8156 -2.0497  0.1139
  157SAPE  C21117500   2.756   5.594   7.369  0.4459  0.0838 -0.0919
  157SAPE  H11R17501   2.815   5.580   7.277  2.2091 -0.0375  1.0172
  157SAPE  C21217502   2.813   5.625   7.487 -0.3694  0.5653  0.5987
  157SAPE  H12R17503   2.921   5.608   7.496 -0.4641 -0.1602  0.4376
  157SAPE  C21317504   2.737   5.663   7.615 -0.5450  0.5891  0.3922
  157SAPE  H13R17505   2.661   5.738   7.585 -2.3214 -1.6079 -0.9181
  157SAPE  H13S17506   2.800   5.715   7.690 -0.2572  1.3044 -0.3185
  157SAPE  C21417507   2.672   5.539   7.682 -0.4991 -0.1436 -0.5044
  157SAPE  H14R17508   2.665   5.444   7.627  1.2329 -0.4642 -0.2189
  157SAPE  C21517509   2.642   5.543   7.817  0.4306 -0.6213  0.4124
  157SAPE  H15R17510   2.594   5.460   7.871 -2.8614 -0.2154 -1.6406
  157SAPE  C21617511   2.659   5.671   7.901 -0.4445  0.1531 -0.4350
  157SAPE  H16R17512   2.664   5.767   7.845 -1.9700  0.2511 -0.4505
  157SAPE  H16S17513   2.760   5.657   7.945  0.3709  1.1789 -1.9041
  157SAPE  C21717514   2.556   5.688   8.011  0.1249  0.3842 -0.1859
  157SAPE  H17R17515   2.515   5.592   8.050 -0.4491  1.6285  2.4799
  157SAPE  H17S17516   2.467   5.743   7.973 -1.5104 -0.0609  2.6973
  157SAPE  C21817517   2.602   5.779   8.131  0.3179  0.0171 -0.1006
  157SAPE  H18R17518   2.601   5.885   8.097 -1.6341  1.0101  2.6819
  157SAPE  H18S17519   2.703   5.741   8.157 -0.4405 -0.7851  1.8721
  157SAPE  C21917520   2.500   5.761   8.244 -1.0211  0.3513  0.5687
  157SAPE  H19R17521   2.493   5.653   8.270 -0.7037 -0.4399 -2.2584
  157SAPE  H19S17522   2.398   5.777   8.203 -0.7247 -0.9455 -0.7545
  157SAPE  C22017523   2.534   5.855   8.361  0.1940  0.1007  0.3764
  157SAPE  H20R17524   2.457   5.838   8.439  2.1954 -1.7824  2.0953
  157SAPE  H20S17525   2.535   5.961   8.330 -0.7598  0.2971  0.9940
  157SAPE  H20T17526   2.635   5.828   8.400  0.3290 -0.7438 -0.5268
  157SAPE   C3317527   3.253   5.671   6.880 -0.5330 -0.5067 -0.8878
  157SAPE   H3X17528   3.146   5.700   6.878  0.2689  2.8098 -1.0497
  157SAPE   H3Y17529   3.301   5.769   6.899 -1.0655 -0.6246  1.3427
  157SAPE   C3417530   3.280   5.577   6.998  0.3135  0.1766  0.6582
  157SAPE   H4X17531   3.388   5.552   7.001  0.1527 -1.0200 -1.4902
  157SAPE   H4Y17532   3.231   5.479   6.981  0.5353  0.2854 -0.7805
  157SAPE   C3517533   3.241   5.644   7.131 -0.5009  0.0109 -0.1961
  157SAPE   H5X17534   3.135   5.677   7.132 -0.1386  1.2333 -0.1158
  157SAPE   H5Y17535   3.310   5.728   7.154 -0.4212 -0.0777 -0.1083
  157SAPE   C3617536   3.262   5.543   7.254 -0.0996  1.5892  0.1177
  157SAPE   H6X17537   3.370   5.517   7.255 -0.0759  1.6160 -1.0210
  157SAPE   H6Y17538   3.194   5.456   7.239  0.5827  1.1372 -0.3911
  157SAPE   C3717539   3.226   5.618   7.384  0.0501 -0.2275 -0.2668
  157SAPE   H7X17540   3.118   5.644   7.375 -0.7367 -1.6379  3.2652
  157SAPE   H7Y17541   3.292   5.707   7.389 -0.8298  0.3793  2.7902
  157SAPE   C3817542   3.261   5.541   7.511  0.0293 -0.0727  0.2623
  157SAPE   H8X17543   3.361   5.495   7.500 -0.0524 -0.7997  2.1637
  157SAPE   H8Y17544   3.187   5.458   7.504  1.5905 -1.4166 -1.3252
  157SAPE   C3917545   3.248   5.624   7.640 -0.7256  0.0258  0.3492
  157SAPE   H9X17546   3.154   5.682   7.648 -0.7031  0.2126 -0.7011
  157SAPE   H9Y17547   3.322   5.702   7.613 -0.4361 -0.7248 -1.1575
  157SAPE  C31017548   3.295   5.551   7.766  0.0082 -0.1067  0.2543
  157SAPE  H10X17549   3.379   5.488   7.730 -0.3639  0.3280 -1.5121
  157SAPE  H10Y17550   3.209   5.483   7.784 -0.5341 -0.8622 -3.9991
  157SAPE  C31117551   3.339   5.648   7.879  0.4115 -0.2825  0.1409
  157SAPE  H11X17552   3.252   5.716   7.892  0.6319 -0.2895  1.8125
  157SAPE  H11Y17553   3.428   5.708   7.851  1.6576 -1.7258  0.8471
  157SAPE  C31217554   3.370   5.572   8.005 -0.0352 -0.0418 -0.0155
  157SAPE  H12X17555   3.470   5.525   7.994 -0.3517 -0.4032 -1.6159
  157SAPE  H12Y17556   3.299   5.486   8.007  0.5484 -0.5612 -0.9216
  157SAPE  C31317557   3.346   5.652   8.139 -1.0801 -0.7734 -0.0192
  157SAPE  H13X17558   3.258   5.716   8.117  0.6445  1.6014 -0.5062
  157SAPE  H13Y17559   3.428   5.727   8.151 -1.5244 -0.1575 -0.7412
  157SAPE  C31417560   3.332   5.566   8.264  0.1640 -0.7196  0.1787
  157SAPE  H14X17561   3.429   5.512   8.269  1.2281  1.1844  1.7300
  157SAPE  H14Y17562   3.244   5.499   8.258  0.9606 -1.7053 -1.1970
  157SAPE  C31517563   3.320   5.653   8.394  0.3647  0.0488  0.3601
  157SAPE  H15X17564   3.259   5.745   8.385  0.3676  0.1810  1.5403
  157SAPE  H15Y17565   3.417   5.707   8.401 -1.5378  3.9675 -0.6220
  157SAPE  C31617566   3.291   5.572   8.523  0.7197  0.5449  0.0608
  157SAPE  H16X17567   3.348   5.477   8.518  0.0238  0.1763 -0.9655
  157SAPE  H16Y17568   3.185   5.539   8.517  1.4901 -1.7917 -2.5190
  157SAPE  C31717569   3.320   5.654   8.653 -0.0215 -0.6753 -0.2037
  157SAPE  H17X17570   3.236   5.723   8.674 -0.6477 -1.1121 -1.1802
  157SAPE  H17Y17571   3.414   5.710   8.634  0.9659 -1.5692  1.7275
  157SAPE  C31817572   3.331   5.561   8.776  0.5494  0.0982 -0.5837
  157SAPE  H18X17573   3.348   5.622   8.868 -2.4120  0.6263 -0.2841
  157SAPE  H18Y17574   3.398   5.475   8.757 -0.8200 -0.8867 -1.0652
  157SAPE  H18Z17575   3.230   5.518   8.791  1.0736 -1.3120 -0.9752
  158SAPE     N17576   4.949   2.935   6.012 -0.2305  0.6027 -0.1649
  158SAPE   HN117577   4.999   2.971   6.096  0.5376  3.9409 -1.8604
  158SAPE   HN217578   4.853   2.969   6.029 -1.7691 -2.4867 -1.8167
  158SAPE   HN317579   4.949   2.832   6.000  0.8585  0.3006  1.9262
  158SAPE   C1217580   5.022   3.012   5.898 -0.0642  0.2586 -0.4519
  158SAPE  H12A17581   4.954   3.003   5.811 -1.6938 -0.7875  0.8731
  158SAPE  H12B17582   5.121   2.965   5.876  0.1038  1.1910 -1.7959
  158SAPE   C1117583   5.048   3.148   5.954 -0.1415  0.7136  0.0113
  158SAPE  H11A17584   4.949   3.198   5.966 -0.3903 -0.0896  1.5073
  158SAPE  H11B17585   5.095   3.204   5.870  0.1395 -0.2973 -0.5133
  158SAPE     P17586   5.160   3.276   6.156  0.1247 -0.1491 -0.3165
  158SAPE   O1317587   5.300   3.316   6.135 -0.0087  0.2776 -0.3590
  158SAPE   O1417588   5.058   3.380   6.124 -0.6220  0.2293 -0.3762
  158SAPE   O1217589   5.124   3.144   6.071 -0.2215 -0.8974 -1.0504
  158SAPE   O1117590   5.149   3.228   6.305 -0.5951 -0.4416  0.6134
  158SAPE    C117591   5.167   3.323   6.415 -0.3004  0.4347 -0.2259
  158SAPE    HA17592   5.198   3.425   6.384 -0.1161  0.6219  0.5456
  158SAPE    HB17593   5.068   3.331   6.465 -0.1240 -0.2460  0.2466
  158SAPE    C217594   5.257   3.266   6.525  0.4173 -0.1901 -0.3904
  158SAPE    HS17595   5.330   3.196   6.479  0.1682  0.4284 -1.7545
  158SAPE   O2117596   5.174   3.206   6.628 -0.0711 -0.3442 -0.2738
  158SAPE   C2117597   5.136   3.085   6.611  0.0986 -0.8238 -0.4793
  158SAPE   O2217598   5.161   3.009   6.521  0.5111 -0.1956 -0.0705
  158SAPE   C2217599   5.059   3.037   6.732  0.1497  0.3300  0.0623
  158SAPE   H2R17600   4.960   3.087   6.730 -0.3083 -0.3980 -3.7999
  158SAPE   H2S17601   5.039   2.928   6.719  2.4374 -0.1564  0.1662
  158SAPE    C317602   5.336   3.384   6.585 -1.3415  0.1959  0.4855
  158SAPE    HX17603   5.270   3.461   6.630 -0.9973  1.4905 -1.1441
  158SAPE    HY17604   5.400   3.433   6.509 -0.2243 -1.2743  0.4351
  158SAPE   O3117605   5.434   3.355   6.692 -0.0809 -0.3974 -0.1503
  158SAPE   C3117606   5.479   3.464   6.760  0.0614  0.0288  1.2075
  158SAPE   O3217607   5.448   3.578   6.732  0.6922 -1.0409 -0.2346
  158SAPE   C3217608   5.556   3.418   6.889 -0.5012 -0.2268  0.3143
  158SAPE   H2X17609   5.533   3.504   6.955 -1.1609  0.2274 -0.4989
  158SAPE   H2Y17610   5.663   3.433   6.862 -0.7624  1.2039  0.0002
  158SAPE   C2317611   5.134   3.060   6.867 -0.3426  0.2156 -0.2373
  158SAPE   H3R17612   5.180   3.159   6.885  3.4593 -1.6368  1.4401
  158SAPE   H3S17613   5.222   2.992   6.862 -0.1987  0.3391  0.5048
  158SAPE   C2417614   5.039   3.026   6.990 -0.8404  0.2765  0.5035
  158SAPE   H4R17615   4.967   2.943   6.972 -2.2003  1.3974  0.6424
  158SAPE   H4S17616   4.965   3.107   7.009 -1.1776  0.6113 -1.9298
  158SAPE   C2517617   5.143   2.999   7.101  0.2015 -0.1766  0.1465
  158SAPE   H5R17618   5.226   2.933   7.075  0.1382 -0.1006 -0.2592
  158SAPE   C2617619   5.146   3.056   7.220  0.3128 -0.1137  0.8646
  158SAPE   H6R17620   5.222   3.013   7.287 -0.4777 -3.0951  0.0157
  158SAPE   C2717621   5.040   3.155   7.265  0.3350  0.5310  0.3810
  158SAPE   H7R17622   4.950   3.093   7.284  0.3353 -0.2247 -1.7500
  158SAPE   H7S17623   5.015   3.232   7.188 -1.5951  0.8911  1.3028
  158SAPE   C2817624   5.087   3.232   7.379 -0.3015 -0.3903 -0.4488
  158SAPE   H8R17625   5.128   3.332   7.362 -1.1256  0.1588  0.6324
  158SAPE   C2917626   5.079   3.196   7.506 -0.2220 -0.2083 -0.1290
  158SAPE   H9R17627   5.102   3.271   7.583 -3.1260  0.0966  0.5517
  158SAPE  C21017628   5.030   3.071   7.570  0.0146  0.3086  0.2247
  158SAPE  H10R17629   5.110   3.018   7.626 -1.1663 -1.6206  0.1737
  158SAPE  H10S17630   5.007   2.993   7.495 -0.4825  1.8741 -1.3270
  158SAPE  C21117631   4.914   3.086   7.665 -0.0138 -0.2275  0.2476
  158SAPE  H11R17632   4.821   3.039   7.630  0.1963  0.1820 -0.8830
  158SAPE  C21217633   4.921   3.145   7.790  0.9657 -0.4892  0.4965
  158SAPE  H12R17634   4.830   3.143   7.852 -0.3351  0.0628 -1.2804
  158SAPE  C21317635   5.038   3.208   7.863 -0.6134  0.3240  0.5750
  158SAPE  H13R17636   5.004   3.313   7.872 -3.6282 -0.6971  2.3661
  158SAPE  H13S17637   5.122   3.202   7.790 -0.6812 -0.5016  0.5583
  158SAPE  C21417638   5.074   3.150   8.003 -0.3944  0.9746  0.0987
  158SAPE  H14R17639   5.141   3.062   8.008 -0.5089  0.8537 -0.4029
  158SAPE  C21517640   5.025   3.190   8.120  0.6781  0.4387  0.1653
  158SAPE  H15R17641   5.068   3.141   8.208 -1.3853  0.1376  1.0685
  158SAPE  C21617642   4.928   3.307   8.152  0.5941 -0.5268 -0.6305
  158SAPE  H16R17643   4.852   3.291   8.231  0.6740 -3.0225 -0.9928
  158SAPE  H16S17644   4.871   3.320   8.057 -1.0222 -3.8154 -0.2507
  158SAPE  C21717645   5.001   3.440   8.185 -0.1104  0.5003  0.1372
  158SAPE  H17R17646   4.926   3.518   8.209 -0.9130 -0.7241  1.8343
  158SAPE  H17S17647   5.062   3.472   8.098 -1.1864  2.1307 -0.0644
  158SAPE  C21817648   5.080   3.427   8.317 -0.2367  0.3852 -0.3764
  158SAPE  H18R17649   5.141   3.519   8.323 -1.9573  1.5813 -0.7426
  158SAPE  H18S17650   5.144   3.336   8.309 -0.5607  0.2984 -3.3916
  158SAPE  C21917651   4.986   3.411   8.436 -0.2798  0.6175 -0.5197
  158SAPE  H19R17652   4.915   3.326   8.432  0.1880  0.1967 -0.0558
  158SAPE  H19S17653   4.923   3.502   8.446  1.0571  1.4503  0.6822
  158SAPE  C22017654   5.066   3.387   8.565 -0.4165 -0.5523  0.9924
  158SAPE  H20R17655   5.014   3.392   8.662 -0.5197 -0.8911  0.9543
  158SAPE  H20S17656   5.147   3.464   8.566 -0.7557 -0.0672 -1.3081
  158SAPE  H20T17657   5.127   3.296   8.549 -0.4237 -0.5876  1.1748
  158SAPE   C3317658   5.540   3.276   6.938 -0.7141 -0.6879 -0.7124
  158SAPE   H3X17659   5.548   3.196   6.860  1.7787 -0.2766 -0.9496
  158SAPE   H3Y17660   5.432   3.267   6.963 -0.4675  0.8513  1.0667
  158SAPE   C3417661   5.629   3.249   7.059  0.4506 -0.3487  0.4069
  158SAPE   H4X17662   5.601   3.323   7.138 -3.1162  0.9390 -1.7854
  158SAPE   H4Y17663   5.735   3.267   7.030  0.1547  4.6732  1.4604
  158SAPE   C3517664   5.615   3.102   7.108  0.8450  0.0165  0.3795
  158SAPE   H5X17665   5.652   3.031   7.031  0.0203 -1.4627  1.2896
  158SAPE   H5Y17666   5.506   3.091   7.125  0.4674  0.6040 -1.4351
  158SAPE   C3617667   5.687   3.083   7.244 -0.1328 -0.3559  0.0830
  158SAPE   H6X17668   5.785   3.134   7.239 -0.7661  0.7856 -3.3522
  158SAPE   H6Y17669   5.703   2.973   7.253 -1.8398 -0.9409 -2.7104
  158SAPE   C3717670   5.604   3.136   7.362  0.0657  0.0762  0.3448
  158SAPE   H7X17671   5.580   3.244   7.350 -1.7092 -0.4567 -1.6149
  158SAPE   H7Y17672   5.512   3.075   7.363 -0.6846  1.1339 -0.6541
  158SAPE   C3817673   5.675   3.116   7.498  0.2531 -0.2532 -0.2929
  158SAPE   H8X17674   5.762   3.184   7.503 -0.2869  0.5910 -1.5917
  158SAPE   H8Y17675   5.715   3.013   7.503  0.0313 -0.3328 -0.1344
  158SAPE   C3917676   5.574   3.126   7.616  0.0400  0.0234  0.6070
  158SAPE   H9X17677   5.624   3.077   7.703  0.4403 -0.6587  0.0047
  158SAPE   H9Y17678   5.482   3.067   7.598  0.9569 -0.8978 -1.3662
  158SAPE  C31017679   5.545   3.270   7.641 -0.3503  0.0751 -0.1589
  158SAPE  H10X17680   5.491   3.318   7.556 -3.7490 -0.6659  1.3917
  158SAPE  H10Y17681   5.638   3.327   7.663  0.6544 -1.1465 -1.0825
  158SAPE  C31117682   5.459   3.278   7.768  0.1923 -0.4171 -0.2120
  158SAPE  H11X17683   5.502   3.216   7.849 -0.9709 -0.7486  0.1764
  158SAPE  H11Y17684   5.360   3.238   7.736  1.1928 -1.7247 -1.8738
  158SAPE  C31217685   5.444   3.422   7.818 -0.0399  0.0161 -1.0499
  158SAPE  H12X17686   5.363   3.470   7.758 -0.3190  0.7702 -0.0932
  158SAPE  H12Y17687   5.533   3.487   7.806  0.4638 -0.5918 -0.6384
  158SAPE  C31317688   5.403   3.427   7.967  0.1901 -0.6055  0.5888
  158SAPE  H13X17689   5.483   3.369   8.016  2.7878  2.0635 -0.2193
  158SAPE  H13Y17690   5.312   3.367   7.987 -0.8723  0.2731 -1.2823
  158SAPE  C31417691   5.385   3.571   8.019  0.5036  0.4266 -0.1224
  158SAPE  H14X17692   5.289   3.617   7.987  0.7635  0.9803 -0.1298
  158SAPE  H14Y17693   5.459   3.640   7.973 -1.7360  1.0017 -3.1840
  158SAPE  C31517694   5.401   3.585   8.169  0.1734  0.6597 -0.2907
  158SAPE  H15X17695   5.386   3.484   8.212 -2.7811  1.7891  1.6328
  158SAPE  H15Y17696   5.318   3.648   8.207  0.2184 -0.3937  1.7034
  158SAPE  C31617697   5.540   3.626   8.223 -0.0008  0.5843 -0.5701
  158SAPE  H16X17698   5.583   3.707   8.159  1.4317 -0.9975 -1.6887
  158SAPE  H16Y17699   5.602   3.535   8.209 -1.0168  0.0340 -1.6961
  158SAPE  C31717700   5.535   3.681   8.361 -0.2618 -0.1420 -0.2434
  158SAPE  H17X17701   5.478   3.776   8.367 -1.0339 -0.6595  1.1758
  158SAPE  H17Y17702   5.634   3.719   8.393 -0.3119  2.0882 -2.4506
  158SAPE  C31817703   5.465   3.602   8.468  0.0301  0.5990  0.0585
  158SAPE  H18X17704   5.475   3.658   8.564  0.3765  0.7571 -0.0706
  158SAPE  H18Y17705   5.506   3.499   8.478 -0.3022  0.2473 -1.8697
  158SAPE  H18Z17706   5.355   3.595   8.454 -0.2376  1.5604  1.4118
  159SAPE     N17707   4.915   0.070   5.434  0.6348 -0.2178 -0.3735
  159SAPE   HN117708   4.840   0.004   5.462  1.5381 -1.2674 -0.3216
  159SAPE   HN217709   4.886   0.165   5.463  5.0406  1.2708 -0.1138
  159SAPE   HN317710   4.917   0.077   5.330  2.5186  0.2385 -0.3386
  159SAPE   C1217711   5.055   0.051   5.484 -0.5303 -0.3400  0.3260
  159SAPE  H12A17712   5.120   0.113   5.419 -0.5331 -0.5125  0.1574
  159SAPE  H12B17713   5.090  -0.052   5.463 -1.6375 -1.0428  1.7785
  159SAPE   C1117714   5.072   0.063   5.638  0.1670 -0.3757  0.4421
  159SAPE  H11A17715   5.176   0.047   5.673  0.1802  0.4400  0.8078
  159SAPE  H11B17716   5.009  -0.017   5.683 -0.3471  0.4595  1.2555
  159SAPE     P17717   5.045   0.211   5.843 -0.0333 -0.1818 -0.3214
  159SAPE   O1317718   5.014   0.348   5.872 -0.1324 -0.1438 -0.4892
  159SAPE   O1417719   4.946   0.117   5.901 -0.2153 -0.0076 -0.3769
  159SAPE   O1217720   5.035   0.189   5.690  0.1712 -0.1531  0.4021
  159SAPE   O1117721   5.189   0.163   5.892  0.1701 -0.1979 -0.0304
  159SAPE    C117722   5.292   0.261   5.902 -0.1784 -0.1212 -0.1303
  159SAPE    HA17723   5.359   0.242   5.815 -0.3274  0.9431 -0.4970
  159SAPE    HB17724   5.261   0.367   5.890  2.5425  0.6606 -1.1540
  159SAPE    C217725   5.372   0.264   6.038 -0.4185 -0.1843  0.7630
  159SAPE    HS17726   5.387   0.159   6.071 -2.0652 -0.4369  0.7777
  159SAPE   O2117727   5.295   0.344   6.133  0.3027 -0.9913  0.1931
  159SAPE   C2117728   5.182   0.291   6.187 -0.1862  0.7920  0.2403
  159SAPE   O2217729   5.151   0.173   6.175 -0.0291  0.0061 -0.5951
  159SAPE   C2217730   5.107   0.398   6.261 -0.0487 -0.2372 -0.4769
  159SAPE   H2R17731   5.178   0.471   6.306  0.9379 -0.6372 -1.3660
  159SAPE   H2S17732   5.036   0.451   6.194 -1.2972 -0.0333  0.9375
  159SAPE    C317733   5.516   0.328   6.032  0.6363  0.1419 -0.1732
  159SAPE    HX17734   5.495   0.431   5.997  1.6370 -0.3471 -2.4322
  159SAPE    HY17735   5.575   0.270   5.957 -0.1381  2.2437 -2.5276
  159SAPE   O3117736   5.592   0.321   6.156 -0.1092 -0.4879 -0.8933
  159SAPE   C3117737   5.585   0.436   6.230  0.3315 -0.2231  0.1479
  159SAPE   O3217738   5.547   0.543   6.184 -0.3060  0.0812 -0.4335
  159SAPE   C3217739   5.637   0.420   6.376 -0.2323 -0.4543  0.3124
  159SAPE   H2X17740   5.661   0.521   6.416 -3.4462  0.3604  0.4884
  159SAPE   H2Y17741   5.739   0.378   6.367 -0.2101 -1.2011  3.1818
  159SAPE   C2317742   5.029   0.341   6.384 -0.0741 -0.1225  0.0283
  159SAPE   H3R17743   5.086   0.279   6.456 -1.0506 -0.1105  0.8384
  159SAPE   H3S17744   4.963   0.272   6.328 -1.8265  0.7519  0.9351
  159SAPE   C2417745   4.935   0.442   6.453  0.0088 -0.2042  0.8916
  159SAPE   H4R17746   4.871   0.384   6.523 -0.2158 -0.9932  0.0630
  159SAPE   H4S17747   4.858   0.476   6.380  0.9482  1.2130  0.5233
  159SAPE   C2517748   4.997   0.567   6.507  0.6717  0.2746 -0.1578
  159SAPE   H5R17749   5.013   0.649   6.436  0.0357 -0.4416 -1.1553
  159SAPE   C2617750   5.021   0.583   6.638 -0.1895 -0.4061  0.3585
  159SAPE   H6R17751   5.065   0.677   6.675  1.7824 -0.1123 -2.4600
  159SAPE   C2717752   4.985   0.495   6.756 -0.5075 -0.3632 -0.1212
  159SAPE   H7R17753   5.063   0.501   6.835  0.7170  1.6536 -1.4077
  159SAPE   H7S17754   4.973   0.393   6.714 -1.3501 -0.3231 -0.0089
  159SAPE   C2817755   4.846   0.538   6.797  1.0201 -0.2506 -0.1011
  159SAPE   H8R17756   4.775   0.548   6.713 -0.0243  2.9447  1.0094
  159SAPE   C2917757   4.811   0.571   6.922  0.1744  0.3151  0.7474
  159SAPE   H9R17758   4.708   0.605   6.941 -0.7633 -2.0428  0.2879
  159SAPE  C21017759   4.904   0.576   7.042  0.2362 -0.2334  0.2024
  159SAPE  H10R17760   4.966   0.484   7.047  0.4251 -0.2832 -1.9986
  159SAPE  H10S17761   4.831   0.559   7.124 -1.6578 -0.2507 -1.4049
  159SAPE  C21117762   4.990   0.698   7.063 -0.2833  0.1349 -0.2586
  159SAPE  H11R17763   4.994   0.770   6.981  2.6372  1.2804  0.7720
  159SAPE  C21217764   5.053   0.722   7.181  0.2476  0.0496 -0.3462
  159SAPE  H12R17765   5.115   0.813   7.184 -0.1934  0.3719 -1.0234
  159SAPE  C21317766   5.045   0.624   7.302 -0.0653  0.3761 -0.6523
  159SAPE  H13R17767   5.138   0.635   7.362  0.5243  1.0913 -1.6609
  159SAPE  H13S17768   5.043   0.522   7.260  2.2062  0.6462 -1.6038
  159SAPE  C21417769   4.924   0.626   7.392  0.1697 -0.6566 -0.0227
  159SAPE  H14R17770   4.845   0.693   7.354  0.4264 -0.4976 -0.2736
  159SAPE  C21517771   4.906   0.575   7.515 -1.2742 -0.1902  0.2044
  159SAPE  H15R17772   4.809   0.585   7.567 -1.2835  2.9260 -0.1720
  159SAPE  C21617773   5.005   0.495   7.594 -0.0950 -0.3973 -0.0128
  159SAPE  H16R17774   5.101   0.489   7.538  1.0952 -1.0342  2.0078
  159SAPE  H16S17775   4.984   0.388   7.615 -0.1542 -0.0417  1.8493
  159SAPE  C21717776   5.059   0.555   7.729 -0.3001 -0.2303  0.5551
  159SAPE  H17R17777   5.152   0.504   7.763  0.3587  0.9898  0.6722
  159SAPE  H17S17778   4.982   0.556   7.809 -0.3247 -0.5656  0.5354
  159SAPE  C21817779   5.103   0.700   7.709  0.0355 -0.3892 -0.3610
  159SAPE  H18R17780   5.016   0.767   7.691  1.0316  1.0271 -0.0678
  159SAPE  H18S17781   5.167   0.719   7.620  0.2468 -0.0135 -0.1314
  159SAPE  C21917782   5.173   0.764   7.833 -0.2782 -0.0699 -0.2237
  159SAPE  H19R17783   5.188   0.874   7.829 -0.8585  0.2236  2.9861
  159SAPE  H19S17784   5.279   0.729   7.839  0.7327  2.2298 -2.5424
  159SAPE  C22017785   5.111   0.736   7.973  0.3272  0.1621  0.0951
  159SAPE  H20R17786   5.161   0.799   8.050  3.4838 -0.5677 -1.2457
  159SAPE  H20S17787   5.111   0.630   8.005 -1.6645 -0.0275 -0.3781
  159SAPE  H20T17788   5.002   0.757   7.987  0.2068  0.2866 -0.9353
  159SAPE   C3317789   5.548   0.342   6.473 -0.2548  0.0733 -0.3431
  159SAPE   H3X17790   5.457   0.401   6.497 -1.1623 -0.6888 -1.7264
  159SAPE   H3Y17791   5.590   0.329   6.575  1.6361 -0.6144 -1.1750
  159SAPE   C3417792   5.512   0.203   6.412  0.5429  0.8453 -0.3664
  159SAPE   H4X17793   5.604   0.161   6.368  0.3081  0.2615 -0.3128
  159SAPE   H4Y17794   5.437   0.209   6.331 -0.4524 -1.6045  0.2894
  159SAPE   C3517795   5.453   0.092   6.512 -0.6738  0.4987 -0.6354
  159SAPE   H5X17796   5.529   0.053   6.583 -2.2509  0.3119  1.0341
  159SAPE   H5Y17797   5.433   0.007   6.443  1.7321 -1.4880  0.9442
  159SAPE   C3617798   5.332   0.135   6.590 -0.8701 -0.5719  0.1980
  159SAPE   H6X17799   5.254   0.056   6.597 -1.1647 -0.1775  1.5999
  159SAPE   H6Y17800   5.280   0.206   6.522  0.2280 -1.5151 -1.7021
  159SAPE   C3717801   5.366   0.196   6.729 -0.0189 -0.2151  0.0094
  159SAPE   H7X17802   5.410   0.297   6.717 -1.5868  0.5113  0.1427
  159SAPE   H7Y17803   5.446   0.135   6.776  0.2535  0.1942  0.0799
  159SAPE   C3817804   5.247   0.190   6.830  0.1329  0.2161 -0.3903
  159SAPE   H8X17805   5.212   0.085   6.835 -1.5741  0.6958 -1.4974
  159SAPE   H8Y17806   5.165   0.249   6.783  0.2322 -0.5256 -1.5362
  159SAPE   C3917807   5.288   0.239   6.970 -0.0274  0.2205  0.0667
  159SAPE   H9X17808   5.283   0.350   6.972 -2.7543  0.1797  1.2549
  159SAPE   H9Y17809   5.392   0.209   6.994 -0.5170 -0.6489  1.1652
  159SAPE  C31017810   5.207   0.174   7.080  0.1908 -0.1730  0.6203
  159SAPE  H10X17811   5.228   0.067   7.057 -1.5707 -0.3022 -0.5964
  159SAPE  H10Y17812   5.101   0.203   7.063  0.0772 -0.4279  0.8855
  159SAPE  C31117813   5.258   0.214   7.217  0.3262  0.5086  0.3365
  159SAPE  H11X17814   5.229   0.318   7.242  1.8089  1.3547 -1.2874
  159SAPE  H11Y17815   5.368   0.220   7.210  0.1559  2.3556 -2.5738
  159SAPE  C31217816   5.208   0.134   7.335 -0.3967  0.7178  0.4012
  159SAPE  H12X17817   5.257   0.036   7.323 -0.6257  0.8781 -2.4784
  159SAPE  H12Y17818   5.099   0.114   7.328  0.2940 -4.7078  0.9363
  159SAPE  C31317819   5.244   0.193   7.466  0.1389  0.5868 -0.1577
  159SAPE  H13X17820   5.237   0.303   7.472  2.8300  0.8956 -1.3870
  159SAPE  H13Y17821   5.350   0.171   7.491  0.0556  0.3488 -0.0050
  159SAPE  C31417822   5.161   0.127   7.575  0.2675  0.3740  0.0946
  159SAPE  H14X17823   5.146   0.019   7.553  0.2180  0.0093  1.7512
  159SAPE  H14Y17824   5.059   0.171   7.571 -0.8268 -2.0510 -1.2209
  159SAPE  C31517825   5.235   0.137   7.707 -0.6487  0.0651  0.2251
  159SAPE  H15X17826   5.219   0.242   7.737 -1.1723 -0.0624  0.4018
  159SAPE  H15Y17827   5.343   0.111   7.705 -0.6533 -0.9814  4.7383
  159SAPE  C31617828   5.169   0.034   7.804 -0.0976  0.2894 -0.2556
  159SAPE  H16X17829   5.169  -0.067   7.758  3.5563 -1.2882  2.7154
  159SAPE  H16Y17830   5.063   0.062   7.820  0.1864  1.4884 -0.4003
  159SAPE  C31717831   5.241   0.024   7.936  0.5247  0.0733 -0.5878
  159SAPE  H17X17832   5.188  -0.045   8.005  0.9563 -0.9775 -1.2827
  159SAPE  H17Y17833   5.243   0.123   7.986  3.6266 -0.2648  0.1653
  159SAPE  C31817834   5.383  -0.020   7.930  0.5106 -0.1442  0.2456
  159SAPE  H18X17835   5.398  -0.107   7.864  2.8184  0.0115  0.4588
  159SAPE  H18Y17836   5.419  -0.056   8.029  0.7766  0.3643  0.3419
  159SAPE  H18Z17837   5.448   0.063   7.894 -1.8283  0.9523 -1.7297
  160SAPE     N17838   5.551   4.332   6.257  0.3599 -0.3745 -0.2103
  160SAPE   HN117839   5.553   4.416   6.319  2.9229  0.5549 -1.4069
  160SAPE   HN217840   5.616   4.351   6.178  0.2591  1.0746  0.0324
  160SAPE   HN317841   5.453   4.342   6.224  0.2947  1.1873  0.3364
  160SAPE   C1217842   5.586   4.227   6.354 -0.9673 -0.4928  0.2560
  160SAPE  H12A17843   5.691   4.248   6.382 -1.5558  2.7529  0.3740
  160SAPE  H12B17844   5.576   4.128   6.304 -0.9360 -0.2730 -0.1935
  160SAPE   C1117845   5.518   4.247   6.492 -1.0092  0.0257  0.9990
  160SAPE  H11A17846   5.550   4.341   6.542  1.4635  1.9371 -3.5739
  160SAPE  H11B17847   5.561   4.164   6.553 -1.1919 -0.5529  0.3500
  160SAPE     P17848   5.286   4.115   6.460  0.2851  0.0350  0.3046
  160SAPE   O1317849   5.143   4.147   6.476 -0.5062 -0.8238 -0.6887
  160SAPE   O1417850   5.331   4.067   6.327 -0.0414  0.3039 -0.6011
  160SAPE   O1217851   5.378   4.236   6.495 -0.2001  0.8081  0.0573
  160SAPE   O1117852   5.327   4.013   6.575  0.0697 -0.1525 -0.1391
  160SAPE    C117853   5.315   4.052   6.714 -0.0775 -0.2822  0.1818
  160SAPE    HA17854   5.372   3.985   6.781 -2.2824  0.1670  2.6400
  160SAPE    HB17855   5.356   4.155   6.721 -1.3690  0.3090 -0.5274
  160SAPE    C217856   5.167   4.054   6.757  0.2810  0.8195  0.1497
  160SAPE    HS17857   5.117   4.135   6.700 -1.6569 -0.9085 -0.7189
  160SAPE   O2117858   5.165   4.059   6.898  0.4367  0.3460  0.0938
  160SAPE   C2117859   5.078   4.150   6.951 -0.4053  0.1799  0.3657
  160SAPE   O2217860   4.999   4.223   6.892 -0.0274 -0.1530 -0.3211
  160SAPE   C2217861   5.079   4.156   7.099  0.4737 -0.3670 -1.2952
  160SAPE   H2R17862   5.181   4.127   7.133  0.1422  0.0152  0.0784
  160SAPE   H2S17863   5.067   4.265   7.117  2.1688 -0.0843 -1.7601
  160SAPE    C317864   5.101   3.924   6.717  0.3057  0.1730  0.8202
  160SAPE    HX17865   5.159   3.841   6.762 -1.4443 -1.2385  0.6109
  160SAPE    HY17866   5.103   3.903   6.608 -0.7381 -0.2847  0.8767
  160SAPE   O3117867   4.966   3.919   6.770 -0.3880  0.0393 -0.2044
  160SAPE   C3117868   4.871   3.882   6.680  0.3039 -0.4576 -0.1392
  160SAPE   O3217869   4.896   3.864   6.562 -0.4174  0.1149  0.0691
  160SAPE   C3217870   4.724   3.896   6.740 -0.2268  0.1365 -0.0089
  160SAPE   H2X17871   4.659   3.817   6.696  2.0690 -0.7702 -2.0096
  160SAPE   H2Y17872   4.695   3.996   6.701  0.6089  1.1193  1.7511
  160SAPE   C2317873   5.005   4.040   7.166  0.2873  0.1012 -0.0243
  160SAPE   H3R17874   5.033   3.947   7.112  0.2887 -0.5901  1.1346
  160SAPE   H3S17875   4.895   4.053   7.160  0.1140 -0.5733  1.3037
  160SAPE   C2417876   5.039   4.018   7.315 -0.3328 -0.2851  0.4591
  160SAPE   H4R17877   5.147   4.011   7.340 -0.5671 -1.6035  1.2338
  160SAPE   H4S17878   4.998   3.919   7.345  0.9488 -0.8688  0.3369
  160SAPE   C2517879   4.985   4.133   7.404  0.1416  0.4156  0.0230
  160SAPE   H5R17880   5.015   4.230   7.362 -2.2487  0.6432 -1.3333
  160SAPE   C2617881   4.912   4.131   7.518 -0.1846 -0.0100  0.3072
  160SAPE   H6R17882   4.876   4.227   7.558 -1.0841 -0.4035  0.4779
  160SAPE   C2717883   4.857   4.009   7.580  0.4851  0.0408 -0.9375
  160SAPE   H7R17884   4.939   3.935   7.592  0.4117  0.1097  0.1202
  160SAPE   H7S17885   4.787   3.959   7.510  0.7297  0.8756 -1.7984
  160SAPE   C2817886   4.793   4.021   7.717 -0.4728 -0.0017 -0.3034
  160SAPE   H8R17887   4.802   4.118   7.767 -1.1192  0.0889 -0.3449
  160SAPE   C2917888   4.731   3.917   7.771 -0.6558 -0.0048 -0.6708
  160SAPE   H9R17889   4.675   3.936   7.864  0.4391  0.7862 -0.1513
  160SAPE  C21017890   4.704   3.773   7.730  0.5120  0.0318  0.2404
  160SAPE  H10R17891   4.720   3.761   7.620  1.6129  0.9125  0.2842
  160SAPE  H10S17892   4.594   3.769   7.741  0.4226  0.4610 -0.4163
  160SAPE  C21117893   4.775   3.662   7.799  0.0025  0.0003 -0.4341
  160SAPE  H11R17894   4.843   3.604   7.735 -0.1886 -1.1996  0.4232
  160SAPE  C21217895   4.750   3.612   7.924 -0.3198  0.2079  1.2470
  160SAPE  H12R17896   4.819   3.541   7.973 -0.9853 -0.6454  0.9658
  160SAPE  C21317897   4.644   3.671   8.014 -0.5325 -0.1424 -0.8955
  160SAPE  H13R17898   4.541   3.664   7.972  0.2607 -1.3678 -2.7251
  160SAPE  H13S17899   4.663   3.781   8.015 -0.0292 -0.1799 -2.7752
  160SAPE  C21417900   4.631   3.615   8.158  0.0857 -0.2622 -0.8850
  160SAPE  H14R17901   4.653   3.684   8.241 -1.2221  0.2759 -0.9707
  160SAPE  C21517902   4.584   3.493   8.204 -0.0901 -0.3957 -0.1848
  160SAPE  H15R17903   4.582   3.478   8.313 -0.7278 -0.7594 -0.2398
  160SAPE  C21617904   4.537   3.379   8.116  0.4427 -0.4131  0.2959
  160SAPE  H16R17905   4.599   3.287   8.125  0.6582 -0.1973  1.1269
  160SAPE  H16S17906   4.539   3.408   8.009  1.6747 -0.5532  0.2653
  160SAPE  C21717907   4.394   3.330   8.163 -0.1716 -0.0899 -0.6653
  160SAPE  H17R17908   4.398   3.279   8.261 -1.5140 -0.0046 -0.5488
  160SAPE  H17S17909   4.369   3.248   8.091 -0.0902 -1.1896  0.5314
  160SAPE  C21817910   4.286   3.441   8.156 -0.4070 -0.4494  0.4205
  160SAPE  H18R17911   4.289   3.504   8.065  2.8746  0.7887  1.2500
  160SAPE  H18S17912   4.310   3.506   8.242  0.4707 -1.2853  0.8269
  160SAPE  C21917913   4.141   3.379   8.168  0.4937 -0.2494  0.6106
  160SAPE  H19R17914   4.124   3.343   8.064  0.8321  2.0081 -0.2838
  160SAPE  H19S17915   4.067   3.460   8.185  0.9174  0.4112 -0.5867
  160SAPE  C22017916   4.110   3.267   8.272  0.2006  0.3818 -0.1901
  160SAPE  H20R17917   4.001   3.258   8.287  0.0085  0.7901 -1.3045
  160SAPE  H20S17918   4.156   3.284   8.372 -0.6736 -2.0285  0.7036
  160SAPE  H20T17919   4.161   3.174   8.237  0.3906  1.0850 -1.8393
  160SAPE   C3317920   4.720   3.899   6.892 -0.1343 -0.6011  0.3034
  160SAPE   H3X17921   4.623   3.941   6.927 -0.3623  0.3886 -1.4406
  160SAPE   H3Y17922   4.799   3.972   6.922  1.5369 -2.2255  0.0051
  160SAPE   C3417923   4.740   3.766   6.954  0.6643  0.4780 -0.2790
  160SAPE   H4X17924   4.837   3.727   6.915  0.8361  1.1876 -0.5708
  160SAPE   H4Y17925   4.654   3.705   6.919  0.1574 -0.1629  1.9813
  160SAPE   C3517926   4.740   3.769   7.107  0.0587 -0.2141  0.2738
  160SAPE   H5X17927   4.804   3.847   7.153  1.6904 -0.8242 -0.8578
  160SAPE   H5Y17928   4.779   3.671   7.141 -2.5255 -1.0766  1.0221
  160SAPE   C3617929   4.601   3.795   7.169  0.2746  0.7559  0.1828
  160SAPE   H6X17930   4.532   3.755   7.092  1.0793  0.6319 -0.4901
  160SAPE   H6Y17931   4.577   3.903   7.171 -2.7645  0.2203 -1.1081
  160SAPE   C3717932   4.585   3.749   7.315  0.1232  0.8467 -0.1140
  160SAPE   H7X17933   4.650   3.808   7.383  1.5753 -0.0901 -0.6502
  160SAPE   H7Y17934   4.614   3.642   7.314  1.0495  1.0870  0.0430
  160SAPE   C3817935   4.440   3.762   7.361 -0.4485 -0.8261 -0.0983
  160SAPE   H8X17936   4.411   3.704   7.451 -0.1203 -0.8810 -0.0276
  160SAPE   H8Y17937   4.371   3.714   7.287  0.4378 -1.8689 -0.2792
  160SAPE   C3917938   4.396   3.912   7.380  0.4286 -0.2141 -0.2644
  160SAPE   H9X17939   4.404   3.967   7.284 -1.8901  0.0484 -0.3602
  160SAPE   H9Y17940   4.470   3.961   7.447  0.5069 -1.2461  0.4206
  160SAPE  C31017941   4.256   3.921   7.443 -0.5852 -0.3687  0.0061
  160SAPE  H10X17942   4.185   3.858   7.386  0.7338 -0.5888 -1.4839
  160SAPE  H10Y17943   4.215   4.023   7.435 -1.8941 -0.6801  2.0303
  160SAPE  C31117944   4.255   3.871   7.592  0.0897  0.6710 -0.1095
  160SAPE  H11X17945   4.343   3.913   7.647 -0.1068  0.9462 -0.0020
  160SAPE  H11Y17946   4.265   3.761   7.604 -2.1869  0.6451  3.2216
  160SAPE  C31217947   4.134   3.920   7.672  0.0626  0.2909 -0.0094
  160SAPE  H12X17948   4.047   3.865   7.630  2.5626 -1.4637 -3.4059
  160SAPE  H12Y17949   4.121   4.027   7.648 -0.3079  0.1456 -0.4705
  160SAPE  C31317950   4.132   3.890   7.825 -0.0974  0.0446 -0.0330
  160SAPE  H13X17951   4.204   3.953   7.882  0.3879 -0.9594  0.4824
  160SAPE  H13Y17952   4.185   3.794   7.839  0.5140  0.5622  1.4462
  160SAPE  C31417953   3.987   3.893   7.882 -0.5917  0.3300 -0.2493
  160SAPE  H14X17954   3.930   3.827   7.814  2.7100 -0.9958 -1.8988
  160SAPE  H14Y17955   3.955   3.999   7.867  0.3466  0.4410 -1.5376
  160SAPE  C31517956   3.956   3.845   8.028  0.5480  0.4646  0.4765
  160SAPE  H15X17957   3.984   3.738   8.022 -0.1892  0.2738  0.3980
  160SAPE  H15Y17958   3.847   3.854   8.048  0.2734  0.6361 -0.9652
  160SAPE  C31617959   4.047   3.905   8.136 -0.3243 -0.1161 -0.2003
  160SAPE  H16X17960   4.020   4.011   8.158  1.3741 -0.2089  3.0601
  160SAPE  H16Y17961   4.152   3.896   8.102 -0.0613 -1.2322  0.8352
  160SAPE  C31717962   4.025   3.821   8.264  0.0435 -0.3211  0.2436
  160SAPE  H17X17963   4.041   3.717   8.228 -2.2153 -0.8778  0.7123
  160SAPE  H17Y17964   3.922   3.822   8.307  0.7800 -2.0579  2.1751
  160SAPE  C31817965   4.130   3.854   8.378  0.0843  0.1919 -0.1901
  160SAPE  H18X17966   4.133   3.771   8.453 -1.2437  0.0773 -0.2433
  160SAPE  H18Y17967   4.096   3.948   8.426 -0.8578  0.6278 -1.6494
  160SAPE  H18Z17968   4.234   3.868   8.342 -0.1800  0.9508 -0.6832
  161SOPE     N17969   4.075   4.753  10.700 -0.2515 -0.2907 -0.8873
  161SOPE   HN117970   4.142   4.823  10.738 -1.3554 -0.6897  2.0362
  161SOPE   HN217971   4.004   4.721  10.769  0.7787 -0.3819  0.1733
  161SOPE   HN317972   4.120   4.661  10.679 -0.5934 -0.0360 -2.9689
  161SOPE   C1217973   4.009   4.792  10.570 -0.6752  1.0320 -0.2213
  161SOPE  H12A17974   3.908   4.744  10.568  0.4303 -1.3956 -1.2165
  161SOPE  H12B17975   4.080   4.760  10.491  0.9815  1.0447  1.2010
  161SOPE   C1117976   3.982   4.945  10.565 -0.0896  0.6386 -0.4947
  161SOPE  H11A17977   3.939   4.985  10.471  1.1427  0.0284 -1.3523
  161SOPE  H11B17978   4.079   4.999  10.573 -0.6281  1.6611 -0.6713
  161SOPE     P17979   3.761   5.016  10.684 -0.3300  0.0997  0.0018
  161SOPE   O1317980   3.719   5.057  10.819 -0.1311  0.0410 -0.2185
  161SOPE   O1417981   3.696   4.893  10.639 -0.4273  0.0781  0.1915
  161SOPE   O1217982   3.917   4.989  10.679  0.0372  0.1964  0.1039
  161SOPE   O1117983   3.726   5.130  10.580 -0.1575  0.6436 -0.0761
  161SOPE    C117984   3.594   5.161  10.526  0.1769 -0.4462 -0.3266
  161SOPE    HA17985   3.538   5.210  10.608  1.6550 -1.8162  1.6172
  161SOPE    HB17986   3.536   5.068  10.509  1.5293 -0.9865 -2.3851
  161SOPE    C217987   3.600   5.256  10.407 -1.1962  0.5673  0.2308
  161SOPE    HS17988   3.505   5.313  10.394 -0.6981  1.4318  0.3179
  161SOPE   O2117989   3.641   5.184  10.291 -0.1797  0.4050  0.3418
  161SOPE   C2117990   3.548   5.115  10.239 -0.2386  1.1596  1.0963
  161SOPE   O2217991   3.435   5.104  10.280 -0.0680 -0.8353  0.0158
  161SOPE   C2217992   3.597   5.052  10.110  0.5587 -0.1689 -0.1397
  161SOPE   H2R17993   3.621   4.944  10.124 -2.4103 -1.0374 -1.0036
  161SOPE   H2S17994   3.687   5.107  10.075  0.0070  0.5518 -0.4440
  161SOPE    C317995   3.700   5.384  10.420 -1.1008  0.2883 -0.1916
  161SOPE    HX17996   3.802   5.339  10.417 -0.9646  0.5867 -0.0442
  161SOPE    HY17997   3.687   5.444  10.512 -2.0942  1.7069 -1.2189
  161SOPE   O3117998   3.698   5.476  10.308 -0.3758  0.8072 -0.2931
  161SOPE   C3117999   3.606   5.573  10.319  0.1823  0.3555 -0.4282
  161SOPE   O3218000   3.509   5.561  10.384 -0.0891  0.3344  0.1011
  161SOPE   C3218001   3.651   5.695  10.232  0.3623  0.6444 -0.1177
  161SOPE   H2X18002   3.757   5.694  10.200  0.4818 -1.8429  0.1913
  161SOPE   H2Y18003   3.628   5.779  10.301  0.4204  1.1256 -0.6789
  161SOPE   C2318004   3.484   5.043  10.006  0.2148 -0.3041 -0.0572
  161SOPE   H3R18005   3.457   5.147   9.976  1.2431 -0.0918 -0.2875
  161SOPE   H3S18006   3.391   4.997  10.046  0.9687 -2.2244 -0.4165
  161SOPE   C2418007   3.519   4.975   9.874  0.2164 -0.4729 -0.0301
  161SOPE   H4R18008   3.624   5.006   9.855 -0.4457 -0.6006 -5.0759
  161SOPE   H4S18009   3.521   4.864   9.883  0.1794 -0.4259  0.6052
  161SOPE   C2518010   3.440   5.026   9.753 -0.1669  0.7823  0.6736
  161SOPE   H5R18011   3.331   5.006   9.755 -0.5826  2.7738  0.1073
  161SOPE   H5S18012   3.454   5.136   9.749 -1.0333  0.9351  1.5624
  161SOPE   C2618013   3.507   4.962   9.627  0.1218  0.2475  0.2468
  161SOPE   H6R18014   3.617   4.968   9.641  0.6236  0.4014 -3.0468
  161SOPE   H6S18015   3.480   4.855   9.612  1.5250 -0.0418 -0.2996
  161SOPE   C2718016   3.476   5.049   9.505  0.5388 -0.1006 -0.3574
  161SOPE   H7R18017   3.369   5.035   9.479  0.6307  0.8261 -1.3087
  161SOPE   H7S18018   3.497   5.157   9.518  1.8283 -0.2160 -1.2995
  161SOPE   C2818019   3.559   5.023   9.386 -0.3204 -0.1413  0.1808
  161SOPE   H8R18020   3.536   5.103   9.312  0.1936 -0.0148  0.1534
  161SOPE   H8S18021   3.665   5.035   9.418 -0.1838 -0.5407 -0.1175
  161SOPE   C2918022   3.530   4.884   9.337 -0.8362  0.1699 -0.4979
  161SOPE   H9118023   3.595   4.809   9.385  0.1355  0.1768 -1.7390
  161SOPE  C21018024   3.445   4.842   9.241 -0.2771 -0.2001  0.0056
  161SOPE  H10118025   3.430   4.736   9.215 -1.7169 -0.0203 -0.0124
  161SOPE  C21118026   3.347   4.924   9.163  0.6187  0.0363  0.6254
  161SOPE  H11R18027   3.331   5.010   9.232  0.7540 -2.0423  3.4129
  161SOPE  H11S18028   3.244   4.883   9.152  0.7251  0.3383 -2.3123
  161SOPE  C21218029   3.404   4.961   9.025  0.2773  0.5112 -0.3008
  161SOPE  H12R18030   3.419   4.871   8.962 -0.2349 -0.3661  0.7898
  161SOPE  H12S18031   3.493   5.024   9.048 -0.7315  1.1311  2.2247
  161SOPE  C21318032   3.294   5.034   8.947 -0.5818 -0.0096  0.0753
  161SOPE  H13R18033   3.284   5.136   8.990  1.3058 -0.0482  0.6574
  161SOPE  H13S18034   3.194   4.984   8.952 -1.8830  2.1109 -2.3266
  161SOPE  C21418035   3.337   5.052   8.801  0.5749  0.3882 -0.1533
  161SOPE  H14R18036   3.337   4.954   8.749  0.4646  0.6730 -0.6978
  161SOPE  H14S18037   3.442   5.086   8.795  0.1793  1.4189 -2.4170
  161SOPE  C21518038   3.256   5.153   8.723 -0.1689  0.2394  0.2842
  161SOPE  H15R18039   3.311   5.183   8.631  1.2945 -0.7244  0.8098
  161SOPE  H15S18040   3.233   5.242   8.785 -1.8071  0.2437 -0.2865
  161SOPE  C21618041   3.136   5.087   8.670 -0.1437 -0.1717 -0.6134
  161SOPE  H16R18042   3.090   5.013   8.739 -1.2037 -0.4206 -1.5422
  161SOPE  H16S18043   3.152   5.031   8.575  1.0610 -1.4927  0.3385
  161SOPE  C21718044   3.039   5.199   8.626 -0.1057 -0.2657 -0.2641
  161SOPE  H17R18045   3.082   5.277   8.559  0.4764  0.4845  0.9512
  161SOPE  H17S18046   3.010   5.248   8.721  0.5728 -0.6575  0.1473
  161SOPE  C21818047   2.915   5.147   8.559  0.4682 -0.0104  0.6750
  161SOPE  H18R18048   2.942   5.090   8.467  1.2971 -0.6500  1.3008
  161SOPE  H18S18049   2.852   5.237   8.539 -0.2283 -0.8937 -1.4942
  161SOPE  H18T18050   2.861   5.080   8.630 -0.2139 -0.0175  0.1686
  161SOPE   C3318051   3.568   5.722  10.097 -0.3321  0.2981 -0.0774
  161SOPE   H3X18052   3.458   5.703  10.101 -0.4799  1.2949  0.8758
  161SOPE   H3Y18053   3.601   5.649  10.019 -1.4921 -2.2878  1.6839
  161SOPE   C3418054   3.594   5.865  10.055  0.0236 -0.9205 -0.1467
  161SOPE   H4X18055   3.703   5.879  10.074 -0.1269  2.5277 -1.1322
  161SOPE   H4Y18056   3.540   5.926  10.131 -2.3981 -3.6996  0.5181
  161SOPE   C3518057   3.550   5.901   9.912  0.4671  0.0151  0.1317
  161SOPE   H5X18058   3.503   6.001   9.917  0.5692  0.0139  1.8463
  161SOPE   H5Y18059   3.469   5.830   9.884  0.4863  0.1876 -0.3725
  161SOPE   C3618060   3.659   5.889   9.808  0.8088  0.0636 -0.1700
  161SOPE   H6X18061   3.700   5.787   9.822  0.2124 -0.5143 -2.2913
  161SOPE   H6Y18062   3.742   5.953   9.846 -0.9217  0.9313  2.4240
  161SOPE   C3718063   3.620   5.899   9.663 -0.0858  0.1402 -0.2296
  161SOPE   H7X18064   3.533   5.968   9.654 -1.2259 -0.9609  1.6361
  161SOPE   H7Y18065   3.578   5.800   9.637 -0.9976  0.2716  0.6792
  161SOPE   C3818066   3.732   5.942   9.569 -0.5954 -0.0755  0.1828
  161SOPE   H8X18067   3.812   5.866   9.567 -0.4135  0.1113  0.3467
  161SOPE   H8Y18068   3.782   6.035   9.602 -0.5878  0.5251 -1.4392
  161SOPE   C3918069   3.663   5.970   9.433  0.3622  0.0756  0.5589
  161SOPE   H9X18070   3.589   6.053   9.441 -0.2685 -0.3050 -0.9375
  161SOPE   H9Y18071   3.615   5.876   9.399  2.1457 -1.0622  1.0277
  161SOPE  C31018072   3.756   6.015   9.319  0.2216 -0.4333  0.3496
  161SOPE  H10X18073   3.805   6.108   9.357 -2.0367  1.8828 -2.0098
  161SOPE  H10Y18074   3.695   6.033   9.228  0.7183  0.6571  0.2122
  161SOPE  C31118075   3.862   5.912   9.277 -0.3906 -0.0412 -0.3795
  161SOPE  H11X18076   3.821   5.809   9.276  1.2954 -0.7426 -0.2276
  161SOPE  H11Y18077   3.937   5.910   9.360 -1.0984 -0.2516  0.2705
  161SOPE  C31218078   3.916   5.952   9.135  0.0849  0.1196  0.2914
  161SOPE  H12X18079   3.944   6.056   9.109 -1.0668 -0.2993 -3.1861
  161SOPE  H12Y18080   3.824   5.953   9.072  0.5012 -2.4734 -0.4760
  161SOPE  C31318081   4.008   5.849   9.074  1.1801 -0.6694 -0.0315
  161SOPE  H13X18082   3.961   5.749   9.067  1.9007 -1.2526  2.3475
  161SOPE  H13Y18083   4.093   5.838   9.145 -0.9504  0.2962  2.8438
  161SOPE  C31418084   4.067   5.887   8.932  0.2042 -0.0348 -0.2514
  161SOPE  H14X18085   4.138   5.972   8.933  2.6434 -1.8501 -2.7490
  161SOPE  H14Y18086   3.994   5.908   8.851 -0.5477 -0.2510  0.3553
  161SOPE  C31518087   4.160   5.773   8.881 -0.1809 -0.6687  0.1132
  161SOPE  H15X18088   4.108   5.678   8.905 -1.0943  0.0486  1.0753
  161SOPE  H15Y18089   4.254   5.772   8.940 -0.1435  0.1271  0.0742
  161SOPE  C31618090   4.185   5.791   8.729  0.7100 -0.9387 -0.3580
  161SOPE  H16X18091   4.084   5.817   8.690 -0.4686 -2.5881  1.3989
  161SOPE  H16Y18092   4.210   5.688   8.694  1.8189 -0.4544 -1.0193
  161SOPE  C31718093   4.298   5.881   8.691  0.0468  0.3698 -0.4239
  161SOPE  H17X18094   4.389   5.834   8.735 -0.4834 -0.0502  0.2480
  161SOPE  H17Y18095   4.295   5.984   8.732  1.5927  0.1403  0.3723
  161SOPE  C31818096   4.335   5.883   8.543  0.2075 -0.3503  0.1856
  161SOPE  H18X18097   4.250   5.915   8.479 -1.5821 -2.1307  1.5519
  161SOPE  H18Y18098   4.377   5.786   8.508  2.1635  0.4674  0.1053
  161SOPE  H18Z18099   4.416   5.959   8.543  0.4425 -0.5582 -1.7769
  162SOPE     N18100   1.405   6.794  10.873  0.8001 -0.0733 -0.1672
  162SOPE   HN118101   1.321   6.811  10.932  0.6835  1.0432 -0.6254
  162SOPE   HN218102   1.495   6.810  10.924  0.4187  0.6072  0.3064
  162SOPE   HN318103   1.402   6.850  10.786 -0.8476 -1.1189 -0.8302
  162SOPE   C1218104   1.404   6.645  10.855  0.4011  0.4712 -0.6065
  162SOPE  H12A18105   1.313   6.619  10.798 -0.1513  0.3134  0.3394
  162SOPE  H12B18106   1.377   6.604  10.954  1.0024  0.2183 -0.5381
  162SOPE   C1118107   1.531   6.578  10.806 -0.0750  0.5460  0.2660
  162SOPE  H11A18108   1.564   6.623  10.710  1.1072  5.7718  2.7837
  162SOPE  H11B18109   1.522   6.467  10.796  1.3778  0.5689 -2.1293
  162SOPE     P18110   1.702   6.493  10.989 -0.3479 -0.0639  0.4170
  162SOPE   O1318111   1.617   6.502  11.110 -0.0652 -0.0829  0.5771
  162SOPE   O1418112   1.847   6.514  11.011 -0.5440  0.2892 -0.1156
  162SOPE   O1218113   1.637   6.595  10.892 -0.8698  0.0319 -0.2398
  162SOPE   O1118114   1.677   6.346  10.935  0.2823 -0.4055  0.1046
  162SOPE    C118115   1.787   6.272  10.888  0.1555 -1.2448  0.0234
  162SOPE    HA18116   1.764   6.163  10.893 -0.7350 -1.0451  0.5292
  162SOPE    HB18117   1.874   6.294  10.953  0.6856  4.4111 -2.0328
  162SOPE    C218118   1.818   6.298  10.737 -0.4489  0.1515  0.0337
  162SOPE    HS18119   1.839   6.406  10.749 -0.6811  0.2455 -0.3790
  162SOPE   O2118120   1.698   6.267  10.661  0.0622  0.5240  0.1630
  162SOPE   C2118121   1.674   6.355  10.564  0.4842  0.5946 -0.1334
  162SOPE   O2218122   1.751   6.432  10.514 -0.8249 -0.3505  0.4575
  162SOPE   C2218123   1.532   6.344  10.508 -0.2181  0.3358 -0.9319
  162SOPE   H2R18124   1.465   6.411  10.566 -0.4282 -1.1438  0.6005
  162SOPE   H2S18125   1.491   6.245  10.539 -1.1877  1.1079  0.3246
  162SOPE    C318126   1.935   6.200  10.686 -0.0587  0.4632  0.2138
  162SOPE    HX18127   1.907   6.102  10.730 -0.5852  0.5226  0.0144
  162SOPE    HY18128   2.027   6.228  10.741  0.2205 -1.6519  0.9269
  162SOPE   O3118129   1.958   6.197  10.544 -0.0036  0.0390  0.1047
  162SOPE   C3118130   1.898   6.108  10.466 -0.5128 -0.1027  0.2472
  162SOPE   O3218131   1.824   6.017  10.502 -0.1948  0.0374 -0.1947
  162SOPE   C3218132   1.941   6.146  10.327 -0.3641  0.0375 -0.0420
  162SOPE   H2X18133   2.052   6.140  10.321 -0.3430 -0.1423  0.5200
  162SOPE   H2Y18134   1.913   6.250  10.301 -0.0167  0.5916  1.6954
  162SOPE   C2318135   1.525   6.384  10.363 -0.0066  0.5728 -0.6228
  162SOPE   H3R18136   1.550   6.492  10.355 -0.1841  0.7800  1.1609
  162SOPE   H3S18137   1.420   6.378  10.327  0.1968  2.6044 -1.6840
  162SOPE   C2418138   1.604   6.293  10.269  0.2774  0.1941 -0.1201
  162SOPE   H4R18139   1.709   6.329  10.267  0.7537 -1.1146  0.3940
  162SOPE   H4S18140   1.608   6.183  10.283 -0.4982  0.1589 -0.1466
  162SOPE   C2518141   1.549   6.326  10.126  0.0751 -0.0444 -0.8345
  162SOPE   H5R18142   1.443   6.293  10.126  0.3871 -1.1122  0.0114
  162SOPE   H5S18143   1.566   6.435  10.114  2.2665 -0.0851  1.2424
  162SOPE   C2618144   1.612   6.229  10.022 -0.3249  0.0708 -0.1825
  162SOPE   H6R18145   1.723   6.233  10.013 -0.1237 -3.7677 -1.5465
  162SOPE   H6S18146   1.599   6.124  10.057  3.1633 -0.7586 -0.9035
  162SOPE   C2718147   1.551   6.238   9.883 -0.0574  0.2053 -0.2841
  162SOPE   H7R18148   1.441   6.219   9.881 -0.0288  0.0653 -2.2757
  162SOPE   H7S18149   1.569   6.340   9.844  1.2649 -0.6021 -1.8884
  162SOPE   C2818150   1.606   6.132   9.788 -0.3948 -0.4694  0.8822
  162SOPE   H8R18151   1.716   6.140   9.775 -0.4185 -0.8146  0.4336
  162SOPE   H8S18152   1.586   6.031   9.829  0.5003 -0.9756  0.1194
  162SOPE   C2918153   1.537   6.149   9.655 -0.0319 -0.3211 -0.0092
  162SOPE   H9118154   1.518   6.253   9.626  0.6581 -0.1109  0.2649
  162SOPE  C21018155   1.488   6.057   9.569  0.0762 -0.8531  0.4599
  162SOPE  H10118156   1.430   6.094   9.483  2.7415  1.7405 -0.4028
  162SOPE  C21118157   1.489   5.908   9.594 -0.3137 -0.6558  0.4797
  162SOPE  H11R18158   1.475   5.875   9.699  0.0407  0.0103  0.7448
  162SOPE  H11S18159   1.584   5.862   9.560 -0.5983 -0.8208 -0.1175
  162SOPE  C21218160   1.383   5.841   9.511 -0.0551  0.2940 -0.3537
  162SOPE  H12R18161   1.277   5.869   9.528 -0.6147 -1.5604 -0.5734
  162SOPE  H12S18162   1.379   5.735   9.541 -1.7042 -0.0811 -1.7415
  162SOPE  C21318163   1.408   5.846   9.360 -0.6754 -0.6304 -0.1686
  162SOPE  H13R18164   1.503   5.788   9.361 -2.1085 -3.2127  1.8417
  162SOPE  H13S18165   1.413   5.952   9.327  1.3118 -0.0802  1.6238
  162SOPE  C21418166   1.302   5.776   9.267  0.4556 -0.5298 -0.6854
  162SOPE  H14R18167   1.211   5.838   9.257  2.0101  1.8948 -0.7509
  162SOPE  H14S18168   1.277   5.691   9.334 -0.0023  0.0627 -0.1018
  162SOPE  C21518169   1.350   5.731   9.128  0.6260 -0.3021 -0.6094
  162SOPE  H15R18170   1.306   5.635   9.094 -3.1046  1.3073 -0.8168
  162SOPE  H15S18171   1.455   5.703   9.154 -0.1227 -1.3063  1.5387
  162SOPE  C21618172   1.343   5.850   9.032  0.6385  0.0048 -0.1031
  162SOPE  H16R18173   1.392   5.940   9.074 -1.1297  0.1907  1.7514
  162SOPE  H16S18174   1.234   5.867   9.016  0.5717 -1.0811 -0.8983
  162SOPE  C21718175   1.398   5.818   8.898 -0.0885  0.1553  0.5907
  162SOPE  H17R18176   1.502   5.793   8.927  0.3070  0.8688 -0.1859
  162SOPE  H17S18177   1.402   5.904   8.829  0.8750 -1.2025 -1.1210
  162SOPE  C21818178   1.335   5.708   8.820 -0.3797  0.0294 -0.3169
  162SOPE  H18R18179   1.327   5.613   8.876  2.7515 -1.2694 -1.8559
  162SOPE  H18S18180   1.400   5.693   8.731  0.1588  1.9522 -0.3125
  162SOPE  H18T18181   1.237   5.745   8.782  0.9054  0.5775 -3.4986
  162SOPE   C3318182   1.875   6.047  10.234 -0.7561  0.8900  0.6996
  162SOPE   H3X18183   1.862   6.094  10.135 -1.5136 -1.5624 -0.4481
  162SOPE   H3Y18184   1.793   5.978  10.264  0.1786 -1.5021 -1.8199
  162SOPE   C3418185   1.977   5.931  10.194 -0.1611 -0.8380 -0.2874
  162SOPE   H4X18186   2.008   5.871  10.282 -1.0804  0.7317  1.1730
  162SOPE   H4Y18187   2.068   5.980  10.154 -1.8127  1.2202 -1.7434
  162SOPE   C3518188   1.939   5.834  10.082 -0.0841  0.2128  0.6744
  162SOPE   H5X18189   1.880   5.751  10.125 -0.8895 -0.3377 -1.3685
  162SOPE   H5Y18190   2.037   5.789  10.058  1.1014  1.4509  2.8553
  162SOPE   C3618191   1.867   5.874   9.954  0.4098 -0.0120 -0.7269
  162SOPE   H6X18192   1.908   5.971   9.918  0.3969 -0.0307 -0.7943
  162SOPE   H6Y18193   1.765   5.908   9.981  1.0690  2.2385 -0.8953
  162SOPE   C3718194   1.878   5.766   9.839 -0.3208  0.6394 -0.1704
  162SOPE   H7X18195   1.810   5.683   9.867  2.2807 -1.5954 -0.1335
  162SOPE   H7Y18196   1.973   5.711   9.826 -0.8542 -0.6163  0.9621
  162SOPE   C3818197   1.853   5.821   9.702  0.0456  0.1570  0.2513
  162SOPE   H8X18198   1.945   5.871   9.664 -0.5033  0.5722 -0.5677
  162SOPE   H8Y18199   1.770   5.896   9.703  0.3108  0.5022 -1.1721
  162SOPE   C3918200   1.825   5.702   9.616 -0.0686 -0.3587 -0.0448
  162SOPE   H9X18201   1.728   5.651   9.635 -0.3809  0.2234 -0.0886
  162SOPE   H9Y18202   1.908   5.629   9.629 -0.7905 -0.9590  1.4189
  162SOPE  C31018203   1.818   5.728   9.460 -0.3946 -0.0293 -0.7148
  162SOPE  H10X18204   1.897   5.801   9.430 -1.0480  0.5693 -1.0062
  162SOPE  H10Y18205   1.728   5.790   9.437 -0.5061 -0.1965 -0.7297
  162SOPE  C31118206   1.826   5.603   9.367 -0.1913  0.2633  0.4325
  162SOPE  H11X18207   1.756   5.525   9.404 -1.1104  0.6085 -0.5295
  162SOPE  H11Y18208   1.925   5.553   9.374  1.1909  2.9324  1.0428
  162SOPE  C31218209   1.790   5.629   9.225 -0.9892 -1.3684  0.0650
  162SOPE  H12X18210   1.867   5.695   9.180 -2.2665  1.7907  2.1646
  162SOPE  H12Y18211   1.693   5.683   9.229 -1.0212 -1.4070 -0.2237
  162SOPE  C31318212   1.761   5.502   9.141 -0.5661  0.0523 -0.2041
  162SOPE  H13X18213   1.700   5.437   9.207 -0.0212 -0.0290  0.2325
  162SOPE  H13Y18214   1.859   5.450   9.126  0.4120  1.3277  1.3333
  162SOPE  C31418215   1.702   5.528   8.995 -0.4531  0.1156  0.8858
  162SOPE  H14X18216   1.606   5.581   9.011 -0.5275  0.0600  0.6202
  162SOPE  H14Y18217   1.673   5.427   8.957 -2.8138  1.4838 -1.2772
  162SOPE  C31518218   1.798   5.611   8.908 -0.7829 -0.6312 -0.0455
  162SOPE  H15X18219   1.898   5.563   8.901  0.6906  2.4344 -2.1789
  162SOPE  H15Y18220   1.826   5.712   8.944  0.2189 -1.2524  0.9788
  162SOPE  C31618221   1.748   5.638   8.756  0.2755 -0.5834 -0.1165
  162SOPE  H16X18222   1.812   5.710   8.701  1.2110 -1.2863  0.0439
  162SOPE  H16Y18223   1.646   5.684   8.761  0.5681  0.1220 -0.5208
  162SOPE  C31718224   1.736   5.515   8.664 -1.0614 -0.7827  0.0737
  162SOPE  H17X18225   1.714   5.540   8.558 -0.3672  0.1635  0.1328
  162SOPE  H17Y18226   1.654   5.448   8.697 -1.1471 -1.7135 -1.8674
  162SOPE  C31818227   1.865   5.440   8.651 -0.3881  0.8116  0.7405
  162SOPE  H18X18228   1.850   5.354   8.582 -1.6366  0.9127  0.8747
  162SOPE  H18Y18229   1.897   5.391   8.746 -2.0892 -3.5795 -0.7106
  162SOPE  H18Z18230   1.941   5.506   8.604  0.0168 -1.3079 -1.8087
  163SOPE     N18231   2.207   2.627  11.013 -0.1685  0.1484  0.1082
  163SOPE   HN118232   2.227   2.571  11.099 -0.0782  2.9420  2.0473
  163SOPE   HN218233   2.268   2.588  10.939 -1.1057 -1.0105 -0.0803
  163SOPE   HN318234   2.228   2.727  11.035  0.9175 -0.1372  0.4448
  163SOPE   C1218235   2.067   2.617  10.959  0.2313  0.4409  0.4330
  163SOPE  H12A18236   1.997   2.621  11.045 -1.9922  1.4967 -1.3397
  163SOPE  H12B18237   2.059   2.519  10.908 -0.1444  1.3374 -1.2903
  163SOPE   C1118238   2.041   2.731  10.867 -0.1354 -0.1032 -0.2952
  163SOPE  H11A18239   1.961   2.713  10.793  0.4150  0.7697 -1.1267
  163SOPE  H11B18240   2.130   2.735  10.801 -0.1363  0.5513 -0.2625
  163SOPE     P18241   2.109   2.958  10.965  0.2300 -0.0299 -0.0854
  163SOPE   O1318242   2.219   2.894  11.047  0.0194  0.2595  0.6009
  163SOPE   O1418243   2.035   3.076  11.021  0.1329 -0.2505  0.2830
  163SOPE   O1218244   1.999   2.852  10.921  0.0417 -0.1748 -0.2776
  163SOPE   O1118245   2.177   3.003  10.826  0.0042  0.1537 -0.6197
  163SOPE    C118246   2.101   3.016  10.706 -0.0079 -0.7415 -0.4526
  163SOPE    HA18247   2.016   2.945  10.719  0.9105 -2.0072 -1.0922
  163SOPE    HB18248   2.169   2.993  10.621  1.0297 -0.9155  0.4126
  163SOPE    C218249   2.051   3.157  10.682  0.3538  0.3927  0.0359
  163SOPE    HS18250   1.966   3.181  10.750  0.4899 -0.2485  0.4415
  163SOPE   O2118251   1.992   3.155  10.545 -0.1752 -0.4204 -0.2017
  163SOPE   C2118252   1.928   3.271  10.518 -0.3232  0.3841 -0.0932
  163SOPE   O2218253   1.921   3.369  10.594 -0.2559  0.5449 -0.2393
  163SOPE   C2218254   1.872   3.253  10.379  0.0566 -0.7481  0.3129
  163SOPE   H2R18255   1.771   3.211  10.395 -0.6364  1.1019  0.9838
  163SOPE   H2S18256   1.925   3.171  10.326 -4.1404 -3.4919 -0.0700
  163SOPE    C318257   2.157   3.263  10.699  0.1991  0.1440 -0.7329
  163SOPE    HX18258   2.185   3.248  10.806 -0.8421 -3.6925 -0.8753
  163SOPE    HY18259   2.127   3.370  10.689  3.4178  1.1932 -0.3509
  163SOPE   O3118260   2.273   3.249  10.622 -0.1922  0.5534 -0.0015
  163SOPE   C3118261   2.277   3.312  10.505 -0.0695  0.2084  0.5511
  163SOPE   O3218262   2.190   3.380  10.452  0.0360  0.0633 -0.0874
  163SOPE   C3218263   2.400   3.265  10.426  0.6091 -0.2258 -0.6829
  163SOPE   H2X18264   2.382   3.156  10.424 -1.1166 -0.1119  2.4088
  163SOPE   H2Y18265   2.483   3.287  10.497  0.7578  1.9908 -1.4625
  163SOPE   C2318266   1.871   3.383  10.293 -0.6658 -0.6873 -0.8507
  163SOPE   H3R18267   1.968   3.434  10.309 -2.1433  1.8810  0.6096
  163SOPE   H3S18268   1.798   3.452  10.340  0.2924 -1.2990  1.6663
  163SOPE   C2418269   1.837   3.377  10.146 -0.2238 -0.2719 -0.0305
  163SOPE   H4R18270   1.740   3.325  10.137 -0.2565 -0.5939  1.7513
  163SOPE   H4S18271   1.834   3.472  10.088 -1.9463  0.0440  0.5409
  163SOPE   C2518272   1.931   3.293  10.065 -0.0886 -0.0897  0.6209
  163SOPE   H5R18273   2.028   3.345  10.075 -0.1305 -0.2135  1.8891
  163SOPE   H5S18274   1.945   3.192  10.110  0.5167 -0.9374 -1.3824
  163SOPE   C2618275   1.885   3.267   9.918 -0.4917 -0.1992  0.2734
  163SOPE   H6R18276   1.866   3.368   9.875 -3.0027 -2.1219 -3.7073
  163SOPE   H6S18277   1.969   3.222   9.861 -1.0264 -1.4806  0.4621
  163SOPE   C2718278   1.755   3.180   9.904  0.2920  0.1772 -0.0065
  163SOPE   H7R18279   1.788   3.081   9.944 -0.0756 -0.2697 -0.7906
  163SOPE   H7S18280   1.684   3.219   9.979  1.1878 -0.9409  1.4794
  163SOPE   C2818281   1.701   3.170   9.760 -0.3131 -0.0773 -0.2771
  163SOPE   H8R18282   1.772   3.108   9.702 -0.7048 -1.8594  1.0460
  163SOPE   H8S18283   1.607   3.111   9.763 -0.2704 -0.5493 -4.0758
  163SOPE   C2918284   1.679   3.303   9.690 -0.2071 -0.2833 -0.3751
  163SOPE   H9118285   1.632   3.379   9.753 -2.0236 -1.9122  0.3359
  163SOPE  C21018286   1.706   3.336   9.563  0.6428  0.0789  0.4316
  163SOPE  H10118287   1.679   3.439   9.539  0.5933 -0.1315 -0.4320
  163SOPE  C21118288   1.755   3.246   9.455  0.4249 -0.5234  0.2657
  163SOPE  H11R18289   1.694   3.153   9.457 -0.2706 -0.0756  1.1224
  163SOPE  H11S18290   1.860   3.219   9.478  0.9928  0.8946 -0.5089
  163SOPE  C21218291   1.739   3.300   9.313 -0.4256  0.1756 -0.8588
  163SOPE  H12R18292   1.797   3.394   9.302  0.0501 -0.2529 -2.1614
  163SOPE  H12S18293   1.633   3.323   9.293 -0.4108 -0.0217 -1.1591
  163SOPE  C21318294   1.787   3.197   9.212 -0.0492  0.4380  0.5362
  163SOPE  H13R18295   1.731   3.101   9.223 -0.4760  0.5355 -0.7200
  163SOPE  H13S18296   1.894   3.181   9.239  0.3942 -0.3913 -1.5255
  163SOPE  C21418297   1.771   3.253   9.067 -0.2210 -0.4642 -0.6342
  163SOPE  H14R18298   1.839   3.339   9.051  1.5087 -0.9724  2.9129
  163SOPE  H14S18299   1.664   3.280   9.058  0.0698  1.4126  0.9507
  163SOPE  C21518300   1.802   3.145   8.964 -0.1530 -0.1928  0.0239
  163SOPE  H15R18301   1.907   3.108   8.974  0.7612  1.4915 -2.5044
  163SOPE  H15S18302   1.793   3.187   8.862  0.8390 -1.3464 -0.5611
  163SOPE  C21618303   1.720   3.017   8.963  0.7059  0.6347 -0.6114
  163SOPE  H16R18304   1.616   3.035   8.997  0.4158  0.5461 -1.4365
  163SOPE  H16S18305   1.764   2.959   9.047 -0.5060  1.3223  0.5408
  163SOPE  C21718306   1.714   2.928   8.835 -0.3946  0.4156 -0.4860
  163SOPE  H17R18307   1.753   2.828   8.863  0.8273  0.5485 -1.5659
  163SOPE  H17S18308   1.790   2.959   8.759  3.4171 -1.7046  2.1758
  163SOPE  C21818309   1.575   2.911   8.777 -0.1707  0.7831 -0.6857
  163SOPE  H18R18310   1.546   3.015   8.750 -1.2100  1.2148  1.8272
  163SOPE  H18S18311   1.492   2.862   8.833 -0.2320  1.5243 -0.1062
  163SOPE  H18T18312   1.597   2.853   8.685 -1.8977 -0.6282 -0.2504
  163SOPE   C3318313   2.405   3.331  10.281  0.8276  1.2719 -0.7060
  163SOPE   H3X18314   2.479   3.413  10.273  2.2310 -0.0355 -1.7812
  163SOPE   H3Y18315   2.301   3.353  10.247 -0.0509 -1.2910  0.0961
  163SOPE   C3418316   2.460   3.222  10.178 -0.4886 -0.1664  0.3221
  163SOPE   H4X18317   2.415   3.121  10.190 -0.1989 -0.5465 -1.4619
  163SOPE   H4Y18318   2.569   3.211  10.198 -0.4343  1.2541  0.9492
  163SOPE   C3518319   2.429   3.270  10.034 -0.6588  0.1289  0.5219
  163SOPE   H5X18320   2.478   3.367  10.012  1.0971 -1.2729 -2.2004
  163SOPE   H5Y18321   2.320   3.268  10.011 -0.8741  0.0859  1.4620
  163SOPE   C3618322   2.481   3.164   9.933  0.3305  0.0208  0.3680
  163SOPE   H6X18323   2.432   3.067   9.956 -0.4107  0.8086  2.2495
  163SOPE   H6Y18324   2.588   3.151   9.961  0.7391  2.3650  0.0978
  163SOPE   C3718325   2.468   3.196   9.787  0.3087 -0.0080  0.4588
  163SOPE   H7X18326   2.505   3.299   9.768 -0.1406 -0.1620 -1.5408
  163SOPE   H7Y18327   2.367   3.208   9.742 -1.4010  2.4628  4.4104
  163SOPE   C3818328   2.549   3.100   9.707 -0.2422 -0.0640  0.7280
  163SOPE   H8X18329   2.508   2.997   9.719 -0.8978  0.2225  1.0019
  163SOPE   H8Y18330   2.646   3.095   9.762 -0.3505  1.6530  1.1128
  163SOPE   C3918331   2.567   3.148   9.561 -0.4511 -0.3028  0.1464
  163SOPE   H9X18332   2.624   3.243   9.554 -0.6837 -0.1984 -0.4238
  163SOPE   H9Y18333   2.471   3.173   9.510  0.5951  0.6129 -1.4508
  163SOPE  C31018334   2.639   3.044   9.482  0.2778  0.6908  0.0284
  163SOPE  H10X18335   2.589   2.947   9.503 -0.0589  1.0284  0.8254
  163SOPE  H10Y18336   2.742   3.027   9.521  1.4323  1.6150 -2.4254
  163SOPE  C31118337   2.653   3.068   9.330  1.2516  0.6346 -0.0258
  163SOPE  H11X18338   2.698   3.167   9.310 -2.7306  2.2757 -2.0407
  163SOPE  H11Y18339   2.550   3.083   9.291  0.3388  1.7193  2.5735
  163SOPE  C31218340   2.712   2.948   9.262 -0.2373  0.3509  0.2861
  163SOPE  H12X18341   2.668   2.851   9.292  0.2979 -0.1718 -0.5712
  163SOPE  H12Y18342   2.821   2.938   9.285 -0.0367  2.4955  0.4768
  163SOPE  C31318343   2.702   2.953   9.107 -0.3257  0.6649 -0.8158
  163SOPE  H13X18344   2.760   3.040   9.071  0.0659 -0.2256 -2.4129
  163SOPE  H13Y18345   2.594   2.971   9.085 -0.6382  3.4721  2.2126
  163SOPE  C31418346   2.747   2.819   9.045 -0.5432  0.1219  0.0697
  163SOPE  H14X18347   2.698   2.737   9.102  0.3587  0.1586  0.9333
  163SOPE  H14Y18348   2.856   2.816   9.068  0.1547  1.3257 -2.6785
  163SOPE  C31518349   2.744   2.811   8.890  0.7027 -0.6385  0.2364
  163SOPE  H15X18350   2.769   2.708   8.858 -1.1439 -0.7841 -0.8075
  163SOPE  H15Y18351   2.801   2.888   8.832  0.0029  0.0907  0.4996
  163SOPE  C31618352   2.604   2.831   8.834  0.1184 -0.1594  1.1339
  163SOPE  H16X18353   2.570   2.936   8.846  3.4973  0.9860  1.8653
  163SOPE  H16Y18354   2.543   2.762   8.896  1.0132 -0.9875  1.1142
  163SOPE  C31718355   2.592   2.782   8.682  0.5265 -0.2789  0.3314
  163SOPE  H17X18356   2.485   2.752   8.675 -0.2600  2.5698 -2.1064
  163SOPE  H17Y18357   2.654   2.691   8.675  0.8994 -0.0780  0.9656
  163SOPE  C31818358   2.642   2.880   8.578 -0.0262 -0.2961  0.0546
  163SOPE  H18X18359   2.746   2.908   8.606 -0.0772 -0.5857  0.5336
  163SOPE  H18Y18360   2.586   2.976   8.571  0.5015 -0.0783 -1.9034
  163SOPE  H18Z18361   2.635   2.824   8.482 -2.2848 -1.6362  0.9411
  164SOPE     N18362   6.688   1.426  10.859 -0.1331  0.5288  0.1374
  164SOPE   HN118363   6.603   1.376  10.892  0.7449 -1.0378  0.1076
  164SOPE   HN218364   6.772   1.364  10.863 -1.2446 -0.9363  2.4136
  164SOPE   HN318365   6.705   1.498  10.932 -0.0737 -0.0604  0.7077
  164SOPE   C1218366   6.652   1.476  10.720 -0.3551 -0.4647  0.4115
  164SOPE  H12A18367   6.585   1.402  10.670  0.2449 -0.5910 -0.2074
  164SOPE  H12B18368   6.744   1.490  10.660 -0.7408 -0.2811 -0.1353
  164SOPE   C1118369   6.575   1.610  10.744 -0.0765  0.2873  0.6456
  164SOPE  H11A18370   6.484   1.591  10.806 -1.7523 -1.2112 -2.0456
  164SOPE  H11B18371   6.540   1.636  10.641  0.5225  1.1689  0.6566
  164SOPE     P18372   6.676   1.857  10.744 -0.1022 -0.0458 -0.0084
  164SOPE   O1318373   6.781   1.932  10.822 -0.6674  0.3274  0.4524
  164SOPE   O1418374   6.541   1.915  10.756  0.8997  0.4636  0.4751
  164SOPE   O1218375   6.665   1.710  10.796 -0.5212 -0.0564  0.0835
  164SOPE   O1118376   6.718   1.841  10.595  0.3611 -0.0778 -0.6817
  164SOPE    C118377   6.854   1.789  10.567  0.1348  0.0846 -0.9312
  164SOPE    HA18378   6.871   1.694  10.622 -1.0347 -0.1411 -0.9313
  164SOPE    HB18379   6.926   1.865  10.603 -0.0269 -0.8474  1.5606
  164SOPE    C218380   6.869   1.772  10.417 -0.4446  0.2502  0.5041
  164SOPE    HS18381   6.869   1.873  10.370 -2.5324  0.5357  1.0176
  164SOPE   O2118382   6.763   1.684  10.370 -0.3800  0.3833  0.4865
  164SOPE   C2118383   6.711   1.714  10.253 -0.1099 -0.2160 -0.4064
  164SOPE   O2218384   6.739   1.807  10.180 -0.1847  0.2560  0.1987
  164SOPE   C2218385   6.597   1.611  10.231  0.0567 -0.4393  0.5301
  164SOPE   H2R18386   6.495   1.652  10.220 -0.6220 -1.6747  1.8847
  164SOPE   H2S18387   6.599   1.539  10.316  0.6121  0.1527  1.0384
  164SOPE    C318388   7.006   1.705  10.379 -0.2621 -0.2705  0.9606
  164SOPE    HX18389   7.022   1.614  10.442  0.9468  0.0902  1.2042
  164SOPE    HY18390   7.097   1.764  10.402 -0.0110 -0.2114 -0.1312
  164SOPE   O3118391   7.005   1.662  10.241  0.4290 -0.3985 -0.1430
  164SOPE   C3118392   7.038   1.755  10.148 -0.7372  0.5345 -0.4190
  164SOPE   O3218393   7.054   1.871  10.179 -0.1582  0.1722  1.0578
  164SOPE   C3218394   7.053   1.700  10.019 -0.1088 -0.2976 -0.1767
  164SOPE   H2X18395   6.987   1.614   9.994  1.7332 -2.0177  0.5544
  164SOPE   H2Y18396   7.150   1.648  10.003  1.1723  2.4445 -1.9544
  164SOPE   C2318397   6.636   1.534  10.094  0.1938 -0.5833 -0.2311
  164SOPE   H3R18398   6.591   1.433  10.095 -0.4791 -0.3135  1.7100
  164SOPE   H3S18399   6.747   1.531  10.091  0.2400 -0.8791  1.0758
  164SOPE   C2418400   6.576   1.606   9.967 -0.3162 -0.3643  0.3123
  164SOPE   H4R18401   6.466   1.601   9.980 -0.5878  3.6595  0.9497
  164SOPE   H4S18402   6.612   1.711   9.978  1.2847 -0.7351 -0.9726
  164SOPE   C2518403   6.626   1.552   9.838 -0.0470 -0.1068 -0.4391
  164SOPE   H5R18404   6.562   1.590   9.755  2.3137  0.3802 -2.1405
  164SOPE   H5S18405   6.727   1.586   9.807  0.0224 -1.3266 -1.6920
  164SOPE   C2618406   6.606   1.399   9.832  0.0490  0.0130  0.6389
  164SOPE   H6R18407   6.693   1.342   9.871 -0.5662  0.1021  2.2101
  164SOPE   H6S18408   6.510   1.378   9.884 -0.5839 -1.0210 -0.8618
  164SOPE   C2718409   6.587   1.350   9.684  0.0198 -1.4907 -0.9748
  164SOPE   H7R18410   6.502   1.403   9.637 -0.3144  0.2796  1.4327
  164SOPE   H7S18411   6.680   1.385   9.634  0.2230  0.6473  0.7527
  164SOPE   C2818412   6.581   1.198   9.663 -0.3630  0.6288  0.1273
  164SOPE   H8R18413   6.515   1.155   9.742  1.8605 -2.6000  0.4082
  164SOPE   H8S18414   6.533   1.181   9.565  0.1256  1.9218 -0.3523
  164SOPE   C2918415   6.720   1.133   9.673 -0.0049  0.6453  0.4407
  164SOPE   H9118416   6.730   1.079   9.769 -1.1758 -0.6196 -0.1197
  164SOPE  C21018417   6.801   1.113   9.568 -0.6888 -0.1406  0.9213
  164SOPE  H10118418   6.897   1.061   9.575  1.1579  2.5177 -2.3050
  164SOPE  C21118419   6.783   1.144   9.421 -0.7060  0.3810  0.7588
  164SOPE  H11R18420   6.753   1.248   9.396 -0.5637 -0.2687 -2.5138
  164SOPE  H11S18421   6.712   1.079   9.366  1.7155 -1.6364 -0.1379
  164SOPE  C21218422   6.914   1.109   9.342  0.0054  0.2099  0.1966
  164SOPE  H12R18423   6.944   1.003   9.355 -1.1679  0.1305  3.3171
  164SOPE  H12S18424   7.002   1.170   9.374  1.1409 -0.3573 -1.7183
  164SOPE  C21318425   6.894   1.133   9.192 -0.8375 -0.4542  0.2636
  164SOPE  H13R18426   6.860   1.238   9.178 -1.0743 -0.3763  1.3467
  164SOPE  H13S18427   6.805   1.075   9.159 -1.9408  0.8755  0.7782
  164SOPE  C21418428   7.036   1.119   9.117  0.8635  0.2595  0.1117
  164SOPE  H14R18429   7.063   1.011   9.126 -1.1560 -0.4568 -1.4339
  164SOPE  H14S18430   7.109   1.179   9.174 -0.0524  1.2177  0.3120
  164SOPE  C21518431   7.037   1.175   8.970  0.2359  0.7063  0.1350
  164SOPE  H15R18432   6.940   1.143   8.927 -0.1580 -1.7406  2.6266
  164SOPE  H15S18433   7.111   1.120   8.907 -0.2661  0.4494 -0.2325
  164SOPE  C21618434   7.078   1.325   8.957  1.5008  0.5978 -0.6887
  164SOPE  H16R18435   7.161   1.344   9.029  0.0149 -1.3909  1.7598
  164SOPE  H16S18436   6.984   1.376   8.986  1.1581 -0.2401 -0.2814
  164SOPE  C21718437   7.133   1.362   8.825 -0.5326 -0.2390 -0.7108
  164SOPE  H17R18438   7.212   1.289   8.798  0.9285  1.9288 -2.7448
  164SOPE  H17S18439   7.181   1.462   8.834 -0.0023 -0.5262 -0.2663
  164SOPE  C21818440   7.041   1.350   8.706 -0.1454 -0.4063  0.2255
  164SOPE  H18R18441   7.028   1.241   8.688  2.1537 -0.5184 -1.1548
  164SOPE  H18S18442   7.089   1.397   8.617 -1.8509  0.0692 -0.4842
  164SOPE  H18T18443   6.944   1.397   8.732  0.6815 -0.4701  3.9393
  164SOPE   C3318444   7.038   1.805   9.908  0.2409 -0.3072  0.1608
  164SOPE   H3X18445   7.067   1.757   9.812  0.0872  0.9328 -0.5228
  164SOPE   H3Y18446   7.089   1.901   9.929  2.4376 -1.4863  0.4915
  164SOPE   C3418447   6.894   1.845   9.865 -0.2663 -0.2627 -0.1272
  164SOPE   H4X18448   6.848   1.901   9.949  0.1328 -1.0944  0.6527
  164SOPE   H4Y18449   6.830   1.757   9.843 -0.1327 -0.4761  0.3378
  164SOPE   C3518450   6.897   1.915   9.730 -0.1739  0.4795  0.0520
  164SOPE   H5X18451   6.935   1.853   9.646 -1.3723 -1.1319  0.6351
  164SOPE   H5Y18452   6.960   2.005   9.747  1.1802 -0.0750 -1.6998
  164SOPE   C3618453   6.765   1.983   9.682 -0.7636 -0.6331 -0.1206
  164SOPE   H6X18454   6.803   2.039   9.593  0.8436 -0.5931  0.5438
  164SOPE   H6Y18455   6.713   2.044   9.759  0.8356 -1.9167  2.0910
  164SOPE   C3718456   6.653   1.884   9.639 -0.8437 -0.3761  0.4897
  164SOPE   H7X18457   6.561   1.936   9.606 -0.6380 -0.0404  0.4355
  164SOPE   H7Y18458   6.634   1.828   9.733  0.8830  2.1361  2.4731
  164SOPE   C3818459   6.691   1.779   9.532  0.4180  0.4795  0.0625
  164SOPE   H8X18460   6.768   1.720   9.586  0.9250 -0.7950 -1.9646
  164SOPE   H8Y18461   6.736   1.835   9.447  1.3910  1.0834  0.9481
  164SOPE   C3918462   6.576   1.690   9.475  0.0752  0.1786  0.5542
  164SOPE   H9X18463   6.496   1.754   9.434 -0.8896 -2.3307 -1.7801
  164SOPE   H9Y18464   6.532   1.634   9.561  1.8166 -0.7828  0.8752
  164SOPE  C31018465   6.633   1.587   9.370 -0.2804 -1.0547  0.3406
  164SOPE  H10X18466   6.704   1.514   9.412  3.9688  2.9845  0.9734
  164SOPE  H10Y18467   6.702   1.645   9.305 -0.4473 -0.6496  0.5189
  164SOPE  C31118468   6.512   1.519   9.305  0.0577 -0.1996  0.6337
  164SOPE  H11X18469   6.434   1.589   9.267 -0.8466 -2.7321 -2.7322
  164SOPE  H11Y18470   6.461   1.460   9.384 -0.4639  1.4929  1.6117
  164SOPE  C31218471   6.545   1.425   9.185 -0.4642  0.1370 -0.1289
  164SOPE  H12X18472   6.470   1.344   9.170 -0.4813 -0.0189  0.7653
  164SOPE  H12Y18473   6.645   1.381   9.203 -0.2573  0.1140 -1.2541
  164SOPE  C31318474   6.561   1.511   9.058 -0.7958 -0.3577 -0.0189
  164SOPE  H13X18475   6.643   1.583   9.075 -1.6840  0.7404 -0.2854
  164SOPE  H13Y18476   6.462   1.557   9.040 -0.8684 -0.7952 -0.7727
  164SOPE  C31418477   6.599   1.422   8.933  0.0167  0.3915 -0.5427
  164SOPE  H14X18478   6.515   1.351   8.919 -1.3496  1.2769  2.3682
  164SOPE  H14Y18479   6.689   1.359   8.953  1.3370  1.1870 -3.4801
  164SOPE  C31518480   6.633   1.501   8.811  0.2236  0.0669  0.0951
  164SOPE  H15X18481   6.738   1.538   8.822  0.9052 -1.4138 -1.0721
  164SOPE  H15Y18482   6.564   1.588   8.811 -1.1347 -0.7778  4.2472
  164SOPE  C31618483   6.629   1.412   8.684  0.3341  0.0218 -0.2929
  164SOPE  H16X18484   6.532   1.358   8.684 -0.6163  1.6603 -0.5273
  164SOPE  H16Y18485   6.715   1.342   8.680 -0.9782 -1.6845  0.3462
  164SOPE  C31718486   6.618   1.483   8.552 -0.0310  0.4805 -0.4831
  164SOPE  H17X18487   6.709   1.542   8.531  0.6871 -0.9031 -1.4015
  164SOPE  H17Y18488   6.535   1.557   8.563 -0.0578  0.3194  0.4308
  164SOPE  C31818489   6.601   1.384   8.437 -1.0200  0.0788  0.6907
  164SOPE  H18X18490   6.532   1.297   8.446 -1.4026  0.2064 -0.7797
  164SOPE  H18Y18491   6.702   1.338   8.428  0.2579  2.3256  2.5628
  164SOPE  H18Z18492   6.572   1.426   8.339  1.8847 -2.2883 -1.3528
  165SOPE     N18493   5.540   2.929  11.142 -0.4814 -0.3371 -0.3093
  165SOPE   HN118494   5.480   2.886  11.215  1.1958 -0.2322  1.1959
  165SOPE   HN218495   5.599   2.857  11.095 -0.4123 -1.0860  0.8920
  165SOPE   HN318496   5.606   2.999  11.181  0.7228  0.0685 -2.8185
  165SOPE   C1218497   5.450   2.995  11.042  0.8402  0.3350  0.1524
  165SOPE  H12A18498   5.492   2.993  10.939 -1.1365 -2.0370 -0.7031
  165SOPE  H12B18499   5.419   3.095  11.080 -2.5319 -0.0030 -1.3603
  165SOPE   C1118500   5.335   2.907  11.025  0.4852  0.1032  0.2977
  165SOPE  H11A18501   5.270   2.950  10.946 -0.2155 -1.2271  0.1186
  165SOPE  H11B18502   5.272   2.881  11.113  1.7425 -2.2727  0.5798
  165SOPE     P18503   5.291   2.663  10.934  0.5460  0.0144  0.2336
  165SOPE   O1318504   5.157   2.711  10.927 -0.2448 -0.5002  0.5444
  165SOPE   O1418505   5.305   2.542  11.016 -0.4817  0.2216 -0.5229
  165SOPE   O1218506   5.385   2.782  10.979 -0.3252 -0.0610  0.4871
  165SOPE   O1118507   5.339   2.628  10.791 -0.2677  0.5139 -0.2719
  165SOPE    C118508   5.408   2.717  10.708  0.2756 -0.9752 -0.3171
  165SOPE    HA18509   5.515   2.713  10.739 -0.2311 -0.1358  1.6373
  165SOPE    HB18510   5.371   2.821  10.709  1.3515 -0.5295  2.5910
  165SOPE    C218511   5.394   2.674  10.562  0.1038  0.5711  0.1851
  165SOPE    HS18512   5.416   2.565  10.552 -1.0507  0.2020  1.3277
  165SOPE   O2118513   5.491   2.746  10.487 -1.0182 -0.0288 -0.1045
  165SOPE   C2118514   5.525   2.697  10.371  0.9507  0.0318  0.3585
  165SOPE   O2218515   5.492   2.587  10.324  0.1110 -0.3586 -0.4336
  165SOPE   C2218516   5.607   2.800  10.296 -0.2110  0.8472  0.1619
  165SOPE   H2R18517   5.694   2.832  10.358 -0.7217  0.3042  1.1870
  165SOPE   H2S18518   5.537   2.886  10.287 -0.9434  0.1257 -1.4204
  165SOPE    C318519   5.257   2.706  10.506 -0.0809  0.0738 -0.3261
  165SOPE    HX18520   5.228   2.810  10.531 -1.0847  0.0216 -1.2108
  165SOPE    HY18521   5.180   2.664  10.575  0.1620 -0.1885 -0.2142
  165SOPE   O3118522   5.239   2.673  10.371  0.2432  0.4613  0.0853
  165SOPE   C3118523   5.200   2.555  10.336 -0.4196  1.1490  0.3966
  165SOPE   O3218524   5.171   2.465  10.414 -0.5561  0.4811  0.0022
  165SOPE   C3218525   5.199   2.539  10.184 -0.5605 -0.2397  0.4216
  165SOPE   H2X18526   5.100   2.492  10.165 -0.3467 -1.0559  1.2068
  165SOPE   H2Y18527   5.279   2.466  10.159 -1.9708 -1.6963 -0.0056
  165SOPE   C2318528   5.652   2.760  10.157 -0.0695  0.3914  0.5846
  165SOPE   H3R18529   5.576   2.721  10.086  0.6133  0.0378  0.0403
  165SOPE   H3S18530   5.730   2.682  10.164 -2.7085 -2.6219 -0.8927
  165SOPE   C2418531   5.709   2.878  10.080 -0.1940 -0.7766 -0.7007
  165SOPE   H4R18532   5.636   2.961  10.079  0.5042 -0.0853  1.2267
  165SOPE   H4S18533   5.783   2.914  10.154 -2.7196  1.2345  1.0175
  165SOPE   C2518534   5.779   2.858   9.949 -0.2562 -0.3568  0.2250
  165SOPE   H5R18535   5.850   2.941   9.933 -2.3049  1.7365  1.4559
  165SOPE   H5S18536   5.841   2.769   9.972 -0.3722 -1.1494 -2.1941
  165SOPE   C2618537   5.690   2.830   9.829 -0.2070 -0.1572  0.1743
  165SOPE   H6R18538   5.630   2.744   9.865  0.1379  0.3404  2.0102
  165SOPE   H6S18539   5.615   2.911   9.819 -2.4708 -2.0654  0.9112
  165SOPE   C2718540   5.770   2.811   9.702 -0.2712 -0.1843  0.6915
  165SOPE   H7R18541   5.873   2.777   9.729 -0.6039  0.3869  2.9147
  165SOPE   H7S18542   5.712   2.731   9.652  2.1534 -2.5181  1.3683
  165SOPE   C2818543   5.775   2.925   9.609 -0.5083 -0.5237 -0.0433
  165SOPE   H8R18544   5.673   2.955   9.578 -0.1613  0.6541 -0.1026
  165SOPE   H8S18545   5.819   3.004   9.674  5.4167 -2.3588 -1.1992
  165SOPE   C2918546   5.871   2.887   9.496  0.1272 -0.0462  0.3653
  165SOPE   H9118547   5.975   2.877   9.530 -0.5301 -3.4865  1.7900
  165SOPE  C21018548   5.832   2.834   9.377 -0.4846  0.8431  0.1320
  165SOPE  H10118549   5.915   2.792   9.318 -1.3455  1.7627 -1.8002
  165SOPE  C21118550   5.699   2.813   9.317  0.5877  0.1783  0.0472
  165SOPE  H11R18551   5.657   2.898   9.259 -1.8255 -1.1166 -0.2214
  165SOPE  H11S18552   5.629   2.777   9.395 -0.8587  1.7172 -0.4858
  165SOPE  C21218553   5.698   2.705   9.208 -0.0225 -0.1143 -0.0824
  165SOPE  H12R18554   5.594   2.678   9.179 -0.1936  1.2748 -0.8430
  165SOPE  H12S18555   5.745   2.606   9.231  0.8604  0.3700  0.2577
  165SOPE  C21318556   5.760   2.755   9.073 -0.5886 -0.7155  0.1838
  165SOPE  H13R18557   5.861   2.785   9.110 -0.9424 -0.9904  1.4438
  165SOPE  H13S18558   5.711   2.850   9.042  0.9876 -0.4733 -1.7367
  165SOPE  C21418559   5.764   2.655   8.965 -0.2858 -0.3527  0.5425
  165SOPE  H14R18560   5.807   2.560   9.004 -2.5542 -2.3563 -1.4816
  165SOPE  H14S18561   5.834   2.678   8.883  0.2602 -1.2612  0.7416
  165SOPE  C21518562   5.624   2.625   8.907 -0.0087  0.4443  0.6371
  165SOPE  H15R18563   5.578   2.562   8.985  0.8801 -0.8702  0.1407
  165SOPE  H15S18564   5.635   2.574   8.808 -3.2318  1.5741 -0.4226
  165SOPE  C21618565   5.543   2.758   8.863  0.1286  0.1582  0.2082
  165SOPE  H16R18566   5.550   2.822   8.953  1.4677  0.6570 -0.2147
  165SOPE  H16S18567   5.434   2.737   8.862 -0.0232  0.4391  3.3704
  165SOPE  C21718568   5.603   2.834   8.748  0.4955 -0.0938  0.5977
  165SOPE  H17R18569   5.578   2.778   8.655  1.9198  2.6077 -1.5432
  165SOPE  H17S18570   5.713   2.829   8.761  0.7366 -2.0674 -1.4540
  165SOPE  C21818571   5.550   2.973   8.739  0.1308 -0.5374 -0.3716
  165SOPE  H18R18572   5.561   3.026   8.836  0.5252  3.8149 -2.5405
  165SOPE  H18S18573   5.442   2.973   8.711 -0.1067 -2.4433  0.4056
  165SOPE  H18T18574   5.606   3.031   8.663 -1.2831  3.1245  1.1261
  165SOPE   C3318575   5.215   2.662  10.089  0.8827 -0.7396  0.5169
  165SOPE   H3X18576   5.313   2.712  10.093 -0.7563  2.8709 -0.2749
  165SOPE   H3Y18577   5.142   2.743  10.112 -0.3826 -1.9141  0.8152
  165SOPE   C3418578   5.199   2.619   9.945  0.4291  0.7790 -0.3773
  165SOPE   H4X18579   5.099   2.579   9.919  0.1903  1.5312 -0.6478
  165SOPE   H4Y18580   5.273   2.537   9.931 -0.0481  0.2783 -0.0072
  165SOPE   C3518581   5.236   2.726   9.841 -0.6277  0.3245 -0.9963
  165SOPE   H5X18582   5.341   2.753   9.867 -0.2874 -1.5100 -0.2739
  165SOPE   H5Y18583   5.178   2.818   9.864  0.9278  1.0408  0.2680
  165SOPE   C3618584   5.218   2.687   9.699 -0.1882  0.3704  0.3862
  165SOPE   H6X18585   5.110   2.703   9.680 -0.2151 -0.0558  0.1638
  165SOPE   H6Y18586   5.239   2.578   9.689  0.2756  0.4006  0.9358
  165SOPE   C3718587   5.323   2.764   9.615  0.3049 -1.2902 -0.6973
  165SOPE   H7X18588   5.425   2.723   9.623 -0.1449 -2.3502 -0.2710
  165SOPE   H7Y18589   5.309   2.873   9.633 -0.7137 -1.8445  2.4117
  165SOPE   C3818590   5.283   2.739   9.464 -0.3145  0.3443  0.4376
  165SOPE   H8X18591   5.338   2.813   9.401 -0.8336 -0.5604 -1.1148
  165SOPE   H8Y18592   5.178   2.770   9.445  0.2117  1.4999 -0.8098
  165SOPE   C3918593   5.304   2.593   9.426  0.4333  0.2520  0.4841
  165SOPE   H9X18594   5.237   2.525   9.483  0.5520 -1.0039 -0.8090
  165SOPE   H9Y18595   5.409   2.564   9.445 -0.2929 -1.9806  1.4282
  165SOPE  C31018596   5.272   2.567   9.280 -0.0063 -0.5774  0.3295
  165SOPE  H10X18597   5.316   2.467   9.257  0.3890 -0.2367 -0.4358
  165SOPE  H10Y18598   5.306   2.637   9.201  0.5157 -0.5425  0.5819
  165SOPE  C31118599   5.127   2.535   9.256 -0.3055  0.2967  1.1953
  165SOPE  H11X18600   5.073   2.629   9.278 -1.5433  0.0268 -0.5124
  165SOPE  H11Y18601   5.110   2.461   9.336  0.2450  0.5687  1.5718
  165SOPE  C31218602   5.097   2.479   9.116 -0.9139 -0.6118  0.2676
  165SOPE  H12X18603   5.171   2.399   9.092 -0.4634  0.3445 -1.7696
  165SOPE  H12Y18604   5.124   2.558   9.042  2.6960 -0.8647  1.0933
  165SOPE  C31318605   4.956   2.419   9.104 -0.3551 -0.3529  0.7283
  165SOPE  H13X18606   4.943   2.339   9.181  0.9525 -0.1184  1.2078
  165SOPE  H13Y18607   4.957   2.366   9.006  1.3837  1.0094 -0.0242
  165SOPE  C31418608   4.845   2.522   9.119 -0.5971 -0.2339 -0.5921
  165SOPE  H14X18609   4.851   2.580   9.213 -1.3985 -0.7333 -0.2199
  165SOPE  H14Y18610   4.748   2.468   9.131 -0.6697 -0.0784 -0.4842
  165SOPE  C31518611   4.841   2.622   9.008 -0.2855 -0.1057  0.5629
  165SOPE  H15X18612   4.925   2.695   9.011 -2.1233  2.3338 -2.3355
  165SOPE  H15Y18613   4.747   2.677   9.026 -1.3270 -1.5437 -0.3160
  165SOPE  C31618614   4.826   2.552   8.871  0.3951 -0.6859  0.8969
  165SOPE  H16X18615   4.770   2.457   8.885 -1.4681  0.1600 -0.3537
  165SOPE  H16Y18616   4.931   2.529   8.847  0.6891  1.1269  0.2656
  165SOPE  C31718617   4.758   2.630   8.758 -0.5060  0.0766  0.2021
  165SOPE  H17X18618   4.817   2.721   8.733 -0.2498 -0.5644 -1.6498
  165SOPE  H17Y18619   4.664   2.663   8.807  0.4979  0.1896  2.1533
  165SOPE  C31818620   4.742   2.547   8.626 -0.0565 -0.4065  0.2772
  165SOPE  H18X18621   4.832   2.483   8.611 -0.2376 -0.7750  0.7161
  165SOPE  H18Y18622   4.712   2.612   8.541 -0.9033  0.1259  0.9630
  165SOPE  H18Z18623   4.658   2.474   8.633 -1.1157  0.8582  1.4018
  166SOPE     N18624   1.279   2.668  10.907 -0.1042 -0.1800 -0.9128
  166SOPE   HN118625   1.193   2.706  10.951  1.4786  0.9403  1.4459
  166SOPE   HN218626   1.294   2.570  10.941 -0.1204 -0.2001 -0.9641
  166SOPE   HN318627   1.352   2.725  10.954 -0.4763  1.0090 -1.7537
  166SOPE   C1218628   1.278   2.690  10.761 -0.2236  0.0577  1.3262
  166SOPE  H12A18629   1.370   2.645  10.717 -1.0720 -1.0926  0.6870
  166SOPE  H12B18630   1.280   2.800  10.746 -1.0371  0.0598  1.2321
  166SOPE   C1118631   1.154   2.628  10.693  0.2915  0.1066  0.0029
  166SOPE  H11A18632   1.156   2.518  10.710  0.7736  0.0143 -0.6331
  166SOPE  H11B18633   1.148   2.647  10.584  0.5653 -0.4174 -0.1089
  166SOPE     P18634   0.962   2.804  10.698 -0.0610 -0.0559  0.2188
  166SOPE   O1318635   1.055   2.917  10.691 -0.5935 -0.8786  0.3840
  166SOPE   O1418636   0.839   2.815  10.779  0.0553  0.1796 -0.5286
  166SOPE   O1218637   1.035   2.675  10.760 -0.2393  0.6586  0.1511
  166SOPE   O1118638   0.922   2.754  10.553 -0.7963 -0.4481 -0.0781
  166SOPE    C118639   0.862   2.633  10.524  0.2664 -0.0119 -0.1060
  166SOPE    HA18640   0.754   2.643  10.550  0.2052  2.2287 -1.0462
  166SOPE    HB18641   0.906   2.558  10.594 -2.1436  0.1012  1.6564
  166SOPE    C218642   0.886   2.594  10.380 -0.5438 -0.2819  0.5987
  166SOPE    HS18643   0.995   2.578  10.367 -0.7198 -0.7249 -0.3894
  166SOPE   O2118644   0.857   2.705  10.295 -0.1758  0.2197  0.0232
  166SOPE   C2118645   0.741   2.768  10.309  0.4090 -0.7251  0.3404
  166SOPE   O2218646   0.631   2.717  10.333 -0.7354 -0.0782  0.3805
  166SOPE   C2218647   0.761   2.917  10.285 -0.1410 -0.2318 -0.0828
  166SOPE   H2R18648   0.831   2.960  10.360  0.3112 -2.1802  0.6785
  166SOPE   H2S18649   0.666   2.975  10.279  0.3395  0.4777 -1.1489
  166SOPE    C318650   0.807   2.467  10.339  0.7219 -0.0423  0.1782
  166SOPE    HX18651   0.709   2.481  10.389 -0.6568  1.0661 -2.6036
  166SOPE    HY18652   0.862   2.381  10.383  1.4708 -0.3279 -1.2720
  166SOPE   O3118653   0.788   2.448  10.198  0.2277 -0.4834  0.1907
  166SOPE   C3118654   0.683   2.384  10.161  0.2858  0.5421  0.1651
  166SOPE   O3218655   0.609   2.320  10.234 -0.3130 -0.4941 -0.0379
  166SOPE   C3218656   0.656   2.404  10.014 -0.5329 -1.1212 -0.1048
  166SOPE   H2X18657   0.564   2.345   9.996  0.0990 -1.9904 -0.6149
  166SOPE   H2Y18658   0.741   2.352   9.964 -0.3184  0.6312 -1.6859
  166SOPE   C2318659   0.837   2.941  10.147  0.1143  0.7002  0.0560
  166SOPE   H3R18660   0.932   2.884  10.156  1.3905  2.9827  2.2739
  166SOPE   H3S18661   0.860   3.049  10.144 -0.0540  0.7291 -0.2816
  166SOPE   C2418662   0.755   2.908  10.024 -0.1077 -0.0059  0.0186
  166SOPE   H4R18663   0.774   2.803   9.995 -1.2646 -0.2696  0.1611
  166SOPE   H4S18664   0.646   2.912  10.048 -0.2461  1.0524 -0.6536
  166SOPE   C2518665   0.791   2.993   9.904  0.5253  0.0092 -0.6572
  166SOPE   H5R18666   0.774   3.102   9.919  1.2771  0.2869 -1.6916
  166SOPE   H5S18667   0.900   2.983   9.884  0.7247 -2.0471  1.1279
  166SOPE   C2618668   0.711   2.955   9.774  0.0210  0.4593 -0.4198
  166SOPE   H6R18669   0.723   2.846   9.756 -0.9802  0.3583 -0.5175
  166SOPE   H6S18670   0.606   2.974   9.803  0.4904  1.8539  0.5061
  166SOPE   C2718671   0.760   3.040   9.662  0.3206  0.0616  0.4761
  166SOPE   H7R18672   0.769   3.149   9.681 -1.5859  0.1006  1.3619
  166SOPE   H7S18673   0.862   3.002   9.640 -0.0616 -1.6477  1.5144
  166SOPE   C2818674   0.687   3.033   9.530  0.0170 -0.5346 -0.7091
  166SOPE   H8R18675   0.579   3.060   9.540  0.1080 -0.2437 -0.5026
  166SOPE   H8S18676   0.732   3.111   9.465  0.4650  0.6022  0.8959
  166SOPE   C2918677   0.691   2.900   9.462 -0.9883 -0.6140 -0.4083
  166SOPE   H9118678   0.599   2.841   9.479 -0.6672 -0.9527  0.1876
  166SOPE  C21018679   0.780   2.865   9.367 -0.8158 -1.1965  0.1099
  166SOPE  H10118680   0.777   2.770   9.311 -1.1014 -0.9040 -0.3787
  166SOPE  C21118681   0.906   2.934   9.310  0.0134 -0.1204 -0.0877
  166SOPE  H11R18682   0.987   2.866   9.343  0.2148  0.6596  1.0955
  166SOPE  H11S18683   0.916   3.035   9.356 -0.2129  0.3223 -0.9716
  166SOPE  C21218684   0.881   2.967   9.162 -0.3288 -0.3234 -1.3076
  166SOPE  H12R18685   0.875   2.873   9.103  1.6072 -0.4178 -1.4117
  166SOPE  H12S18686   0.971   3.026   9.133 -0.8387  1.7846  1.0525
  166SOPE  C21318687   0.747   3.040   9.139 -0.8895  0.7687  0.1645
  166SOPE  H13R18688   0.714   3.106   9.222  0.8062  2.0314 -0.1185
  166SOPE  H13S18689   0.671   2.959   9.137 -0.8739  0.7264 -2.3716
  166SOPE  C21418690   0.744   3.114   9.004 -0.8288  0.3268 -0.1755
  166SOPE  H14R18691   0.769   3.054   8.914 -0.5203  0.7765 -0.3932
  166SOPE  H14S18692   0.826   3.188   9.013  0.6368 -1.3551  1.2414
  166SOPE  C21518693   0.607   3.175   8.979  0.4601 -0.3188 -0.4155
  166SOPE  H15R18694   0.566   3.231   9.066  0.6832  0.2241 -0.6521
  166SOPE  H15S18695   0.541   3.087   8.964 -0.4082  0.6148 -2.4713
  166SOPE  C21618696   0.602   3.251   8.850  0.7689  0.4092 -0.3966
  166SOPE  H16R18697   0.497   3.251   8.814  0.3959  0.3677  0.6556
  166SOPE  H16S18698   0.638   3.187   8.767 -2.0432 -0.5345 -0.9969
  166SOPE  C21718699   0.657   3.390   8.856 -0.0612 -0.0668 -0.4201
  166SOPE  H17R18700   0.765   3.379   8.834 -0.2515 -1.6691 -0.7155
  166SOPE  H17S18701   0.644   3.441   8.953 -3.2149 -1.4702  0.0221
  166SOPE  C21818702   0.598   3.491   8.758  0.3734 -0.0337 -0.1469
  166SOPE  H18R18703   0.642   3.592   8.769  0.4924 -0.1385  0.3471
  166SOPE  H18S18704   0.492   3.510   8.786  1.1555  1.7317  1.8382
  166SOPE  H18T18705   0.591   3.456   8.652 -3.3085 -2.5362  0.7138
  166SOPE   C3318706   0.645   2.544   9.963 -0.3021 -0.6935 -0.3341
  166SOPE   H3X18707   0.744   2.595   9.975 -1.0563  0.7405  0.0812
  166SOPE   H3Y18708   0.580   2.604  10.031 -1.0089 -0.0850 -1.5155
  166SOPE   C3418709   0.589   2.564   9.820  0.2308 -0.6159  0.1488
  166SOPE   H4X18710   0.558   2.671   9.819  1.6537 -0.1802 -0.3610
  166SOPE   H4Y18711   0.490   2.517   9.807  0.0793 -0.1051 -0.6054
  166SOPE   C3518712   0.681   2.507   9.712  0.8213 -1.1241 -0.4767
  166SOPE   H5X18713   0.689   2.396   9.722  0.8022 -1.3095 -2.2074
  166SOPE   H5Y18714   0.776   2.560   9.736 -0.2938  0.6908  0.1316
  166SOPE   C3618715   0.624   2.533   9.573 -0.5324 -0.0485 -0.1634
  166SOPE   H6X18716   0.601   2.640   9.553  0.2130  0.2006  0.2636
  166SOPE   H6Y18717   0.527   2.480   9.568 -0.7396  0.2104  1.0190
  166SOPE   C3718718   0.710   2.484   9.459  0.2520  0.1523  0.0726
  166SOPE   H7X18719   0.740   2.380   9.482 -1.0543 -0.0124  1.1233
  166SOPE   H7Y18720   0.804   2.544   9.448  0.2097  0.2982  0.5117
  166SOPE   C3818721   0.626   2.487   9.330  0.3716  0.2798  1.3373
  166SOPE   H8X18722   0.606   2.590   9.293 -0.5550 -0.2137  0.4048
  166SOPE   H8Y18723   0.525   2.448   9.354  0.6885 -1.0261  0.6436
  166SOPE   C3918724   0.687   2.413   9.221 -0.0780  0.3837  0.5981
  166SOPE   H9X18725   0.737   2.317   9.247 -0.3071 -0.0887 -0.6446
  166SOPE   H9Y18726   0.768   2.477   9.180 -0.0745  0.7751  1.2034
  166SOPE  C31018727   0.589   2.362   9.114 -0.4789  0.1212 -0.4023
  166SOPE  H10X18728   0.551   2.451   9.059 -0.8869 -1.0716 -2.1566
  166SOPE  H10Y18729   0.507   2.305   9.163 -0.3465  0.8406  0.6844
  166SOPE  C31118730   0.667   2.267   9.029 -0.1821 -0.1656  0.5900
  166SOPE  H11X18731   0.686   2.173   9.085  2.1525 -0.2160 -0.1569
  166SOPE  H11Y18732   0.768   2.304   8.998  0.2329 -1.8123 -0.1618
  166SOPE  C31218733   0.608   2.236   8.895  0.0376  0.2996 -0.6054
  166SOPE  H12X18734   0.509   2.194   8.923  1.6342 -1.7357  2.6937
  166SOPE  H12Y18735   0.656   2.152   8.840  1.9478  1.6683 -1.1434
  166SOPE  C31318736   0.611   2.340   8.781  0.3046  0.4818 -0.5711
  166SOPE  H13X18737   0.713   2.385   8.780 -0.1524  1.5586 -0.1740
  166SOPE  H13Y18738   0.532   2.412   8.811  1.4500  1.5171  0.0979
  166SOPE  C31418739   0.583   2.295   8.637 -0.1295  0.1799  0.1065
  166SOPE  H14X18740   0.474   2.277   8.627 -0.1282  1.0216 -1.8669
  166SOPE  H14Y18741   0.642   2.205   8.610 -0.4572 -0.2864  0.9159
  166SOPE  C31518742   0.612   2.419   8.545 -0.6046 -0.2862 -0.2599
  166SOPE  H15X18743   0.632   2.396   8.438  2.0564 -0.1734  0.1575
  166SOPE  H15Y18744   0.707   2.462   8.582 -0.1142 -1.0869 -0.5748
  166SOPE  C31618745   0.495   2.512   8.548  0.0644 -0.5147 -0.5612
  166SOPE  H16X18746   0.497   2.563   8.647  2.9952 -0.6218 -0.4851
  166SOPE  H16Y18747   0.403   2.452   8.536 -0.7830  0.9419 -1.6300
  166SOPE  C31718748   0.489   2.616   8.436  0.2832 -0.0718 -0.0395
  166SOPE  H17X18749   0.585   2.671   8.431  0.3057  0.1631  2.1420
  166SOPE  H17Y18750   0.405   2.684   8.462  0.9364  0.7424 -0.0142
  166SOPE  C31818751   0.458   2.562   8.299  1.2196 -0.0109  1.0947
  166SOPE  H18X18752   0.362   2.506   8.297  0.4583  1.2445 -0.4793
  166SOPE  H18Y18753   0.545   2.509   8.254  0.7240  1.4408 -1.8426
  166SOPE  H18Z18754   0.431   2.644   8.228 -0.7191 -2.0772 -0.7041
  167SOPE     N18755   3.821   1.234   6.423 -0.8831 -0.3506 -0.0936
  167SOPE   HN118756   3.896   1.163   6.432 -0.1150  0.4605  0.0198
  167SOPE   HN218757   3.787   1.229   6.325  0.8909  1.2742 -0.8489
  167SOPE   HN318758   3.865   1.328   6.430  1.3811 -1.2307 -1.4642
  167SOPE   C1218759   3.718   1.220   6.535 -0.7093  0.3631 -0.2863
  167SOPE  H12A18760   3.687   1.326   6.547 -2.9518  0.1271 -2.8477
  167SOPE  H12B18761   3.770   1.174   6.621 -0.2132 -0.7475 -1.1407
  167SOPE   C1118762   3.603   1.133   6.480 -0.4102  0.1565 -0.1318
  167SOPE  H11A18763   3.530   1.192   6.421  0.0968  1.2857  0.3379
  167SOPE  H11B18764   3.544   1.113   6.572 -1.6401 -1.5840 -1.2325
  167SOPE     P18765   3.569   0.939   6.301  0.0444 -0.1697  0.1202
  167SOPE   O1318766   3.643   0.812   6.286 -0.4733  0.1696 -0.4584
  167SOPE   O1418767   3.562   1.024   6.184 -0.1994 -0.0407 -0.4442
  167SOPE   O1218768   3.644   1.008   6.418  0.1426  0.4210 -0.3595
  167SOPE   O1118769   3.427   0.904   6.365  0.0979  0.2880 -0.9878
  167SOPE    C118770   3.429   0.833   6.489 -0.6423  0.2500 -0.5906
  167SOPE    HA18771   3.501   0.883   6.558  2.3659 -2.7826 -1.2970
  167SOPE    HB18772   3.450   0.725   6.472 -1.1251 -0.5138  2.8866
  167SOPE    C218773   3.286   0.827   6.561 -0.9849  0.6457 -0.0760
  167SOPE    HS18774   3.211   0.792   6.488 -0.6562  1.2288 -0.6992
  167SOPE   O2118775   3.249   0.962   6.593 -0.1143 -0.1069  0.7978
  167SOPE   C2118776   3.125   0.980   6.613  0.0107 -0.0009 -1.0821
  167SOPE   O2218777   3.037   0.893   6.616 -0.4633 -0.1447  0.0650
  167SOPE   C2218778   3.093   1.125   6.651 -1.0617  0.1857 -0.2573
  167SOPE   H2R18779   2.982   1.135   6.642 -1.0460  0.3030 -0.3292
  167SOPE   H2S18780   3.148   1.198   6.587 -0.5064 -0.1345 -0.1517
  167SOPE    C318781   3.282   0.735   6.684  0.7752  0.7519 -0.3645
  167SOPE    HX18782   3.279   0.630   6.648  3.1377  0.2889  0.5674
  167SOPE    HY18783   3.187   0.750   6.740 -0.3506 -0.1889 -1.9442
  167SOPE   O3118784   3.401   0.740   6.762 -0.5096 -0.6912 -0.1663
  167SOPE   C3118785   3.388   0.776   6.890  0.2372  0.1721 -0.0008
  167SOPE   O3218786   3.281   0.795   6.949 -0.3285 -0.1116  0.2191
  167SOPE   C3218787   3.526   0.800   6.947  0.1035  0.2829  0.1130
  167SOPE   H2X18788   3.554   0.890   6.887 -2.2261  0.9347 -0.0776
  167SOPE   H2Y18789   3.584   0.717   6.902 -1.0225 -0.4994  0.0710
  167SOPE   C2318790   3.127   1.160   6.798  0.0860 -0.0113  0.4228
  167SOPE   H3R18791   3.125   1.271   6.805  1.0228 -0.0035  0.7122
  167SOPE   H3S18792   3.227   1.115   6.812 -0.4805 -1.0436  1.2570
  167SOPE   C2418793   3.023   1.098   6.884 -0.2402 -0.4328 -0.8468
  167SOPE   H4R18794   2.924   1.148   6.875  0.4625  1.1052 -0.2855
  167SOPE   H4S18795   3.011   0.989   6.867 -1.7480 -0.1970 -1.4677
  167SOPE   C2518796   3.063   1.108   7.034  0.4055 -0.5597  0.5363
  167SOPE   H5R18797   2.990   1.040   7.083 -0.8053 -0.1847 -0.6713
  167SOPE   H5S18798   3.168   1.073   7.036  1.0878  1.2072 -1.0671
  167SOPE   C2618799   3.065   1.247   7.100  0.4033  0.0300  0.6298
  167SOPE   H6R18800   3.117   1.321   7.035 -1.6546  0.5277 -0.5287
  167SOPE   H6S18801   2.959   1.281   7.102  0.5719  1.0645 -2.3177
  167SOPE   C2718802   3.123   1.243   7.231 -0.0162  0.6219  0.5176
  167SOPE   H7R18803   3.224   1.199   7.213 -1.0476 -2.4513  1.5249
  167SOPE   H7S18804   3.120   1.344   7.277 -1.1289 -0.2534  2.4975
  167SOPE   C2818805   3.060   1.145   7.338 -0.7028 -0.0336 -0.1504
  167SOPE   H8R18806   3.062   1.040   7.302 -1.4810 -0.3855  0.7803
  167SOPE   H8S18807   3.130   1.154   7.424 -0.6392  1.4049 -0.3291
  167SOPE   C2918808   2.922   1.188   7.381 -1.1273 -0.5208 -0.0732
  167SOPE   H9118809   2.841   1.163   7.311 -2.1318 -1.7704  1.4419
  167SOPE  C21018810   2.890   1.254   7.494 -0.3638 -0.2967  0.4723
  167SOPE  H10118811   2.786   1.271   7.524 -0.7312  2.4747 -1.9950
  167SOPE  C21118812   2.988   1.290   7.609 -0.1130 -0.0547  0.0340
  167SOPE  H11R18813   2.986   1.401   7.599 -1.0917 -0.0421  0.2660
  167SOPE  H11S18814   3.096   1.275   7.588  0.0919  0.8383  0.4150
  167SOPE  C21218815   2.946   1.262   7.752 -0.8236  0.1122 -0.0118
  167SOPE  H12R18816   3.038   1.270   7.815  0.8007 -0.0764 -2.2275
  167SOPE  H12S18817   2.900   1.164   7.775  1.7844 -0.8178  1.6990
  167SOPE  C21318818   2.849   1.373   7.808  0.0278 -0.6097  0.1637
  167SOPE  H13R18819   2.791   1.416   7.723 -1.7615 -0.4903  1.3697
  167SOPE  H13S18820   2.911   1.457   7.847 -0.5941  0.8704 -1.8820
  167SOPE  C21418821   2.753   1.326   7.907  0.0846  0.0170 -0.7923
  167SOPE  H14R18822   2.815   1.281   7.987  0.7389 -0.6962 -1.6883
  167SOPE  H14S18823   2.694   1.238   7.873 -1.9928  1.0664 -0.0788
  167SOPE  C21518824   2.652   1.419   7.979 -0.1587 -0.6253  0.1865
  167SOPE  H15R18825   2.577   1.465   7.911  0.9392  1.1785  0.1144
  167SOPE  H15S18826   2.720   1.500   8.015  0.2269 -0.2872 -1.2391
  167SOPE  C21618827   2.579   1.360   8.099  0.2936  0.4317  0.0485
  167SOPE  H16R18828   2.656   1.328   8.173  1.2080 -0.6382 -1.3173
  167SOPE  H16S18829   2.529   1.267   8.064 -0.6557  0.8501  0.2774
  167SOPE  C21718830   2.481   1.463   8.152  0.6512 -0.1042  0.3019
  167SOPE  H17R18831   2.406   1.502   8.080  0.7735  0.0975  0.2860
  167SOPE  H17S18832   2.543   1.551   8.176  1.4234 -0.3363 -0.7613
  167SOPE  C21818833   2.407   1.419   8.283  0.6231  0.5220  0.0367
  167SOPE  H18R18834   2.333   1.497   8.313  1.4283  0.6460  1.8362
  167SOPE  H18S18835   2.479   1.413   8.367  1.0537 -1.1659 -0.4261
  167SOPE  H18T18836   2.358   1.319   8.276  1.9241 -0.1333  0.0711
  167SOPE   C3318837   3.528   0.836   7.098 -0.7066  0.1484 -0.3816
  167SOPE   H3X18838   3.442   0.902   7.119 -1.2114 -0.1295 -1.4925
  167SOPE   H3Y18839   3.622   0.887   7.129 -0.7732  0.2826 -0.4005
  167SOPE   C3418840   3.520   0.717   7.189  0.4921  0.3201  0.4790
  167SOPE   H4X18841   3.608   0.652   7.169  0.6671  0.3175  1.2366
  167SOPE   H4Y18842   3.435   0.655   7.154 -0.2654 -0.5822  3.6633
  167SOPE   C3518843   3.528   0.744   7.341  0.7298 -0.3683 -0.4871
  167SOPE   H5X18844   3.451   0.823   7.357  0.4334 -0.9552  1.2385
  167SOPE   H5Y18845   3.625   0.789   7.369  0.2872  0.8250 -0.7984
  167SOPE   C3618846   3.489   0.620   7.423  0.1572  0.0966  0.3963
  167SOPE   H6X18847   3.391   0.583   7.385  1.1223 -1.6325 -0.5550
  167SOPE   H6Y18848   3.483   0.648   7.530  1.4838 -2.0629  1.1080
  167SOPE   C3718849   3.596   0.516   7.406  0.3052 -1.0279 -0.0625
  167SOPE   H7X18850   3.698   0.558   7.402  0.6401 -1.7691  0.5649
  167SOPE   H7Y18851   3.586   0.471   7.304 -1.4965  2.1529 -1.4469
  167SOPE   C3818852   3.592   0.404   7.508 -0.0668  0.5438  0.0957
  167SOPE   H8X18853   3.500   0.344   7.493  0.9737 -1.2210  0.4650
  167SOPE   H8Y18854   3.607   0.443   7.611  1.8704 -2.1148  0.9214
  167SOPE   C3918855   3.700   0.295   7.475  0.2232  0.2031 -0.5614
  167SOPE   H9X18856   3.796   0.351   7.481 -0.6726  1.6688  1.0020
  167SOPE   H9Y18857   3.694   0.261   7.370  2.2822 -0.7681 -0.4247
  167SOPE  C31018858   3.711   0.178   7.572  0.0721 -0.0111  0.1080
  167SOPE  H10X18859   3.733   0.219   7.673  0.4279  0.2460 -0.0693
  167SOPE  H10Y18860   3.795   0.113   7.538 -0.5539 -0.4207 -0.7018
  167SOPE  C31118861   3.589   0.082   7.573  0.4059  0.4557 -0.5252
  167SOPE  H11X18862   3.495   0.131   7.608  0.0269 -0.5573 -0.0894
  167SOPE  H11Y18863   3.603  -0.006   7.639 -1.4242  1.7270  1.7111
  167SOPE  C31218864   3.546   0.018   7.437  0.1865  0.1209 -0.9569
  167SOPE  H12X18865   3.631  -0.033   7.387 -0.2174 -1.1077 -0.4168
  167SOPE  H12Y18866   3.512   0.091   7.360 -2.5473  2.2601  2.0166
  167SOPE  C31318867   3.440  -0.092   7.459  0.3922  0.1469  0.8439
  167SOPE  H13X18868   3.470  -0.159   7.542 -0.9010  0.5611  1.6713
  167SOPE  H13Y18869   3.442  -0.150   7.364  0.9029  2.5947 -0.7258
  167SOPE  C31418870   3.294  -0.037   7.475 -0.9322 -0.0577 -0.4055
  167SOPE  H14X18871   3.260  -0.001   7.376 -0.1006 -0.7826 -0.9656
  167SOPE  H14Y18872   3.298   0.056   7.536  1.1389 -0.5395  0.2719
  167SOPE  C31518873   3.199  -0.150   7.528  0.3792 -0.0673  0.7614
  167SOPE  H15X18874   3.198  -0.241   7.464 -2.6606  2.2427 -2.8666
  167SOPE  H15Y18875   3.096  -0.108   7.522  0.5649  0.6573  2.1953
  167SOPE  C31618876   3.224  -0.184   7.679 -0.3126 -0.4213 -0.0799
  167SOPE  H16X18877   3.318  -0.238   7.698 -0.3712 -0.5535 -0.1661
  167SOPE  H16Y18878   3.147  -0.257   7.714  0.1362  0.2865  2.6410
  167SOPE  C31718879   3.207  -0.062   7.772 -0.2570  0.5078 -0.0939
  167SOPE  H17X18880   3.108  -0.013   7.761 -0.4457  0.5391  1.4063
  167SOPE  H17Y18881   3.285   0.013   7.745  0.9329 -0.3377  0.8475
  167SOPE  C31818882   3.223  -0.123   7.915  0.1958 -0.1003  0.3567
  167SOPE  H18X18883   3.132  -0.184   7.934 -0.1332 -0.1594 -1.2946
  167SOPE  H18Y18884   3.244  -0.037   7.983  0.4787 -0.1835  0.3751
  167SOPE  H18Z18885   3.313  -0.187   7.926  1.1890  1.0214 -0.9971
  168SOPE     N18886   2.253   5.778   6.498 -0.4619  0.0345 -1.1160
  168SOPE   HN118887   2.351   5.805   6.478  0.2199  0.1468  1.8750
  168SOPE   HN218888   2.198   5.754   6.413 -1.2062 -0.7692 -0.4343
  168SOPE   HN318889   2.223   5.864   6.548  0.6248 -0.5636  0.6364
  168SOPE   C1218890   2.277   5.640   6.575 -0.1949 -0.3842 -0.4363
  168SOPE  H12A18891   2.176   5.604   6.604 -0.5749  1.4369  0.6953
  168SOPE  H12B18892   2.335   5.662   6.667 -0.9413 -1.3797  0.2882
  168SOPE   C1118893   2.353   5.538   6.487  0.4515  0.1373  0.0536
  168SOPE  H11A18894   2.358   5.441   6.542  0.1133 -1.0679 -1.9368
  168SOPE  H11B18895   2.454   5.581   6.469  0.8755  0.0646  2.0748
  168SOPE     P18896   2.182   5.411   6.331 -0.6279  0.3188 -0.0512
  168SOPE   O1318897   2.253   5.294   6.267 -0.5097  0.2198 -0.5019
  168SOPE   O1418898   2.075   5.469   6.246 -0.3593  0.0002 -0.0044
  168SOPE   O1218899   2.290   5.526   6.360  0.5767  0.6771  0.0848
  168SOPE   O1118900   2.126   5.366   6.468 -0.1819 -0.3797 -0.4806
  168SOPE    C118901   2.006   5.299   6.494 -0.3438 -0.5618 -0.4019
  168SOPE    HA18902   1.929   5.324   6.418  1.2778 -0.4803 -2.0831
  168SOPE    HB18903   1.967   5.344   6.588  1.1417 -2.1779  1.0497
  168SOPE    C218904   2.032   5.151   6.508  0.3574  0.0036 -0.5174
  168SOPE    HS18905   2.069   5.103   6.414 -0.9233 -1.1930 -0.4486
  168SOPE   O2118906   1.907   5.086   6.555  0.3448  0.3294  0.4473
  168SOPE   C2118907   1.816   5.087   6.454  0.2022 -0.4430  0.5394
  168SOPE   O2218908   1.835   5.097   6.338 -0.1503 -0.4872 -0.3392
  168SOPE   C2218909   1.676   5.074   6.509  0.6288 -0.4039  0.4283
  168SOPE   H2R18910   1.674   5.031   6.611 -2.9300 -1.5508  0.0361
  168SOPE   H2S18911   1.616   5.007   6.443 -0.1865  2.5066 -2.0458
  168SOPE    C318912   2.140   5.128   6.618 -0.4267 -0.2912  0.7815
  168SOPE    HX18913   2.234   5.179   6.589 -2.4042  2.1492 -1.9192
  168SOPE    HY18914   2.159   5.018   6.621 -0.5140 -0.4113 -1.3158
  168SOPE   O3118915   2.091   5.173   6.747  0.0383 -0.6316 -0.0481
  168SOPE   C3118916   2.154   5.279   6.797  0.6129  0.1093  0.7384
  168SOPE   O3218917   2.242   5.346   6.749 -0.7455 -0.3556 -0.0630
  168SOPE   C3218918   2.093   5.296   6.935  0.2394  0.7911 -0.0875
  168SOPE   H2X18919   2.157   5.232   7.000  0.1987  2.5747  1.7971
  168SOPE   H2Y18920   1.992   5.250   6.944  0.8249 -0.2094  1.9983
  168SOPE   C2318921   1.606   5.214   6.521 -0.4079  0.0059  0.2668
  168SOPE   H3R18922   1.498   5.192   6.514 -0.7009  1.5928 -1.0726
  168SOPE   H3S18923   1.611   5.266   6.423 -1.7178 -0.7961 -0.2503
  168SOPE   C2418924   1.642   5.305   6.635  0.7698 -0.2551 -0.8483
  168SOPE   H4R18925   1.614   5.274   6.738  0.2056 -1.1395 -1.2610
  168SOPE   H4S18926   1.753   5.305   6.640  0.7501  0.2533 -0.1069
  168SOPE   C2518927   1.593   5.449   6.614 -0.7633 -0.2825 -0.5408
  168SOPE   H5R18928   1.664   5.495   6.542  2.1737 -1.6549  1.2841
  168SOPE   H5S18929   1.485   5.455   6.589 -1.1121  0.2884  1.0061
  168SOPE   C2618930   1.619   5.536   6.741  0.1247  0.0541  0.0142
  168SOPE   H6R18931   1.718   5.499   6.774 -0.0674 -1.3271 -0.9145
  168SOPE   H6S18932   1.633   5.642   6.713  0.0520  0.2232  0.5934
  168SOPE   C2718933   1.532   5.525   6.861  1.1330 -0.3147 -0.2134
  168SOPE   H7R18934   1.434   5.562   6.824  0.9822  3.0254  2.9388
  168SOPE   H7S18935   1.520   5.429   6.916 -0.8256  0.1737  0.3048
  168SOPE   C2818936   1.564   5.610   6.987  0.2667  0.8481  0.3002
  168SOPE   H8R18937   1.483   5.574   7.054 -0.9066 -0.7606 -1.8250
  168SOPE   H8S18938   1.668   5.583   7.014 -0.1641  0.5309  1.6873
  168SOPE   C2918939   1.565   5.757   6.967 -0.1367  0.1723  0.5014
  168SOPE   H9118940   1.599   5.785   6.866  0.4610 -1.0850  0.3328
  168SOPE  C21018941   1.524   5.848   7.051  0.1775 -0.7412 -0.8535
  168SOPE  H10118942   1.565   5.948   7.029 -1.0206 -0.1553 -0.5530
  168SOPE  C21118943   1.459   5.828   7.189  0.4592 -0.8313  0.3521
  168SOPE  H11R18944   1.425   5.723   7.185 -1.7113 -0.3443  3.2805
  168SOPE  H11S18945   1.369   5.892   7.195  0.2384 -0.7389 -2.5267
  168SOPE  C21218946   1.557   5.848   7.301 -0.0680 -0.3221 -0.1683
  168SOPE  H12R18947   1.605   5.947   7.295  0.1276 -0.4693 -1.2655
  168SOPE  H12S18948   1.635   5.769   7.294  1.6432  0.9813  2.5972
  168SOPE  C21318949   1.492   5.833   7.438  0.6127 -0.3141  0.0123
  168SOPE  H13R18950   1.422   5.748   7.450  0.3276  0.1824  2.2688
  168SOPE  H13S18951   1.424   5.919   7.459 -0.7565 -1.1741 -0.7508
  168SOPE  C21418952   1.608   5.837   7.544 -0.3248 -0.1074  0.0477
  168SOPE  H14R18953   1.679   5.916   7.511 -1.0014 -0.0186 -1.2250
  168SOPE  H14S18954   1.658   5.738   7.539  1.7739  0.8526  0.5613
  168SOPE  C21518955   1.560   5.847   7.690 -0.0075 -0.5017 -0.1874
  168SOPE  H15R18956   1.504   5.754   7.715 -1.8939  0.5798 -0.2035
  168SOPE  H15S18957   1.492   5.935   7.692 -1.1833 -1.3784 -0.2614
  168SOPE  C21618958   1.684   5.864   7.784  0.1290  0.2315 -0.0787
  168SOPE  H16R18959   1.742   5.954   7.754  1.3328 -0.8353 -1.0850
  168SOPE  H16S18960   1.752   5.777   7.775 -1.0833 -0.6651 -1.0261
  168SOPE  C21718961   1.646   5.869   7.936 -0.5666 -0.0690  0.4380
  168SOPE  H17R18962   1.620   5.766   7.969  2.1926 -1.2738 -0.8075
  168SOPE  H17S18963   1.562   5.940   7.948  0.0111  0.3687  2.1139
  168SOPE  C21818964   1.762   5.924   8.016  0.1659 -0.0457 -0.4092
  168SOPE  H18R18965   1.826   5.836   8.039 -1.0462 -1.7547 -3.0445
  168SOPE  H18S18966   1.713   5.961   8.109 -1.3074  1.0751 -1.5725
  168SOPE  H18T18967   1.800   6.020   7.975  0.3549 -0.1677 -0.5184
  168SOPE   C3318968   2.090   5.442   6.997 -0.0510 -0.2129  0.3165
  168SOPE   H3X18969   2.043   5.516   6.929  1.6698  1.0852  0.4963
  168SOPE   H3Y18970   2.194   5.475   7.018 -0.5267  0.7077  1.3310
  168SOPE   C3418971   2.023   5.434   7.137 -0.1692  0.1875  0.0288
  168SOPE   H4X18972   2.054   5.335   7.176 -1.8601 -0.9046 -1.2526
  168SOPE   H4Y18973   1.913   5.422   7.129 -0.3000  1.2230  0.1707
  168SOPE   C3518974   2.053   5.553   7.228  0.4896  0.2168  0.3886
  168SOPE   H5X18975   1.984   5.633   7.195  1.6054  1.1494  0.2364
  168SOPE   H5Y18976   2.159   5.578   7.205  0.5015 -0.2731 -0.1137
  168SOPE   C3618977   2.046   5.509   7.377 -0.1673 -0.7537  0.3491
  168SOPE   H6X18978   1.952   5.450   7.362 -0.3835 -0.0811 -1.1762
  168SOPE   H6Y18979   2.019   5.586   7.452 -1.4876 -1.7867  0.9716
  168SOPE   C3718980   2.163   5.423   7.433 -0.2068 -0.3684 -0.0359
  168SOPE   H7X18981   2.248   5.494   7.439 -0.6086  0.0727  0.5892
  168SOPE   H7Y18982   2.194   5.339   7.367  1.3669  1.1902 -1.3672
  168SOPE   C3818983   2.158   5.369   7.575 -0.1354 -0.6191 -0.5314
  168SOPE   H8X18984   2.242   5.298   7.591  0.2505 -0.3356 -1.2565
  168SOPE   H8Y18985   2.061   5.315   7.584  0.0260 -0.5629  2.4160
  168SOPE   C3918986   2.151   5.475   7.689  0.8210  0.0320 -0.5316
  168SOPE   H9X18987   2.073   5.552   7.673 -0.4136 -1.0156  0.2471
  168SOPE   H9Y18988   2.251   5.523   7.682  1.7729 -1.7857 -0.2224
  168SOPE  C31018989   2.141   5.414   7.834  0.0993 -0.0787  0.3198
  168SOPE  H10X18990   2.225   5.342   7.845  1.7819  1.2236 -2.6213
  168SOPE  H10Y18991   2.041   5.366   7.843  0.9084 -1.5826  1.7627
  168SOPE  C31118992   2.147   5.531   7.935 -0.0538 -0.5283  0.0254
  168SOPE  H11X18993   2.060   5.596   7.912 -0.7792 -1.2822  0.5505
  168SOPE  H11Y18994   2.241   5.587   7.921  0.6075 -1.7737 -0.7319
  168SOPE  C31218995   2.144   5.482   8.073 -0.7383  0.2262 -0.1555
  168SOPE  H12X18996   2.213   5.395   8.082 -0.0291  0.7141 -0.8207
  168SOPE  H12Y18997   2.044   5.440   8.100  0.1511 -1.5408  0.5277
  168SOPE  C31318998   2.186   5.580   8.177  0.1825  1.0807  0.1558
  168SOPE  H13X18999   2.150   5.684   8.157 -0.2882  0.9080  0.1093
  168SOPE  H13Y19000   2.297   5.583   8.164  0.0722 -1.8003 -2.4494
  168SOPE  C31419001   2.156   5.530   8.313  0.2634 -0.1306 -0.3416
  168SOPE  H14X19002   2.193   5.426   8.311  0.6202 -0.1304  2.3914
  168SOPE  H14Y19003   2.046   5.520   8.325  0.2467 -1.5052 -1.4054
  168SOPE  C31519004   2.214   5.607   8.431 -0.5268 -0.6250  0.6449
  168SOPE  H15X19005   2.324   5.611   8.417 -0.6380 -0.3730 -0.2256
  168SOPE  H15Y19006   2.219   5.560   8.532  2.0033  1.2133  1.4977
  168SOPE  C31619007   2.163   5.755   8.448 -0.1838  0.5195 -0.3652
  168SOPE  H16X19008   2.205   5.795   8.353 -2.3505  0.3786 -1.4510
  168SOPE  H16Y19009   2.229   5.806   8.521 -0.1690  1.1378 -0.8054
  168SOPE  C31719010   2.015   5.784   8.458  0.4394 -0.3204 -0.2277
  168SOPE  H17X19011   1.980   5.774   8.563 -2.9314 -1.1089 -1.2829
  168SOPE  H17Y19012   1.946   5.721   8.398  0.0520  0.6033 -0.7728
  168SOPE  C31819013   1.991   5.936   8.419 -0.2780  0.6507  0.5431
  168SOPE  H18X19014   2.059   6.001   8.478  0.3581 -2.3248  3.3859
  168SOPE  H18Y19015   1.888   5.970   8.442 -0.8600  1.0840 -2.3435
  168SOPE  H18Z19016   2.008   5.948   8.310 -1.0586  0.2899  0.3786
  169SOPE     N19017   4.416   0.217   6.143 -0.4617  0.6271 -0.4551
  169SOPE   HN119018   4.484   0.295   6.156  1.6928 -1.3276  0.6557
  169SOPE   HN219019   4.332   0.257   6.096  0.1176  1.5312 -0.7641
  169SOPE   HN319020   4.389   0.179   6.236 -1.6029  0.4991 -0.8229
  169SOPE   C1219021   4.475   0.124   6.052  0.5046 -0.0269 -0.2992
  169SOPE  H12A19022   4.536   0.180   5.977 -0.2797  0.3102 -0.7004
  169SOPE  H12B19023   4.397   0.064   6.001  0.5192  1.0013 -1.5791
  169SOPE   C1119024   4.562   0.028   6.136  0.1311  0.1188 -0.3475
  169SOPE  H11A19025   4.652   0.075   6.180  0.5302 -1.0351  0.0996
  169SOPE  H11B19026   4.607  -0.041   6.062 -0.5887  0.3029 -0.9731
  169SOPE     P19027   4.547  -0.168   6.312 -0.1349  0.1291 -0.0941
  169SOPE   O1319028   4.550  -0.281   6.215  0.2996  0.5305 -0.3672
  169SOPE   O1419029   4.457  -0.196   6.427  0.1203  0.2907 -0.4175
  169SOPE   O1219030   4.489  -0.041   6.231 -0.0842  0.2751  0.1329
  169SOPE   O1119031   4.688  -0.118   6.363  0.0535 -0.1782  0.0451
  169SOPE    C119032   4.702  -0.007   6.442  0.3323  0.0175  0.4170
  169SOPE    HA19033   4.608   0.051   6.449 -0.0929 -0.3789 -1.3413
  169SOPE    HB19034   4.782   0.059   6.401  0.7492 -0.8844 -0.2641
  169SOPE    C219035   4.733  -0.053   6.584 -0.2022 -0.0002  0.2721
  169SOPE    HS19036   4.654  -0.131   6.599 -0.7056 -0.1522 -2.5904
  169SOPE   O2119037   4.710   0.059   6.674 -0.8217 -0.0417 -0.1230
  169SOPE   C2119038   4.590   0.092   6.713  0.6679 -0.3024  1.0138
  169SOPE   O2219039   4.482   0.041   6.680  0.0362  0.0715  0.0576
  169SOPE   C2219040   4.592   0.222   6.795  0.8122  0.1792 -0.1664
  169SOPE   H2R19041   4.485   0.233   6.823  0.2473  2.2037 -2.7291
  169SOPE   H2S19042   4.617   0.308   6.730  1.7779 -0.5089 -0.7319
  169SOPE    C319043   4.871  -0.117   6.598 -0.3291 -0.2138  0.0688
  169SOPE    HX19044   4.941  -0.070   6.526 -1.9735  1.1990 -0.6448
  169SOPE    HY19045   4.857  -0.227   6.587  0.3857 -0.6701  2.8995
  169SOPE   O3119046   4.938  -0.115   6.725 -0.6135  0.5851  0.3056
  169SOPE   C3119047   4.871  -0.157   6.827 -0.0675 -0.2272 -0.0730
  169SOPE   O3219048   4.763  -0.211   6.836 -0.2963 -0.0725 -0.9736
  169SOPE   C3219049   4.958  -0.122   6.957  0.1192  0.5246 -0.2782
  169SOPE   H2X19050   4.940  -0.015   6.979 -3.2435 -0.1278  0.5901
  169SOPE   H2Y19051   5.065  -0.143   6.933  0.1197  0.8769 -0.6053
  169SOPE   C2319052   4.687   0.222   6.910 -0.3943 -0.3211 -0.4775
  169SOPE   H3R19053   4.680   0.327   6.946 -1.2700 -0.2169 -0.9310
  169SOPE   H3S19054   4.792   0.202   6.880  0.5190  0.5852  1.8933
  169SOPE   C2419055   4.637   0.140   7.032  0.4005 -0.0930 -0.5303
  169SOPE   H4R19056   4.530   0.156   7.056  0.9360  0.0799  2.0361
  169SOPE   H4S19057   4.643   0.032   7.011 -3.7406 -0.2742 -1.5941
  169SOPE   C2519058   4.701   0.161   7.169  0.2996 -0.2568  0.8421
  169SOPE   H5R19059   4.808   0.144   7.147 -0.6107 -0.8563 -4.4833
  169SOPE   H5S19060   4.696   0.269   7.191 -0.5114 -0.2663  0.7323
  169SOPE   C2619061   4.644   0.078   7.280 -0.8904  0.1399  0.0489
  169SOPE   H6R19062   4.534   0.088   7.289 -0.9589 -1.2059  1.0826
  169SOPE   H6S19063   4.649  -0.032   7.259 -3.5104  0.1014 -0.8233
  169SOPE   C2719064   4.715   0.107   7.414 -0.5253  0.3384 -0.6615
  169SOPE   H7R19065   4.748   0.021   7.476  2.5174  1.1369 -1.0183
  169SOPE   H7S19066   4.815   0.146   7.384 -0.8659  1.9575  0.2128
  169SOPE   C2819067   4.637   0.206   7.497  0.0525 -0.5316 -0.6527
  169SOPE   H8R19068   4.621   0.298   7.438  0.3560  0.5331  0.8830
  169SOPE   H8S19069   4.539   0.162   7.523 -0.0449 -0.2715 -0.5841
  169SOPE   C2919070   4.712   0.245   7.625 -0.1092  0.8563  0.0267
  169SOPE   H9119071   4.820   0.256   7.606  0.5501 -0.0673  2.8545
  169SOPE  C21019072   4.666   0.249   7.753  0.7357 -0.2029  0.5286
  169SOPE  H10119073   4.743   0.275   7.827 -0.1549  1.1026  1.0312
  169SOPE  C21119074   4.524   0.222   7.796 -0.3888 -0.4019  0.8709
  169SOPE  H11R19075   4.494   0.125   7.752 -1.4425 -0.5881  1.9521
  169SOPE  H11S19076   4.450   0.294   7.756  0.3842 -0.4478 -0.7307
  169SOPE  C21219077   4.504   0.209   7.948  0.0105  0.2337 -0.0722
  169SOPE  H12R19078   4.506   0.316   7.979 -0.8078  0.4291 -0.6550
  169SOPE  H12S19079   4.579   0.147   8.000 -0.5080 -0.9657 -0.7164
  169SOPE  C21319080   4.360   0.169   7.987  0.7032 -0.4841 -0.3044
  169SOPE  H13R19081   4.321   0.082   7.930 -3.0714  1.7812 -1.5706
  169SOPE  H13S19082   4.294   0.255   7.964  1.3404  0.4744  1.3162
  169SOPE  C21419083   4.360   0.146   8.138  0.7462 -0.1840  0.4608
  169SOPE  H14R19084   4.405   0.242   8.172 -0.4238  1.1331 -1.5119
  169SOPE  H14S19085   4.435   0.065   8.150 -0.2657 -1.3743 -0.9778
  169SOPE  C21519086   4.227   0.119   8.198  0.2779  0.3325  0.1851
  169SOPE  H15R19087   4.146   0.177   8.149  1.0681  0.6286 -0.8321
  169SOPE  H15S19088   4.241   0.137   8.307  1.3236  0.7573 -0.0071
  169SOPE  C21619089   4.201  -0.029   8.196  0.4741  0.0688  0.1749
  169SOPE  H16R19090   4.277  -0.077   8.261  0.5157  3.4046  2.9287
  169SOPE  H16S19091   4.196  -0.078   8.097 -1.2517 -1.8328  1.1310
  169SOPE  C21719092   4.066  -0.059   8.254 -0.1935  0.2045 -0.1837
  169SOPE  H17R19093   3.982  -0.013   8.198 -1.5388 -0.5614  1.1413
  169SOPE  H17S19094   4.067  -0.016   8.356  3.0765 -1.6439  0.7347
  169SOPE  C21819095   4.042  -0.210   8.265 -0.6348 -0.0737 -0.3035
  169SOPE  H18R19096   4.064  -0.259   8.168  2.7566 -0.2121  0.4188
  169SOPE  H18S19097   3.941  -0.243   8.296 -0.5673 -0.2426 -0.2631
  169SOPE  H18T19098   4.119  -0.254   8.331 -0.8677  1.1443  0.8313
  169SOPE   C3319099   4.906  -0.211   7.076  0.4741  0.0714 -0.0237
  169SOPE   H3X19100   4.953  -0.311   7.063  2.1067  0.2361  3.6146
  169SOPE   H3Y19101   4.798  -0.235   7.084  0.4788  0.2824  0.6538
  169SOPE   C3419102   4.957  -0.155   7.212 -0.3123 -0.7438 -0.2180
  169SOPE   H4X19103   4.905  -0.058   7.226  3.2862  1.3405 -0.0397
  169SOPE   H4Y19104   5.065  -0.130   7.200 -0.9271  1.5638 -1.6112
  169SOPE   C3519105   4.915  -0.243   7.335 -0.3186  0.2585 -0.1007
  169SOPE   H5X19106   4.963  -0.341   7.313 -1.1500  0.5016 -3.5572
  169SOPE   H5Y19107   4.810  -0.280   7.341 -0.0759 -0.5446 -0.6375
  169SOPE   C3619108   4.953  -0.190   7.469  0.1282  0.3038 -0.0424
  169SOPE   H6X19109   4.910  -0.090   7.490 -0.7908 -0.0551 -0.1781
  169SOPE   H6Y19110   5.061  -0.163   7.466  0.4433 -0.8743  0.0588
  169SOPE   C3719111   4.928  -0.284   7.583 -0.0550  0.0803 -0.4842
  169SOPE   H7X19112   5.013  -0.351   7.608  0.2887 -0.3755 -2.6420
  169SOPE   H7Y19113   4.848  -0.354   7.549  0.6434 -0.6431 -0.6682
  169SOPE   C3819114   4.886  -0.219   7.717  0.2770  0.7030 -0.6146
  169SOPE   H8X19115   4.961  -0.139   7.735 -0.4543  1.3006 -0.1127
  169SOPE   H8Y19116   4.789  -0.165   7.705 -0.3555 -0.5699 -1.4395
  169SOPE   C3919117   4.888  -0.313   7.839 -0.1545 -0.7288 -0.5890
  169SOPE   H9X19118   4.991  -0.323   7.880 -0.1157  0.6723 -0.2971
  169SOPE   H9Y19119   4.847  -0.414   7.817 -1.4592 -0.0739 -1.2740
  169SOPE  C31019120   4.812  -0.248   7.952 -0.4025  0.0092 -0.3971
  169SOPE  H10X19121   4.792  -0.312   8.041 -1.1410  0.7884  0.0137
  169SOPE  H10Y19122   4.718  -0.215   7.902 -1.7579 -2.2155  0.5273
  169SOPE  C31119123   4.882  -0.114   7.997 -0.0688  0.0803 -0.2130
  169SOPE  H11X19124   4.872  -0.036   7.919  2.0840  0.7934  0.1577
  169SOPE  H11Y19125   4.991  -0.133   8.006  0.0113 -0.4238 -1.9931
  169SOPE  C31219126   4.860  -0.063   8.142 -0.4621 -0.2519  0.0310
  169SOPE  H12X19127   4.866  -0.154   8.206 -2.9040 -1.2648 -1.0388
  169SOPE  H12Y19128   4.757  -0.025   8.159 -0.8285 -0.7412 -1.0516
  169SOPE  C31319129   4.955   0.052   8.187 -0.0207 -0.0492  0.3939
  169SOPE  H13X19130   4.955   0.135   8.113  2.8352 -2.1481 -2.2030
  169SOPE  H13Y19131   5.056   0.006   8.198 -0.2115 -0.0776  2.3258
  169SOPE  C31419132   4.924   0.092   8.327 -0.6199 -0.3498 -1.8063
  169SOPE  H14X19133   4.919  -0.005   8.381 -0.5138 -0.9126 -2.7693
  169SOPE  H14Y19134   4.827   0.144   8.335 -1.5479 -2.2753  0.5356
  169SOPE  C31519135   5.042   0.170   8.389  0.0749  0.2203  0.1353
  169SOPE  H15X19136   5.136   0.111   8.387 -1.5620 -2.5616 -0.2637
  169SOPE  H15Y19137   5.010   0.167   8.496 -4.4338  1.7681 -0.9531
  169SOPE  C31619138   5.055   0.312   8.339  0.5427  0.0161  0.4603
  169SOPE  H16X19139   4.958   0.365   8.342  0.0451 -0.6397 -1.9082
  169SOPE  H16Y19140   5.077   0.306   8.230 -1.5277  0.3913 -0.0170
  169SOPE  C31719141   5.155   0.404   8.406 -0.2530 -0.4625  0.3551
  169SOPE  H17X19142   5.257   0.365   8.385  0.1525  0.7628 -0.0915
  169SOPE  H17Y19143   5.152   0.416   8.517  2.2393 -0.7513  0.5105
  169SOPE  C31819144   5.144   0.547   8.350 -0.4939  0.3524 -1.2647
  169SOPE  H18X19145   5.044   0.586   8.378  0.3560  1.2685  0.7171
  169SOPE  H18Y19146   5.154   0.550   8.240  1.0092 -2.0357 -1.2757
  169SOPE  H18Z19147   5.217   0.615   8.400 -1.1258 -0.6878  1.2208
  170SOPE     N19148   4.749   4.130   6.354  0.3812 -0.6167 -0.3910
  170SOPE   HN119149   4.844   4.110   6.316  1.1472  1.0065  0.5848
  170SOPE   HN219150   4.763   4.135   6.457 -1.0029 -1.2165 -0.1543
  170SOPE   HN319151   4.680   4.053   6.342 -1.9400  1.3342 -0.2528
  170SOPE   C1219152   4.696   4.251   6.279 -0.2704 -0.0244 -0.2532
  170SOPE  H12A19153   4.650   4.224   6.182 -0.7995  0.3926 -0.1222
  170SOPE  H12B19154   4.777   4.327   6.276 -0.8527  0.5765 -1.3333
  170SOPE   C1119155   4.578   4.319   6.351  0.0076  0.4974 -0.0548
  170SOPE  H11A19156   4.492   4.250   6.355  0.0548  0.4367 -0.0865
  170SOPE  H11B19157   4.549   4.412   6.298  1.3357  1.0849  0.2029
  170SOPE     P19158   4.656   4.490   6.522 -0.1908 -0.3047  0.1641
  170SOPE   O1319159   4.734   4.554   6.410  0.5429  0.5236  0.1698
  170SOPE   O1419160   4.716   4.496   6.662  0.3671 -0.3841  0.1000
  170SOPE   O1219161   4.625   4.338   6.484  0.0309 -0.2378 -0.0538
  170SOPE   O1119162   4.513   4.545   6.527 -0.5315 -0.5048 -0.5236
  170SOPE    C119163   4.402   4.465   6.567  0.6612  0.4029 -0.2259
  170SOPE    HA19164   4.399   4.365   6.518  2.3842 -0.7128  1.7671
  170SOPE    HB19165   4.308   4.520   6.545  1.1820  0.5645 -2.2628
  170SOPE    C219166   4.390   4.429   6.728  0.4861 -0.2050  0.3376
  170SOPE    HS19167   4.391   4.525   6.784 -0.2446  0.2273 -0.3600
  170SOPE   O2119168   4.489   4.333   6.772  0.1277 -0.4781 -0.3178
  170SOPE   C2119169   4.558   4.363   6.879 -0.0995 -0.0204  0.7804
  170SOPE   O2219170   4.558   4.467   6.940 -0.1281  0.1843  0.3077
  170SOPE   C2219171   4.627   4.237   6.911  0.7264  0.4143 -0.8195
  170SOPE   H2R19172   4.703   4.226   6.830  1.7246 -0.2265  0.1694
  170SOPE   H2S19173   4.559   4.150   6.900  0.1792 -0.0535  4.2639
  170SOPE    C319174   4.244   4.376   6.765  0.1119 -0.2942  0.9453
  170SOPE    HX19175   4.213   4.279   6.723  0.5231  0.3795 -1.0192
  170SOPE    HY19176   4.170   4.450   6.728  3.3005  1.0603 -3.7242
  170SOPE   O3119177   4.246   4.363   6.907  0.2832  0.4887  0.1985
  170SOPE   C3119178   4.190   4.465   6.974 -0.4569 -0.4417  0.0363
  170SOPE   O3219179   4.150   4.566   6.922 -0.0360 -0.0120  0.4317
  170SOPE   C3219180   4.216   4.445   7.126  0.4019 -0.0421 -0.3830
  170SOPE   H2X19181   4.317   4.482   7.152  0.3683 -1.1532  1.5230
  170SOPE   H2Y19182   4.225   4.335   7.138  0.6612 -0.1214 -1.2768
  170SOPE   C2319183   4.687   4.230   7.054 -0.0671 -0.6685  0.0320
  170SOPE   H3R19184   4.777   4.293   7.065 -1.6953  1.9805 -0.7215
  170SOPE   H3S19185   4.725   4.126   7.049  0.6304 -0.4092 -0.1569
  170SOPE   C2419186   4.570   4.243   7.160  0.3443 -0.0419 -0.5777
  170SOPE   H4R19187   4.529   4.345   7.147  1.2974  0.3305 -0.7456
  170SOPE   H4S19188   4.497   4.165   7.129  1.2047 -0.7039 -0.9885
  170SOPE   C2519189   4.615   4.218   7.301  0.2098  0.2024 -0.1158
  170SOPE   H5R19190   4.616   4.110   7.330 -0.0694  0.1941 -0.1372
  170SOPE   H5S19191   4.722   4.243   7.317 -0.1260  1.7377 -0.1356
  170SOPE   C2619192   4.518   4.278   7.401 -0.7822 -0.1176  0.1526
  170SOPE   H6R19193   4.485   4.380   7.371  1.0346  0.3164 -0.4497
  170SOPE   H6S19194   4.427   4.213   7.404 -0.4392 -0.5602  1.4533
  170SOPE   C2719195   4.572   4.281   7.544 -0.1569 -0.1230 -0.1103
  170SOPE   H7R19196   4.581   4.181   7.592  3.3819  0.1445  0.0447
  170SOPE   H7S19197   4.668   4.336   7.541 -0.6549  0.8189  0.6179
  170SOPE   C2819198   4.481   4.375   7.624 -0.8190 -0.3146 -0.2940
  170SOPE   H8R19199   4.476   4.468   7.563  1.1026 -0.0285 -0.0874
  170SOPE   H8S19200   4.380   4.330   7.616 -0.9783  0.0977 -0.5881
  170SOPE   C2919201   4.532   4.414   7.758  0.0191 -0.8069  0.5689
  170SOPE   H9119202   4.534   4.524   7.770 -0.2590 -0.6668 -0.5337
  170SOPE  C21019203   4.525   4.355   7.878 -0.3610 -0.4881 -0.0362
  170SOPE  H10119204   4.604   4.397   7.943 -1.4426  2.0148 -0.2060
  170SOPE  C21119205   4.468   4.218   7.911  0.6883  0.2912 -0.1976
  170SOPE  H11R19206   4.465   4.149   7.825 -2.0363  1.5077 -1.2178
  170SOPE  H11S19207   4.361   4.224   7.942  1.0663  1.4833  1.0195
  170SOPE  C21219208   4.542   4.155   8.026  0.4938  0.0452 -0.2195
  170SOPE  H12R19209   4.558   4.240   8.096 -1.6995 -0.3958  0.8941
  170SOPE  H12S19210   4.633   4.106   7.986  0.8907  0.4433  0.1853
  170SOPE  C21319211   4.455   4.046   8.091 -0.4705  0.2462 -0.5435
  170SOPE  H13R19212   4.433   3.964   8.019 -1.0871 -1.0308  1.0425
  170SOPE  H13S19213   4.363   4.098   8.125 -0.2607  0.6791 -0.6172
  170SOPE  C21419214   4.511   3.978   8.216  0.4369 -0.3376 -0.3516
  170SOPE  H14R19215   4.578   3.902   8.171  0.5107 -0.1851 -0.5001
  170SOPE  H14S19216   4.431   3.930   8.276  1.4657 -0.1474  1.2338
  170SOPE  C21519217   4.595   4.063   8.305 -0.1092 -0.5402  0.5363
  170SOPE  H15R19218   4.549   4.164   8.317  1.5443  0.6213 -1.9707
  170SOPE  H15S19219   4.690   4.095   8.257 -1.5336  0.3478 -1.9105
  170SOPE  C21619220   4.621   4.014   8.455 -0.5508 -0.0102  0.0649
  170SOPE  H16R19221   4.675   4.102   8.498 -1.3446 -1.1164  3.7134
  170SOPE  H16S19222   4.698   3.934   8.460  0.0425  0.5220 -0.3841
  170SOPE  C21719223   4.506   3.963   8.533 -0.2696 -0.0343 -0.4419
  170SOPE  H17R19224   4.462   3.878   8.477 -1.7403  1.1824 -1.1691
  170SOPE  H17S19225   4.425   4.038   8.531 -0.8321 -0.6243 -2.9269
  170SOPE  C21819226   4.535   3.915   8.677 -0.0603 -0.1305  0.2136
  170SOPE  H18R19227   4.629   3.859   8.695 -0.4109 -0.3054  1.6241
  170SOPE  H18S19228   4.448   3.851   8.700  0.0434 -0.2705  0.2152
  170SOPE  H18T19229   4.530   4.006   8.742 -0.9486  1.1235 -1.5265
  170SOPE   C3319230   4.109   4.502   7.215 -0.3655 -0.3508 -0.0106
  170SOPE   H3X19231   4.009   4.472   7.177  0.1311 -2.9886  0.6289
  170SOPE   H3Y19232   4.104   4.613   7.204 -3.4743 -0.5371 -1.7038
  170SOPE   C3419233   4.124   4.449   7.364 -0.1278 -0.3875  0.2452
  170SOPE   H4X19234   4.220   4.487   7.408  0.3945  2.0426 -2.6525
  170SOPE   H4Y19235   4.119   4.339   7.357 -0.2530 -0.3192 -0.8512
  170SOPE   C3519236   4.006   4.499   7.444  0.1954 -0.0507 -0.5712
  170SOPE   H5X19237   3.906   4.451   7.432 -0.4304  1.2151 -0.6944
  170SOPE   H5Y19238   3.989   4.602   7.406  1.0415  0.2348 -0.1829
  170SOPE   C3619239   4.012   4.496   7.599 -0.5349  0.1896  0.0717
  170SOPE   H6X19240   3.919   4.528   7.651  0.2191  0.1832  1.4601
  170SOPE   H6Y19241   4.084   4.568   7.642  0.7221 -0.0450 -1.5515
  170SOPE   C3719242   4.045   4.348   7.640 -0.3584  0.4627 -0.8586
  170SOPE   H7X19243   4.153   4.331   7.618 -0.0769  0.1071  0.7275
  170SOPE   H7Y19244   3.995   4.280   7.568 -0.3069 -0.4303 -0.0692
  170SOPE   C3819245   4.019   4.316   7.791  0.2412 -0.3284 -0.2477
  170SOPE   H8X19246   4.041   4.207   7.798  0.5931 -0.2274  0.2541
  170SOPE   H8Y19247   3.917   4.343   7.826 -0.4683 -0.6682 -1.9434
  170SOPE   C3919248   4.110   4.397   7.891  0.8552  0.6191  0.2399
  170SOPE   H9X19249   4.068   4.500   7.893 -0.1043  0.2458  2.5214
  170SOPE   H9Y19250   4.211   4.400   7.844  0.8352  2.0692  0.2334
  170SOPE  C31019251   4.112   4.359   8.034  0.1082  0.5754 -0.6239
  170SOPE  H10X19252   4.172   4.266   8.040  0.9050  1.0463 -1.1214
  170SOPE  H10Y19253   4.011   4.349   8.080  0.6747 -0.1278  0.5137
  170SOPE  C31119254   4.184   4.466   8.120  0.0640  0.5531  0.0435
  170SOPE  H11X19255   4.120   4.557   8.120 -1.3725 -0.4130  1.1153
  170SOPE  H11Y19256   4.278   4.481   8.063  1.1020 -1.7232  1.0362
  170SOPE  C31219257   4.222   4.411   8.264  0.1189  0.3721 -0.3567
  170SOPE  H12X19258   4.283   4.318   8.252 -0.5990 -0.0610 -0.7519
  170SOPE  H12Y19259   4.126   4.389   8.315 -0.9795  2.9156 -1.1943
  170SOPE  C31319260   4.299   4.509   8.337  0.4336 -0.5203 -0.2892
  170SOPE  H13X19261   4.256   4.609   8.358  1.4208 -0.0640 -0.3835
  170SOPE  H13Y19262   4.395   4.536   8.287 -0.2667  0.1681 -1.2837
  170SOPE  C31419263   4.334   4.450   8.477 -0.2642  0.7437 -0.0589
  170SOPE  H14X19264   4.377   4.349   8.459 -0.9511 -0.1507  2.7122
  170SOPE  H14Y19265   4.238   4.446   8.534 -0.8459 -0.3500 -1.0785
  170SOPE  C31519266   4.431   4.534   8.559 -1.1691 -0.3984 -0.3171
  170SOPE  H15X19267   4.430   4.501   8.665  0.9322  0.3714 -0.0111
  170SOPE  H15Y19268   4.374   4.630   8.565 -0.4148 -0.0218  1.7364
  170SOPE  C31619269   4.571   4.533   8.512 -1.0456 -0.3526  0.0763
  170SOPE  H16X19270   4.574   4.567   8.406 -2.2716 -0.6210 -0.0542
  170SOPE  H16Y19271   4.604   4.427   8.515 -0.9739 -0.4995 -3.1849
  170SOPE  C31719272   4.665   4.610   8.604  0.3322  0.3575  0.0276
  170SOPE  H17X19273   4.675   4.553   8.699  3.2529  0.1316 -0.3313
  170SOPE  H17Y19274   4.616   4.706   8.633 -2.6241 -0.6400 -1.3190
  170SOPE  C31819275   4.810   4.646   8.544  0.4597  0.2250 -0.0687
  170SOPE  H18X19276   4.854   4.567   8.479  1.3370 -0.9421  1.8517
  170SOPE  H18Y19277   4.878   4.657   8.631  1.1747  0.5088 -0.6499
  170SOPE  H18Z19278   4.814   4.745   8.493  2.1425  1.4274  2.1901
  171SOPE     N19279   6.307   0.613   6.248 -0.1707  0.4183  0.0840
  171SOPE   HN119280   6.224   0.552   6.237 -2.8538  3.6256  1.0189
  171SOPE   HN219281   6.300   0.669   6.161 -2.3066 -1.2679 -0.9186
  171SOPE   HN319282   6.384   0.544   6.234  1.1622  0.8472  3.8572
  171SOPE   C1219283   6.314   0.689   6.372 -0.3488  0.3200 -0.0202
  171SOPE  H12A19284   6.323   0.614   6.453  2.6149  0.4112 -0.1583
  171SOPE  H12B19285   6.217   0.742   6.383  0.1369  1.0033  1.2032
  171SOPE   C1119286   6.428   0.788   6.375 -0.6221 -0.3413  0.3498
  171SOPE  H11A19287   6.529   0.743   6.366 -0.7167 -0.2812 -1.4585
  171SOPE  H11B19288   6.424   0.839   6.473 -1.7833  0.7959 -0.2589
  171SOPE     P19289   6.349   1.025   6.282 -0.3189  0.8092  0.3450
  171SOPE   O1319290   6.202   0.999   6.294  0.2018  0.3922  0.4033
  171SOPE   O1419291   6.390   1.113   6.173  0.0780 -0.4380 -0.1937
  171SOPE   O1219292   6.426   0.885   6.269 -0.3572 -0.0985 -0.3270
  171SOPE   O1119293   6.383   1.078   6.424 -0.4779 -0.7281 -0.1563
  171SOPE    C119294   6.353   1.217   6.447  0.4180  0.1768 -0.2382
  171SOPE    HA19295   6.248   1.241   6.420 -0.3133 -0.6117  1.7507
  171SOPE    HB19296   6.424   1.290   6.403 -0.0260 -0.4261 -2.0669
  171SOPE    C219297   6.353   1.254   6.605 -0.2763  1.1508  0.0456
  171SOPE    HS19298   6.459   1.278   6.626 -0.2149 -0.4248  1.8461
  171SOPE   O2119299   6.308   1.147   6.685  0.0317 -0.0354 -0.8590
  171SOPE   C2119300   6.387   1.051   6.718 -0.4602  0.1917 -0.1937
  171SOPE   O2219301   6.510   1.046   6.692  0.2324  0.1510  0.2389
  171SOPE   C2219302   6.313   0.940   6.806 -0.2851 -0.1613 -0.4733
  171SOPE   H2R19303   6.371   0.846   6.818  0.4720  0.3523  0.0453
  171SOPE   H2S19304   6.226   0.916   6.742 -0.5929 -1.2134  0.3156
  171SOPE    C319305   6.267   1.374   6.634  0.0304 -0.6814 -0.2370
  171SOPE    HX19306   6.245   1.412   6.736 -1.8604  1.1386 -1.2385
  171SOPE    HY19307   6.163   1.349   6.606 -0.4152 -0.0898  0.8447
  171SOPE   O3119308   6.307   1.483   6.550  0.0774 -0.6674 -0.1581
  171SOPE   C3119309   6.421   1.547   6.583  0.4882  0.3286 -0.3883
  171SOPE   O3219310   6.496   1.514   6.671 -0.2529 -0.2378 -0.0042
  171SOPE   C3219311   6.446   1.673   6.498 -0.3422  0.1994  0.0578
  171SOPE   H2X19312   6.351   1.710   6.454  1.2645  0.2152 -3.7793
  171SOPE   H2Y19313   6.509   1.641   6.413 -1.1850  1.5987 -1.1388
  171SOPE   C2319314   6.276   0.991   6.949  0.3402  0.6242 -0.3136
  171SOPE   H3R19315   6.246   0.899   7.004  0.9199  1.3935  1.3673
  171SOPE   H3S19316   6.201   1.072   6.936 -1.1824 -0.9336 -1.7249
  171SOPE   C2419317   6.399   1.037   7.025 -0.9435 -0.4965 -0.3863
  171SOPE   H4R19318   6.474   0.958   7.001 -0.0762 -0.7218  2.6000
  171SOPE   H4S19319   6.443   1.134   6.991  1.5052 -1.0264  0.9808
  171SOPE   C2519320   6.367   1.059   7.170 -0.5752  0.1054 -0.1021
  171SOPE   H5R19321   6.288   1.137   7.179 -3.0236 -2.1272 -0.9277
  171SOPE   H5S19322   6.335   0.968   7.225 -1.8965  0.4779 -0.2107
  171SOPE   C2619323   6.482   1.125   7.260 -0.4871 -0.5270 -0.4808
  171SOPE   H6R19324   6.578   1.070   7.246 -0.3307 -0.3735 -0.0404
  171SOPE   H6S19325   6.486   1.232   7.230 -0.8571  0.4727  2.6754
  171SOPE   C2719326   6.457   1.114   7.408  0.0712 -0.5349  0.3095
  171SOPE   H7R19327   6.361   1.058   7.417 -0.9572  0.8668 -1.3846
  171SOPE   H7S19328   6.527   1.048   7.464 -0.1135 -0.7807  0.2544
  171SOPE   C2819329   6.425   1.251   7.477 -0.7319 -0.3342  0.0096
  171SOPE   H8R19330   6.524   1.288   7.513 -0.0297 -0.4859 -1.7058
  171SOPE   H8S19331   6.392   1.329   7.406 -0.3209 -1.3154 -1.3081
  171SOPE   C2919332   6.335   1.251   7.598 -0.0704  0.6805 -0.7499
  171SOPE   H9119333   6.234   1.294   7.585 -0.7849 -0.4352  0.7982
  171SOPE  C21019334   6.374   1.220   7.723 -0.2864  0.0447 -0.7440
  171SOPE  H10119335   6.303   1.215   7.806  3.8223  2.0475  3.3474
  171SOPE  C21119336   6.511   1.180   7.768 -0.0598 -0.0103 -0.3542
  171SOPE  H11R19337   6.589   1.173   7.689  0.7543 -0.6833  0.4849
  171SOPE  H11S19338   6.505   1.072   7.796  0.4689  0.2226  0.7010
  171SOPE  C21219339   6.564   1.273   7.874  0.0600  0.4576  0.0873
  171SOPE  H12R19340   6.521   1.243   7.972 -0.1653 -0.8274 -0.3905
  171SOPE  H12S19341   6.543   1.378   7.845 -1.5456 -0.1689 -1.1527
  171SOPE  C21319342   6.719   1.251   7.892 -0.6745 -0.0172 -0.2065
  171SOPE  H13R19343   6.780   1.265   7.801  1.1043  1.5561  1.1577
  171SOPE  H13S19344   6.739   1.147   7.925  2.2234  0.7921  0.9214
  171SOPE  C21419345   6.774   1.348   8.006  0.1104  0.7821 -0.8939
  171SOPE  H14R19346   6.703   1.337   8.090 -0.0563  2.0871 -0.8411
  171SOPE  H14S19347   6.760   1.454   7.974  2.5007  1.2945 -0.4167
  171SOPE  C21519348   6.918   1.343   8.054 -0.0879  0.4772 -0.8915
  171SOPE  H15R19349   6.990   1.388   7.982 -0.1038  2.5170  0.2854
  171SOPE  H15S19350   6.950   1.238   8.069  0.7213  0.8412  0.0869
  171SOPE  C21619351   6.939   1.399   8.202 -0.3834  0.1063  0.4569
  171SOPE  H16R19352   7.040   1.365   8.237  1.2576  2.4386 -1.6671
  171SOPE  H16S19353   6.862   1.359   8.271  1.4581 -0.5053  2.2698
  171SOPE  C21719354   6.951   1.550   8.218  0.3779 -0.2667 -0.2486
  171SOPE  H17R19355   6.928   1.569   8.325  0.9833  1.9330 -0.4532
  171SOPE  H17S19356   6.864   1.597   8.168  1.2056 -1.7142 -3.3207
  171SOPE  C21819357   7.080   1.616   8.174  0.0410  0.0858  0.9052
  171SOPE  H18R19358   7.078   1.643   8.066 -0.1166  2.5596  1.4692
  171SOPE  H18S19359   7.168   1.550   8.189  1.4013  1.4129 -0.8250
  171SOPE  H18T19360   7.097   1.718   8.215 -1.1919  0.7923 -0.2705
  171SOPE   C3319361   6.523   1.786   6.572 -0.2826  0.0364  0.5777
  171SOPE   H3X19362   6.561   1.854   6.492 -1.1020 -0.2458 -0.0685
  171SOPE   H3Y19363   6.610   1.748   6.630  0.2390  2.5065  1.5326
  171SOPE   C3419364   6.439   1.859   6.662 -0.0579  0.2604 -0.3524
  171SOPE   H4X19365   6.373   1.792   6.722  0.0748 -0.8116 -1.3723
  171SOPE   H4Y19366   6.369   1.925   6.606 -2.3921 -2.3567 -0.7876
  171SOPE   C3519367   6.525   1.933   6.762  0.3509 -0.9261  0.0496
  171SOPE   H5X19368   6.568   2.021   6.709 -1.3158  0.0660  0.2597
  171SOPE   H5Y19369   6.604   1.871   6.807 -0.0325 -1.2944  0.2240
  171SOPE   C3619370   6.443   1.970   6.890  0.2042 -0.4009 -0.6742
  171SOPE   H6X19371   6.414   1.881   6.951 -0.7442  1.0290  1.0873
  171SOPE   H6Y19372   6.351   2.025   6.859  1.2060  2.0629  0.4443
  171SOPE   C3719373   6.513   2.074   6.972 -0.0870  0.0301 -0.3287
  171SOPE   H7X19374   6.504   2.173   6.923  1.9326 -0.1233 -1.0681
  171SOPE   H7Y19375   6.621   2.056   6.986  0.5975  2.7353 -1.5760
  171SOPE   C3819376   6.447   2.080   7.118  0.0220 -0.4363  1.2328
  171SOPE   H8X19377   6.440   1.982   7.170  1.0924 -0.9606  0.4426
  171SOPE   H8Y19378   6.342   2.114   7.104  0.2557 -0.2459 -0.2309
  171SOPE   C3919379   6.527   2.173   7.212  0.1000  0.6200 -0.0187
  171SOPE   H9X19380   6.515   2.276   7.171 -0.2526  0.4460 -0.3626
  171SOPE   H9Y19381   6.636   2.166   7.233 -0.1369  4.4704  3.7624
  171SOPE  C31019382   6.472   2.161   7.353 -0.9736 -0.1225 -0.4114
  171SOPE  H10X19383   6.507   2.067   7.400 -0.9029  0.9735  1.8922
  171SOPE  H10Y19384   6.361   2.168   7.361 -0.8998  3.7735 -0.5032
  171SOPE  C31119385   6.521   2.283   7.443  0.4574  0.0624 -0.3123
  171SOPE  H11X19386   6.498   2.381   7.395  1.2214 -0.0817 -1.0060
  171SOPE  H11Y19387   6.632   2.281   7.449  0.5682 -1.2264 -1.9681
  171SOPE  C31219388   6.468   2.260   7.584 -0.8826  0.0108  0.7253
  171SOPE  H12X19389   6.503   2.158   7.613  1.5711 -0.0938 -2.1913
  171SOPE  H12Y19390   6.357   2.261   7.579 -0.8800 -1.5819 -0.6647
  171SOPE  C31319391   6.521   2.369   7.675 -0.1437  0.5378  0.0318
  171SOPE  H13X19392   6.485   2.459   7.621  0.7186 -0.5571 -2.5309
  171SOPE  H13Y19393   6.631   2.367   7.693 -0.0859  0.0832 -0.3352
  171SOPE  C31419394   6.441   2.365   7.803 -1.0975  0.7182 -0.4470
  171SOPE  H14X19395   6.451   2.263   7.846  0.6627  0.9316 -0.2973
  171SOPE  H14Y19396   6.338   2.399   7.780 -0.2396  2.1903 -2.3481
  171SOPE  C31519397   6.483   2.469   7.907 -0.2032 -0.1211  0.0272
  171SOPE  H15X19398   6.444   2.570   7.880 -1.2786 -0.1348  1.3754
  171SOPE  H15Y19399   6.593   2.477   7.901  0.1167 -2.5949  1.3671
  171SOPE  C31619400   6.440   2.441   8.048 -0.3296  0.1342 -0.1588
  171SOPE  H16X19401   6.330   2.448   8.061 -0.0556  2.5871  1.4953
  171SOPE  H16Y19402   6.486   2.522   8.109  0.2318  0.9859 -1.6710
  171SOPE  C31719403   6.471   2.308   8.103  0.3075  0.6277 -0.4963
  171SOPE  H17X19404   6.562   2.268   8.052 -0.7966 -0.9213 -1.3499
  171SOPE  H17Y19405   6.394   2.228   8.109  2.5967 -1.7814 -1.1483
  171SOPE  C31819406   6.532   2.326   8.247 -0.2924 -0.2511 -0.0660
  171SOPE  H18X19407   6.457   2.370   8.316 -0.7144 -0.0691 -0.6390
  171SOPE  H18Y19408   6.625   2.388   8.244 -2.7710  3.7938 -1.2517
  171SOPE  H18Z19409   6.550   2.227   8.294 -2.1555 -0.0877  1.1001
  172SOPE     N19410   0.613   4.620   6.665 -0.1968  0.1523  0.7225
  172SOPE   HN119411   0.635   4.522   6.692  0.9486 -0.1227 -1.0029
  172SOPE   HN219412   0.648   4.632   6.568  1.6636  0.3939  1.3911
  172SOPE   HN319413   0.662   4.678   6.735 -0.8043  0.1261  1.1813
  172SOPE   C1219414   0.476   4.677   6.693  0.1305 -0.2637  0.5625
  172SOPE  H12A19415   0.444   4.714   6.593 -1.5049 -2.9116 -0.0085
  172SOPE  H12B19416   0.476   4.774   6.746 -0.8663  0.6575 -1.0219
  172SOPE   C1119417   0.374   4.569   6.734  0.7783 -0.1556 -0.4250
  172SOPE  H11A19418   0.278   4.621   6.755  1.1593 -0.5077  2.7198
  172SOPE  H11B19419   0.405   4.527   6.833 -0.1178  0.1028 -0.0235
  172SOPE     P19420   0.248   4.467   6.522  0.2020 -0.2043 -0.1033
  172SOPE   O1319421   0.255   4.341   6.447  0.5670  0.9210 -0.3412
  172SOPE   O1419422   0.259   4.591   6.443 -0.3563 -0.0529  0.3370
  172SOPE   O1219423   0.362   4.469   6.631 -1.2798  0.2949  0.3858
  172SOPE   O1119424   0.118   4.477   6.602  0.7148 -0.3375  0.1109
  172SOPE    C119425   0.084   4.369   6.692 -0.0789 -0.0614 -0.0640
  172SOPE    HA19426   0.171   4.332   6.751  0.4587  2.5304  0.9129
  172SOPE    HB19427   0.038   4.281   6.643 -0.7987 -0.2699  0.9589
  172SOPE    C219428  -0.022   4.418   6.799 -0.7872  0.0072 -0.2842
  172SOPE    HS19429  -0.107   4.470   6.749 -0.1231  1.1689 -0.2457
  172SOPE   O2119430   0.054   4.511   6.890  0.0721 -0.1002  0.0611
  172SOPE   C2119431   0.000   4.623   6.894 -0.1213  0.7625  0.3218
  172SOPE   O2219432  -0.109   4.659   6.857  0.7953  0.6335 -0.6121
  172SOPE   C2219433   0.103   4.718   6.956  0.2298  0.4629 -0.3898
  172SOPE   H2R19434   0.124   4.791   6.875 -0.4444  1.2069  0.0920
  172SOPE   H2S19435   0.198   4.666   6.978  0.1091 -0.0170 -0.9422
  172SOPE    C319436  -0.084   4.299   6.876 -0.5030  0.5311  0.0785
  172SOPE    HX19437  -0.001   4.229   6.902  0.7182  2.1913  0.8921
  172SOPE    HY19438  -0.160   4.250   6.813 -1.7339  2.9877 -0.4743
  172SOPE   O3119439  -0.151   4.353   6.992  0.1775  0.1400  0.1216
  172SOPE   C3119440  -0.288   4.367   6.987  0.0073 -0.7335 -0.2229
  172SOPE   O3219441  -0.359   4.342   6.893 -0.4373 -0.1701 -0.1539
  172SOPE   C3219442  -0.345   4.413   7.123 -0.3024 -0.0864  0.6873
  172SOPE   H2X19443  -0.446   4.451   7.098  0.8922  3.2713  0.4218
  172SOPE   H2Y19444  -0.285   4.501   7.154  0.3215 -0.5963  0.9415
  172SOPE   C2319445   0.045   4.798   7.073 -0.6456  0.4453  0.2947
  172SOPE   H3R19446   0.010   4.728   7.152 -2.1037 -0.0523 -0.7469
  172SOPE   H3S19447  -0.038   4.853   7.023 -1.2957 -1.1407 -0.4800
  172SOPE   C2419448   0.151   4.892   7.123 -0.0424  1.0310  0.6021
  172SOPE   H4R19449   0.244   4.838   7.151  0.2770  0.6151 -1.1478
  172SOPE   H4S19450   0.173   4.974   7.052  0.0663  0.4640 -0.0279
  172SOPE   C2519451   0.101   4.949   7.251 -0.5461  0.8716 -0.6549
  172SOPE   H5R19452   0.009   5.010   7.235 -0.9061  0.1096 -1.5536
  172SOPE   H5S19453   0.064   4.868   7.319 -2.4014  1.2613 -1.1276
  172SOPE   C2619454   0.195   5.045   7.314 -0.0259 -0.3519  0.0285
  172SOPE   H6R19455   0.296   5.007   7.343  0.7311  1.1016 -0.6168
  172SOPE   H6S19456   0.218   5.125   7.241 -0.9675 -2.2099 -2.4067
  172SOPE   C2719457   0.131   5.096   7.448  0.6529 -0.4845  0.1448
  172SOPE   H7R19458   0.152   5.204   7.462  0.1337 -0.5335  1.4711
  172SOPE   H7S19459   0.021   5.099   7.430  0.6595  2.3641  0.1651
  172SOPE   C2819460   0.150   5.016   7.579  0.3410 -0.5366  0.3421
  172SOPE   H8R19461   0.126   4.913   7.545 -1.1671  0.2341 -1.0676
  172SOPE   H8S19462   0.259   5.018   7.602  0.0718 -1.4266  1.7762
  172SOPE   C2919463   0.066   5.059   7.699  0.1164  0.4143 -0.5822
  172SOPE   H9119464  -0.032   5.102   7.674  0.3096  1.4242  0.2970
  172SOPE  C21019465   0.101   5.046   7.828  0.0071 -0.1154 -0.4476
  172SOPE  H10119466   0.022   5.066   7.902  0.2458  0.3895 -0.3230
  172SOPE  C21119467   0.228   4.996   7.887 -0.1850  0.6575 -0.3049
  172SOPE  H11R19468   0.310   5.069   7.871  0.8645 -0.4103  0.0945
  172SOPE  H11S19469   0.272   4.911   7.831  0.9531 -0.0213  1.5361
  172SOPE  C21219470   0.209   4.959   8.038 -0.1564  0.2247 -0.2107
  172SOPE  H12R19471   0.217   4.849   8.050  1.9423  0.3871  0.1536
  172SOPE  H12S19472   0.116   4.992   8.090  0.6568  0.0940  1.3999
  172SOPE  C21319473   0.327   5.028   8.117  0.4716  0.5026 -0.1635
  172SOPE  H13R19474   0.332   5.137   8.098  1.0824  0.5093  0.0042
  172SOPE  H13S19475   0.422   4.976   8.093 -0.5084 -2.1659  1.3262
  172SOPE  C21419476   0.316   5.001   8.268 -0.4705 -0.1023  0.3939
  172SOPE  H14R19477   0.282   4.896   8.283 -0.6219 -0.0542  0.3900
  172SOPE  H14S19478   0.238   5.065   8.315 -1.2578 -0.4188 -0.4402
  172SOPE  C21519479   0.443   5.037   8.357  0.1639 -0.4892  0.3420
  172SOPE  H15R19480   0.489   5.131   8.320  1.5929 -1.1919  0.2467
  172SOPE  H15S19481   0.518   4.957   8.339  1.4062  1.2806 -3.5678
  172SOPE  C21619482   0.417   5.034   8.504  0.0307 -0.3949 -0.3246
  172SOPE  H16R19483   0.389   4.932   8.538 -0.6540 -0.8001 -2.0420
  172SOPE  H16S19484   0.338   5.109   8.522  2.0426  1.6850  0.4266
  172SOPE  C21719485   0.543   5.087   8.584  0.7077 -0.2324  0.0282
  172SOPE  H17R19486   0.506   5.114   8.686  1.1462  1.1648 -0.1657
  172SOPE  H17S19487   0.582   5.175   8.530  2.3148 -1.1250 -0.3179
  172SOPE  C21819488   0.648   4.975   8.586  0.0738 -0.0561  0.7537
  172SOPE  H18R19489   0.628   4.883   8.645  2.2228 -2.2411 -1.6819
  172SOPE  H18S19490   0.747   5.010   8.623 -1.3401  2.0034  2.8320
  172SOPE  H18T19491   0.671   4.944   8.482 -1.1566 -3.0524  1.2710
  172SOPE   C3319492  -0.334   4.307   7.222 -1.3292  0.0431 -0.3795
  172SOPE   H3X19493  -0.243   4.244   7.214 -1.8810 -1.2118  2.1702
  172SOPE   H3Y19494  -0.419   4.237   7.207 -1.4474 -0.5742  2.6518
  172SOPE   C3419495  -0.327   4.367   7.355 -0.3374 -0.5784  0.1652
  172SOPE   H4X19496  -0.402   4.449   7.361  0.9850  0.6003  0.9758
  172SOPE   H4Y19497  -0.226   4.410   7.365 -1.3934  2.3699 -0.9610
  172SOPE   C3519498  -0.367   4.266   7.464 -0.1056 -0.1963 -0.8176
  172SOPE   H5X19499  -0.308   4.172   7.464  1.4426  0.7221 -1.7967
  172SOPE   H5Y19500  -0.470   4.236   7.435 -1.0192  1.7932  0.1622
  172SOPE   C3619501  -0.375   4.321   7.605  0.2193 -0.2345  0.2406
  172SOPE   H6X19502  -0.453   4.399   7.615  0.6949  0.0048  2.8581
  172SOPE   H6Y19503  -0.278   4.369   7.627 -0.5251  0.7362  1.5298
  172SOPE   C3719504  -0.400   4.229   7.725  0.3296  0.4665  0.3933
  172SOPE   H7X19505  -0.343   4.137   7.700  1.6413  1.4981 -0.5743
  172SOPE   H7Y19506  -0.502   4.186   7.733  1.2218 -1.7690  0.5175
  172SOPE   C3819507  -0.356   4.290   7.859 -0.8266  0.6703 -0.5119
  172SOPE   H8X19508  -0.399   4.392   7.875  1.9518  1.7244  0.8948
  172SOPE   H8Y19509  -0.248   4.311   7.844 -0.8503  0.6949 -0.6443
  172SOPE   C3919510  -0.372   4.198   7.985  0.1503  0.6041 -0.0340
  172SOPE   H9X19511  -0.322   4.103   7.959  0.0289  0.8394 -1.1974
  172SOPE   H9Y19512  -0.478   4.166   7.994 -0.0948  1.3354 -0.2250
  172SOPE  C31019513  -0.313   4.263   8.109 -0.6424  0.0459 -0.7677
  172SOPE  H10X19514  -0.230   4.327   8.070  0.0569 -0.0062  0.5529
  172SOPE  H10Y19515  -0.290   4.181   8.180  0.9212  2.1139  1.3002
  172SOPE  C31119516  -0.418   4.361   8.175  0.0824  0.1435 -0.3440
  172SOPE  H11X19517  -0.516   4.308   8.172  0.8334 -1.3745  0.5346
  172SOPE  H11Y19518  -0.423   4.449   8.108 -0.5706 -0.7536 -1.5171
  172SOPE  C31219519  -0.381   4.401   8.318  0.1089 -0.5013 -0.7817
  172SOPE  H12X19520  -0.277   4.436   8.332 -0.4860  0.3929  2.3660
  172SOPE  H12Y19521  -0.385   4.307   8.378 -0.5528  1.2967  2.2157
  172SOPE  C31319522  -0.481   4.494   8.396 -0.3954 -0.4390 -0.2724
  172SOPE  H13X19523  -0.503   4.587   8.340  2.5191  1.8404  2.0219
  172SOPE  H13Y19524  -0.431   4.508   8.495 -1.2900  0.0135  0.1215
  172SOPE  C31419525  -0.615   4.431   8.427  0.7768  1.3214 -0.7590
  172SOPE  H14X19526  -0.588   4.354   8.503  0.2191  1.7511 -0.1105
  172SOPE  H14Y19527  -0.651   4.389   8.331  1.2505 -2.9666  0.7098
  172SOPE  C31519528  -0.735   4.508   8.484 -1.2255  0.1334 -0.0736
  172SOPE  H15X19529  -0.762   4.597   8.425 -0.7815 -0.2897 -0.9366
  172SOPE  H15Y19530  -0.698   4.542   8.583  2.0216 -1.2734 -0.6605
  172SOPE  C31619531  -0.863   4.430   8.494  0.0619 -0.6856  0.2130
  172SOPE  H16X19532  -0.844   4.341   8.558  2.4733 -0.3649  0.0281
  172SOPE  H16Y19533  -0.897   4.387   8.397 -2.2712 -0.6451  0.9594
  172SOPE  C31719534  -0.980   4.497   8.562 -0.0795  0.6936  0.2558
  172SOPE  H17X19535  -1.020   4.580   8.499 -0.2287  0.6225  0.2586
  172SOPE  H17Y19536  -0.959   4.539   8.663 -1.2339  0.5278  0.5731
  172SOPE  C31819537  -1.104   4.400   8.576  0.3851  0.1969 -0.1548
  172SOPE  H18X19538  -1.109   4.332   8.488  2.0908  0.9221 -0.8583
  172SOPE  H18Y19539  -1.206   4.441   8.590 -0.6729 -0.9700 -3.4452
  172SOPE  H18Z19540  -1.082   4.338   8.665 -0.5208  0.0370 -0.0312
  173SAPI   C1219541   2.813   1.132  10.699 -0.2761 -0.9073  0.7359
  173SAPI    H219542   2.755   1.145  10.606  2.5634  1.7165 -0.8668
  173SAPI    O219543   2.730   1.059  10.787 -0.0217  0.0574 -0.3231
  173SAPI   HO219544   2.651   1.036  10.738  0.3940 -0.4347 -0.7753
  173SAPI   C1319545   2.933   1.051  10.676  0.0958 -0.4488  0.2332
  173SAPI    H319546   3.003   1.106  10.610  0.0287  0.8653  1.1947
  173SAPI    O319547   2.899   0.927  10.607 -0.3694  0.0618  0.2088
  173SAPI   HO319548   2.848   0.877  10.670 -2.6273  1.2455 -0.5587
  173SAPI   C1419549   3.003   1.023  10.810  0.1724 -0.0765 -0.5024
  173SAPI    H419550   2.936   0.957  10.869  0.0661  1.9931  1.8329
  173SAPI    O419551   3.123   0.951  10.784  0.3116  0.2201  0.2780
  173SAPI   HO419552   3.162   0.907  10.860  0.3314 -0.3740 -0.0702
  173SAPI   C1519553   3.041   1.161  10.874 -0.0309  0.6486  0.1032
  173SAPI    H519554   3.103   1.213  10.798  0.6698 -0.7262 -0.2993
  173SAPI    O519555   3.121   1.144  10.995  0.2604  0.9166 -0.4839
  173SAPI   HO519556   3.190   1.211  10.992 -0.2754  1.6055  1.2037
  173SAPI   C1619557   2.932   1.260  10.885  0.5279  0.5422 -1.0043
  173SAPI    H619558   2.864   1.223  10.964 -0.5597  3.1688 -0.6021
  173SAPI    O619559   2.984   1.391  10.919  0.3128  0.2337 -0.6605
  173SAPI   HO619560   2.905   1.427  10.961 -0.1425 -1.4624  0.0067
  173SAPI   C1119561   2.863   1.269  10.747 -0.5276 -0.5332 -0.1896
  173SAPI    H119562   2.931   1.313  10.671 -1.2584  1.0360  0.0230
  173SAPI     P19563   2.745   1.512  10.701 -0.0781 -0.1412 -0.1717
  173SAPI   O1319564   2.880   1.571  10.690  0.1339 -0.0152  0.6202
  173SAPI   O1419565   2.649   1.592  10.780  0.2420  0.0598  0.1278
  173SAPI   O1219566   2.749   1.351  10.764 -0.3011 -0.2014  0.0085
  173SAPI   O1119567   2.696   1.490  10.553  1.0597  0.0115  0.4563
  173SAPI    C119568   2.557   1.455  10.533  0.6887 -0.2120 -0.5638
  173SAPI    HA19569   2.523   1.360  10.580  0.8776 -0.0310 -0.0628
  173SAPI    HB19570   2.493   1.541  10.562  1.1282  0.1673 -0.7180
  173SAPI    C219571   2.517   1.456  10.383 -0.2157  0.2873 -0.3071
  173SAPI    HS19572   2.417   1.409  10.376 -0.5534  1.1461 -1.6020
  173SAPI   O2119573   2.610   1.374  10.304  0.3437  0.2196 -0.4128
  173SAPI   C2119574   2.595   1.250  10.332  0.5576 -0.1702  0.0048
  173SAPI   O2219575   2.519   1.191  10.411  1.0734  0.2010  0.0660
  173SAPI   C2219576   2.708   1.178  10.254  0.1928  0.0174 -0.8544
  173SAPI   H2R19577   2.660   1.084  10.220 -2.5209  1.2014 -0.5241
  173SAPI   H2S19578   2.743   1.245  10.172 -0.8171  2.2720  0.4788
  173SAPI    C319579   2.516   1.602  10.341  0.3212  0.4208  0.4374
  173SAPI    HX19580   2.619   1.641  10.356  1.0214 -1.4678  0.8161
  173SAPI    HY19581   2.440   1.649  10.407 -0.4916  0.0314 -0.2067
  173SAPI   O3119582   2.489   1.637  10.201  0.7704  0.3934  0.0911
  173SAPI   C3119583   2.390   1.574  10.139 -0.2142  0.3553  0.7625
  173SAPI   O3219584   2.301   1.513  10.190  0.0421  0.3062  0.1699
  173SAPI   C3219585   2.411   1.592   9.989 -0.2083 -0.1108  0.1238
  173SAPI   H2X19586   2.459   1.498   9.954 -1.1467 -0.7911  0.6557
  173SAPI   H2Y19587   2.481   1.675   9.964 -0.2470 -0.6802 -2.1001
  173SAPI   C2319588   2.829   1.130  10.336 -0.3464  0.2149 -1.1173
  173SAPI   H3R19589   2.780   1.061  10.408 -0.1892 -0.5516 -1.7319
  173SAPI   H3S19590   2.875   1.216  10.390 -1.7213  0.8047 -0.8649
  173SAPI   C2419591   2.938   1.032  10.274 -0.3553 -0.4056  0.4564
  173SAPI   H4R19592   2.879   0.944  10.241  0.6721 -0.4058 -1.5202
  173SAPI   H4S19593   3.007   1.002  10.356  0.3018  0.4358  0.2268
  173SAPI   C2519594   3.000   1.111  10.160 -0.2013  0.1786 -0.1634
  173SAPI   H5R19595   3.045   1.206  10.194  1.8459  0.2118 -2.6445
  173SAPI   C2619596   3.000   1.079  10.024 -0.1445  0.2999 -0.7048
  173SAPI   H6R19597   3.046   1.158   9.963 -0.8625  2.2354  1.1802
  173SAPI   C2719598   2.948   0.962   9.951 -0.2765 -0.0591 -0.8730
  173SAPI   H7R19599   2.959   0.877  10.021 -0.3830  1.0081  0.4665
  173SAPI   H7S19600   3.011   0.948   9.860 -0.3209  0.5661 -1.0056
  173SAPI   C2819601   2.805   0.993   9.919  0.2580 -0.3439 -0.3947
  173SAPI   H8R19602   2.749   1.064   9.981  0.0017 -0.3007 -0.6706
  173SAPI   C2919603   2.743   0.943   9.814  0.0030  0.7555 -0.0196
  173SAPI   H9R19604   2.637   0.968   9.803  0.3852  1.6329 -2.3050
  173SAPI  C21019605   2.798   0.848   9.712 -0.2400 -0.0797 -0.0689
  173SAPI  H10R19606   2.905   0.868   9.694 -0.3095 -0.1131 -0.5331
  173SAPI  H10S19607   2.750   0.854   9.612  2.4187  2.6355 -1.3306
  173SAPI  C21119608   2.779   0.706   9.765 -0.8606 -0.6722 -0.3038
  173SAPI  H11R19609   2.773   0.681   9.872 -0.6354 -1.1150 -0.3904
  173SAPI  C21219610   2.766   0.604   9.676 -0.2904  0.1799  0.2657
  173SAPI  H12R19611   2.763   0.506   9.726 -3.0777  0.3633  0.5829
  173SAPI  C21319612   2.781   0.613   9.522  0.3739  0.5847 -1.4669
  173SAPI  H13R19613   2.818   0.516   9.482  1.9439  0.3561  0.3633
  173SAPI  H13S19614   2.847   0.696   9.490  2.2633 -0.5610 -0.6919
  173SAPI  C21419615   2.646   0.625   9.454 -0.0528  0.6630 -0.5722
  173SAPI  H14R19616   2.564   0.592   9.519  1.4305  0.7054  1.4172
  173SAPI  C21519617   2.610   0.663   9.329 -0.0666 -0.4890 -0.5455
  173SAPI  H15R19618   2.502   0.658   9.313 -0.5934 -0.7886  2.4713
  173SAPI  C21619619   2.707   0.715   9.226 -0.2972 -0.7103  0.3711
  173SAPI  H16R19620   2.810   0.720   9.267 -0.2002  3.7394  0.1149
  173SAPI  H16S19621   2.687   0.819   9.192  2.4246 -0.3144 -0.2487
  173SAPI  C21719622   2.705   0.621   9.102 -0.5480  1.0898 -0.0926
  173SAPI  H17R19623   2.747   0.524   9.135  1.5458  2.0939  0.3732
  173SAPI  H17S19624   2.766   0.663   9.019  0.2309 -0.3040 -0.2433
  173SAPI  C21819625   2.572   0.588   9.039 -0.5057  0.2223  0.5140
  173SAPI  H18R19626   2.504   0.540   9.112 -0.8726  1.0269  0.7146
  173SAPI  H18S19627   2.579   0.519   8.952 -0.7439  2.2606 -1.1947
  173SAPI  C21919628   2.496   0.709   8.987 -0.0166  0.2441  0.6129
  173SAPI  H19R19629   2.545   0.751   8.897 -2.5425  0.1408 -0.9079
  173SAPI  H19S19630   2.492   0.793   9.059 -1.7292  0.6022  0.1483
  173SAPI  C22019631   2.348   0.673   8.952 -0.4543 -0.2757  0.4354
  173SAPI  H20R19632   2.300   0.772   8.933 -1.9703 -0.3495  3.2212
  173SAPI  H20S19633   2.300   0.628   9.042  0.1551 -1.5101  0.1657
  173SAPI  H20T19634   2.329   0.623   8.855 -0.7747  1.0497 -0.2130
  173SAPI   C3319635   2.279   1.611   9.912  0.1674 -0.5861 -0.5781
  173SAPI   H3X19636   2.238   1.709   9.945 -0.3717 -1.2206  0.7200
  173SAPI   H3Y19637   2.199   1.537   9.935 -0.2721 -0.2127 -0.9036
  173SAPI   C3419638   2.298   1.607   9.762 -1.0899  0.3922  0.4507
  173SAPI   H4X19639   2.342   1.506   9.750 -2.7278 -0.1196 -1.9579
  173SAPI   H4Y19640   2.360   1.693   9.728 -0.0623 -0.6058 -0.2329
  173SAPI   C3519641   2.178   1.610   9.672  0.0813 -0.8062 -0.1685
  173SAPI   H5X19642   2.115   1.695   9.707  1.3827 -0.2808  1.0020
  173SAPI   H5Y19643   2.115   1.518   9.680 -0.8144 -0.3751 -1.9555
  173SAPI   C3619644   2.224   1.639   9.527  0.0147  0.0494  0.9493
  173SAPI   H6X19645   2.277   1.736   9.522 -0.3755  0.2514  0.7142
  173SAPI   H6Y19646   2.143   1.647   9.451  1.4004 -1.7531 -0.8025
  173SAPI   C3719647   2.316   1.528   9.476 -0.2686  0.4027 -0.1725
  173SAPI   H7X19648   2.264   1.435   9.508 -0.5024  0.8738  0.8506
  173SAPI   H7Y19649   2.415   1.514   9.524 -0.1088 -1.4786 -0.9495
  173SAPI   C3819650   2.353   1.531   9.324  0.6971  0.1992  0.3481
  173SAPI   H8X19651   2.276   1.594   9.275 -1.1874 -2.6064 -0.5394
  173SAPI   H8Y19652   2.351   1.424   9.292 -0.2536 -0.3650  2.1270
  173SAPI   C3919653   2.488   1.599   9.309  0.0121  0.0199  0.5445
  173SAPI   H9X19654   2.521   1.594   9.203 -1.7380  0.3351 -0.0498
  173SAPI   H9Y19655   2.561   1.536   9.365 -1.4838 -0.1698  2.3728
  173SAPI  C31019656   2.497   1.743   9.341 -0.3876 -0.5940 -0.5866
  173SAPI  H10X19657   2.474   1.776   9.444 -2.1188  0.1538 -1.1627
  173SAPI  H10Y19658   2.419   1.789   9.275  0.2306  0.5656 -0.5435
  173SAPI  C31119659   2.636   1.788   9.307  0.2806  0.6171  0.4788
  173SAPI  H11X19660   2.647   1.775   9.197 -1.8225 -0.6176  0.3659
  173SAPI  H11Y19661   2.709   1.718   9.353  0.0767 -1.5395 -2.2420
  173SAPI  C31219662   2.665   1.933   9.347  0.1457 -0.7709 -0.4806
  173SAPI  H12X19663   2.569   1.986   9.328 -0.1366 -1.3688 -0.7333
  173SAPI  H12Y19664   2.738   1.977   9.275 -0.2356 -1.5678 -1.3671
  173SAPI  C31319665   2.721   1.952   9.491  0.4590 -0.4758  0.0791
  173SAPI  H13X19666   2.743   2.060   9.507 -0.7875  0.1231 -1.8407
  173SAPI  H13Y19667   2.812   1.891   9.509 -0.7545 -2.1957  0.6581
  173SAPI  C31419668   2.621   1.923   9.608  0.2091 -0.0851  0.3916
  173SAPI  H14X19669   2.623   1.814   9.628  2.6928 -0.0261  0.7082
  173SAPI  H14Y19670   2.520   1.963   9.581  1.3839  2.1268 -1.0023
  173SAPI  C31519671   2.668   2.004   9.732  0.7684 -0.3767  0.6714
  173SAPI  H15X19672   2.590   2.004   9.811  0.2463  0.6445  0.1801
  173SAPI  H15Y19673   2.696   2.109   9.710 -1.1417 -0.4153 -2.6098
  173SAPI  C31619674   2.789   1.939   9.787 -0.7463 -0.0847 -0.2252
  173SAPI  H16X19675   2.860   1.913   9.705 -0.3657  2.6640 -0.8748
  173SAPI  H16Y19676   2.752   1.845   9.832  0.0559 -1.3992 -2.1817
  173SAPI  C31719677   2.867   2.029   9.886  0.1439 -0.3775 -0.8669
  173SAPI  H17X19678   2.903   2.119   9.832 -1.9527  0.8920 -0.2807
  173SAPI  H17Y19679   2.951   1.964   9.919  1.1794  0.9517 -0.7737
  173SAPI  C31819680   2.792   2.073  10.007  0.4248 -0.5711 -0.0096
  173SAPI  H18X19681   2.864   2.120  10.078  0.7754  1.1644 -1.4451
  173SAPI  H18Y19682   2.726   1.993  10.046 -1.2494  0.2559 -1.0596
  173SAPI  H18Z19683   2.724   2.154   9.973  2.2526  0.4414 -1.4465
  174SAPI   C1219684   5.892   1.613  10.944  0.0266 -0.9193  1.3023
  174SAPI    H219685   5.849   1.512  10.931 -0.2266 -0.5456 -1.3830
  174SAPI    O219686   5.820   1.711  10.869  0.3779  0.3066  0.0918
  174SAPI   HO219687   5.774   1.669  10.795 -0.5477 -0.0873  0.8712
  174SAPI   C1319688   5.879   1.655  11.087  0.8053  0.4210 -0.8579
  174SAPI    H319689   5.930   1.577  11.148 -2.4648  0.4261  2.1821
  174SAPI    O319690   5.741   1.640  11.121 -0.3686  0.1692  0.0111
  174SAPI   HO319691   5.729   1.572  11.188 -1.9127 -0.8206 -1.2230
  174SAPI   C1419692   5.931   1.794  11.109  0.1939 -0.4515 -0.4756
  174SAPI    H419693   5.879   1.873  11.052 -0.5521 -0.4084  0.2455
  174SAPI    O419694   5.935   1.826  11.249 -0.4561 -0.0605  0.8920
  174SAPI   HO419695   5.938   1.921  11.255 -1.2614 -0.0412  1.0964
  174SAPI   C1519696   6.076   1.803  11.057  0.6068  0.1551  0.7106
  174SAPI    H519697   6.136   1.728  11.112 -0.1898 -0.8570  0.2467
  174SAPI    O519698   6.140   1.926  11.086 -0.1022  0.2385 -0.1391
  174SAPI   HO519699   6.088   1.999  11.051  0.2768  0.3042 -0.5565
  174SAPI   C1619700   6.100   1.754  10.910 -0.2225  0.1691 -0.2229
  174SAPI    H619701   6.053   1.828  10.842 -0.1188 -0.3434 -0.8560
  174SAPI    O619702   6.242   1.760  10.883  0.8127 -0.4071  0.5578
  174SAPI   HO619703   6.261   1.790  10.794 -1.3103 -0.0441  0.1558
  174SAPI   C1119704   6.036   1.617  10.899  0.2262 -0.2965  0.2649
  174SAPI    H119705   6.082   1.552  10.976  3.9489  2.8629  1.0637
  174SAPI     P19706   6.117   1.431  10.713  0.0596  0.1112 -0.1611
  174SAPI   O1319707   6.199   1.381  10.828  0.8978  0.0718 -0.2494
  174SAPI   O1419708   6.186   1.459  10.587 -0.2272  0.3664 -0.0041
  174SAPI   O1219709   6.042   1.569  10.768 -0.1982 -0.0352 -0.5014
  174SAPI   O1119710   5.999   1.328  10.693 -0.7759  0.7469 -0.2174
  174SAPI    C119711   5.869   1.375  10.649  0.1967  0.1442  0.4401
  174SAPI    HA19712   5.803   1.405  10.734 -2.2216 -1.7529 -0.6238
  174SAPI    HB19713   5.878   1.458  10.576 -0.5705  0.3972  0.6279
  174SAPI    C219714   5.790   1.274  10.565  1.1527 -0.2948  0.3650
  174SAPI    HS19715   5.754   1.191  10.630  0.1119 -0.3239 -0.2122
  174SAPI   O2119716   5.871   1.222  10.456 -0.1381 -0.0326 -0.2514
  174SAPI   C2119717   5.829   1.104  10.409  0.5350 -0.4728 -0.0491
  174SAPI   O2219718   5.727   1.056  10.446 -0.1055  0.0089 -0.3256
  174SAPI   C2219719   5.932   1.034  10.326 -0.3163 -0.5329  0.4269
  174SAPI   H2R19720   5.991   1.113  10.275  0.7317 -3.2120 -2.8857
  174SAPI   H2S19721   6.009   0.987  10.391  0.4920  2.0948  1.4936
  174SAPI    C319722   5.660   1.346  10.507  0.0379  0.0560  0.1651
  174SAPI    HX19723   5.601   1.379  10.596 -1.0028  0.2696 -0.5948
  174SAPI    HY19724   5.596   1.268  10.461  0.2508 -0.2974  0.4540
  174SAPI   O3119725   5.692   1.458  10.417  0.0123 -0.5201  0.2451
  174SAPI   C3119726   5.708   1.433  10.295 -0.1826 -0.2254 -0.0724
  174SAPI   O3219727   5.704   1.324  10.241  0.0407 -0.5904  1.0307
  174SAPI   C3219728   5.746   1.563  10.238 -0.2327  0.0225 -0.3080
  174SAPI   H2X19729   5.819   1.551  10.155 -0.3900  0.8989 -0.5822
  174SAPI   H2Y19730   5.816   1.614  10.308  2.9782 -1.2058 -2.4049
  174SAPI   C2319731   5.873   0.926  10.232  0.3829  0.2386  0.6067
  174SAPI   H3R19732   5.784   0.969  10.182  0.0005 -1.4696 -0.2803
  174SAPI   H3S19733   5.825   0.858  10.305  1.7253 -0.5712  0.7779
  174SAPI   C2419734   5.965   0.851  10.143  0.4263 -0.0168  0.7818
  174SAPI   H4R19735   6.052   0.821  10.207  1.4265 -0.4636 -0.7388
  174SAPI   H4S19736   6.019   0.915  10.070  1.3092 -2.0335 -0.4205
  174SAPI   C2519737   5.893   0.733  10.079  0.5584  0.1484 -0.3372
  174SAPI   H5R19738   5.892   0.637  10.133  1.9571  0.7680  0.8458
  174SAPI   C2619739   5.839   0.736   9.956 -0.8832 -0.3116  0.9242
  174SAPI   H6R19740   5.794   0.645   9.913 -0.0754 -0.5699  0.6122
  174SAPI   C2719741   5.845   0.852   9.858  0.2785  0.1465  0.1931
  174SAPI   H7R19742   5.822   0.950   9.906  2.8088  1.5944 -1.3197
  174SAPI   H7S19743   5.761   0.845   9.786 -0.4549 -0.3170  1.0675
  174SAPI   C2819744   5.977   0.852   9.788 -0.2748  0.3925 -0.4922
  174SAPI   H8R19745   6.065   0.871   9.852  0.1400  0.7851 -1.1724
  174SAPI   C2919746   5.996   0.850   9.657  0.7115 -0.7589  0.5953
  174SAPI   H9R19747   6.096   0.826   9.618  0.7793 -0.5108  0.6126
  174SAPI  C21019748   5.895   0.862   9.540 -0.3293  0.5982  0.1396
  174SAPI  H10R19749   5.933   0.924   9.456 -1.5985 -0.2314 -1.0978
  174SAPI  H10S19750   5.797   0.906   9.572 -0.6871  2.0044 -2.6165
  174SAPI  C21119751   5.870   0.728   9.473  0.3449  0.4019  0.3176
  174SAPI  H11R19752   5.864   0.642   9.542 -1.6932 -0.1175 -0.3998
  174SAPI  C21219753   5.852   0.707   9.339  0.6432 -0.4888 -0.4235
  174SAPI  H12R19754   5.826   0.608   9.299 -0.0110 -0.1529 -0.8427
  174SAPI  C21319755   5.849   0.817   9.237 -0.6364 -0.8959 -0.3281
  174SAPI  H13R19756   5.821   0.919   9.271  1.0664 -0.8556  1.1437
  174SAPI  H13S19757   5.770   0.785   9.166 -0.5331 -1.2198 -0.2981
  174SAPI  C21419758   5.972   0.809   9.149 -0.0868 -0.0200  0.2344
  174SAPI  H14R19759   6.067   0.784   9.199  0.5090  0.7227 -0.4920
  174SAPI  C21519760   5.981   0.830   9.015  1.0219 -0.8042 -0.1375
  174SAPI  H15R19761   6.080   0.818   8.970  0.1728 -2.6724 -1.6126
  174SAPI  C21619762   5.869   0.866   8.923  0.0723  0.5522  0.6576
  174SAPI  H16R19763   5.884   0.964   8.872 -0.1036 -0.6325 -1.8055
  174SAPI  H16S19764   5.768   0.871   8.968 -0.8734  0.4696 -1.3768
  174SAPI  C21719765   5.868   0.757   8.810  0.0883 -0.5419  0.3158
  174SAPI  H17R19766   5.968   0.748   8.762 -0.1075 -1.0297 -0.0022
  174SAPI  H17S19767   5.801   0.783   8.725 -0.2127 -0.2171  0.6507
  174SAPI  C21819768   5.841   0.613   8.851  0.0021  0.4609 -0.3985
  174SAPI  H18R19769   5.899   0.592   8.943  0.8629  0.2684 -0.9839
  174SAPI  H18S19770   5.874   0.549   8.767 -1.2015 -1.4882  0.5367
  174SAPI  C21919771   5.692   0.574   8.868 -0.2701  0.5604  0.1857
  174SAPI  H19R19772   5.632   0.583   8.775 -0.2088  0.4048  0.1311
  174SAPI  H19S19773   5.642   0.635   8.946 -1.6778  0.1912 -0.3987
  174SAPI  C22019774   5.691   0.431   8.930  0.3684 -0.2099  0.2739
  174SAPI  H20R19775   5.739   0.359   8.859 -0.0295 -0.6382  0.4343
  174SAPI  H20S19776   5.587   0.393   8.937  0.6212 -0.8995  0.4015
  174SAPI  H20T19777   5.746   0.430   9.026  1.1847 -1.4305 -0.1757
  174SAPI   C3319778   5.633   1.647  10.189 -0.1616 -0.3559  0.1233
  174SAPI   H3X19779   5.668   1.753  10.190  0.2373 -0.4839  1.2364
  174SAPI   H3Y19780   5.545   1.653  10.256  0.0597  3.6508  0.2906
  174SAPI   C3419781   5.574   1.625  10.043 -0.4769  0.6726 -1.0408
  174SAPI   H4X19782   5.519   1.529  10.038 -0.2338  0.4828 -0.2122
  174SAPI   H4Y19783   5.655   1.633   9.968 -0.3617  0.2496 -0.9672
  174SAPI   C3519784   5.478   1.735  10.006  0.6911 -0.1495 -0.8040
  174SAPI   H5X19785   5.456   1.816  10.079  0.3415  0.1724 -1.2581
  174SAPI   H5Y19786   5.376   1.693   9.992 -0.3699  1.6406  1.0964
  174SAPI   C3619787   5.521   1.807   9.883  0.4418  0.0753 -0.3027
  174SAPI   H6X19788   5.625   1.845   9.898 -0.4285  2.2940  0.6034
  174SAPI   H6Y19789   5.461   1.900   9.878  1.7792  0.9398 -1.0302
  174SAPI   C3719790   5.484   1.737   9.754 -0.3039  0.1372 -0.1139
  174SAPI   H7X19791   5.377   1.706   9.752 -0.1051 -0.7045  1.0711
  174SAPI   H7Y19792   5.549   1.647   9.760 -1.2911 -0.7203 -1.5483
  174SAPI   C3819793   5.508   1.809   9.625 -0.4340 -0.1180 -0.6597
  174SAPI   H8X19794   5.605   1.863   9.621  0.4806 -1.6104  0.1850
  174SAPI   H8Y19795   5.430   1.888   9.617 -0.1002  0.1970 -0.8162
  174SAPI   C3919796   5.493   1.720   9.509 -0.0777 -1.1176  0.5111
  174SAPI   H9X19797   5.394   1.669   9.512 -1.3253  1.1364  0.1130
  174SAPI   H9Y19798   5.565   1.636   9.513  1.7007  0.3254  0.5089
  174SAPI  C31019799   5.511   1.792   9.371 -0.2068  0.5317  0.1109
  174SAPI  H10X19800   5.617   1.825   9.386  0.2604 -1.0741  0.4865
  174SAPI  H10Y19801   5.439   1.876   9.365  1.6504  2.1214 -1.7605
  174SAPI  C31119802   5.479   1.700   9.256  0.0774  0.1768  0.1806
  174SAPI  H11X19803   5.372   1.675   9.239  0.0180  0.8868 -0.5723
  174SAPI  H11Y19804   5.533   1.604   9.270  1.2159  0.4957 -1.7408
  174SAPI  C31219805   5.516   1.754   9.116 -0.4614  0.1087 -0.8025
  174SAPI  H12X19806   5.615   1.803   9.126 -0.1862 -0.7107  0.6087
  174SAPI  H12Y19807   5.432   1.821   9.087 -0.2380  1.4230  1.4171
  174SAPI  C31319808   5.530   1.648   9.006  0.6983 -0.3211 -0.2744
  174SAPI  H13X19809   5.449   1.573   8.999  1.2560 -0.8001 -2.2991
  174SAPI  H13Y19810   5.626   1.595   9.023 -0.7388 -3.4297 -1.1317
  174SAPI  C31419811   5.548   1.715   8.861 -0.5989 -0.1641 -0.4206
  174SAPI  H14X19812   5.621   1.799   8.864  1.3228 -1.7515 -0.5096
  174SAPI  H14Y19813   5.450   1.752   8.823 -1.3584 -1.8815 -0.2246
  174SAPI  C31519814   5.614   1.617   8.759 -0.4544  0.0650  0.3457
  174SAPI  H15X19815   5.534   1.544   8.737  0.2472 -0.8808  0.8880
  174SAPI  H15Y19816   5.706   1.576   8.805  0.7750  1.1379 -1.0539
  174SAPI  C31619817   5.658   1.681   8.627 -0.4848  0.6643  0.1230
  174SAPI  H16X19818   5.723   1.605   8.579  1.2413  2.6949 -0.9589
  174SAPI  H16Y19819   5.721   1.763   8.667  0.9185 -0.4510  0.2651
  174SAPI  C31719820   5.554   1.728   8.524  0.7046 -0.7929 -0.7296
  174SAPI  H17X19821   5.496   1.817   8.556  1.0658 -1.1683  1.0232
  174SAPI  H17Y19822   5.482   1.645   8.506  0.3796 -0.6582 -0.0784
  174SAPI  C31819823   5.623   1.756   8.396  0.2668  0.2063  0.7932
  174SAPI  H18X19824   5.701   1.834   8.408  0.3803  0.1848  0.1844
  174SAPI  H18Y19825   5.552   1.788   8.317  1.3419  0.8879  0.0778
  174SAPI  H18Z19826   5.683   1.668   8.365  0.0779  0.9592 -1.9800
  175SAPI   C1219827   6.282   0.289   6.032 -0.4948  0.6247  0.0371
  175SAPI    H219828   6.352   0.213   6.072 -0.3227 -0.1337 -1.6123
  175SAPI    O219829   6.336   0.418   6.015  0.3158  0.0915  0.3341
  175SAPI   HO219830   6.413   0.420   6.073  0.2073  0.7451  0.4669
  175SAPI   C1319831   6.260   0.225   5.893  0.4013  0.3487 -0.3812
  175SAPI    H319832   6.227   0.120   5.913  0.0860  0.5967  0.4519
  175SAPI    O319833   6.377   0.222   5.814  0.0932  0.6698 -0.0109
  175SAPI   HO319834   6.359   0.277   5.737  1.3220 -0.1166 -0.9043
  175SAPI   C1419835   6.149   0.298   5.822  0.4517 -0.0024 -0.1451
  175SAPI    H419836   6.183   0.402   5.804  0.6682 -0.4702 -2.8925
  175SAPI    O419837   6.121   0.248   5.691  0.3261  0.5813 -0.3212
  175SAPI   HO419838   6.143   0.155   5.698  0.4360  0.3026 -3.1258
  175SAPI   C1519839   6.018   0.313   5.910 -0.0570  0.1580 -0.2629
  175SAPI    H519840   5.988   0.206   5.913  2.6929 -0.6547  1.7592
  175SAPI    O519841   5.913   0.377   5.841  0.3062 -0.2424 -0.3862
  175SAPI   HO519842   5.862   0.419   5.910  2.5369  2.5392 -0.2428
  175SAPI   C1619843   6.046   0.372   6.043 -0.4849 -0.1098 -0.2404
  175SAPI    H619844   6.072   0.478   6.029 -0.6907  0.1536  1.1864
  175SAPI    O619845   5.933   0.397   6.125  0.2098  0.2225 -0.5488
  175SAPI   HO619846   5.951   0.467   6.188  2.3020 -2.3603  2.0267
  175SAPI   C1119847   6.153   0.299   6.117 -0.4938  0.5578 -0.3951
  175SAPI    H119848   6.120   0.194   6.127  0.2660  0.3834  0.3367
  175SAPI     P19849   6.232   0.248   6.370 -0.3010 -0.2011 -0.1748
  175SAPI   O1319850   6.299   0.327   6.478  0.6885 -0.1828  0.0923
  175SAPI   O1419851   6.311   0.137   6.307 -0.2369 -0.4368 -0.7680
  175SAPI   O1219852   6.177   0.350   6.249  0.0575  0.4407  0.0589
  175SAPI   O1119853   6.102   0.182   6.431  0.5360  0.1763  0.5290
  175SAPI    C119854   6.026   0.247   6.534 -0.0052 -0.2358 -0.0312
  175SAPI    HA19855   6.076   0.335   6.581  3.3372 -0.9115 -2.0135
  175SAPI    HB19856   5.932   0.286   6.489 -0.4517 -0.1873  0.9147
  175SAPI    C219857   5.978   0.144   6.645 -0.7071  0.3067  0.6707
  175SAPI    HS19858   6.056   0.121   6.721 -1.6453  1.0743  1.8863
  175SAPI   O2119859   5.924   0.030   6.566 -0.3503  0.4816 -0.2541
  175SAPI   C2119860   5.987  -0.083   6.595  0.3057 -0.3353  0.3454
  175SAPI   O2219861   6.083  -0.096   6.670  0.3560  0.6789  0.1280
  175SAPI   C2219862   5.904  -0.203   6.541 -0.9670  0.0617  1.5880
  175SAPI   H2R19863   5.793  -0.194   6.540 -1.1814 -2.0618  0.3695
  175SAPI   H2S19864   5.931  -0.204   6.433 -0.2469 -1.9201  1.7294
  175SAPI    C319865   5.864   0.212   6.726  0.3165  0.1962 -0.1660
  175SAPI    HX19866   5.779   0.230   6.657  0.3997 -2.1574 -0.9793
  175SAPI    HY19867   5.902   0.312   6.756  0.8099  0.7388 -2.3720
  175SAPI   O3119868   5.815   0.123   6.835 -0.0176 -0.1613  0.3838
  175SAPI   C3119869   5.884   0.140   6.944 -0.4563 -0.7260 -0.3017
  175SAPI   O3219870   5.992   0.201   6.952  0.8190 -0.3208 -0.0270
  175SAPI   C3219871   5.831   0.061   7.054  0.9907  0.0090  0.1387
  175SAPI   H2X19872   5.910   0.041   7.129  1.9245 -0.7908 -1.0171
  175SAPI   H2Y19873   5.819  -0.043   7.018  1.3705  0.5846 -1.7379
  175SAPI   C2319874   5.937  -0.344   6.600 -0.5263 -0.4408 -0.0427
  175SAPI   H3R19875   6.045  -0.348   6.624 -0.2556 -0.6670 -1.2217
  175SAPI   H3S19876   5.924  -0.417   6.518  0.3331 -0.9471  0.2641
  175SAPI   C2419877   5.850  -0.384   6.722  0.2375  0.2483 -0.4756
  175SAPI   H4R19878   5.836  -0.494   6.719  1.2076 -0.0422  2.6125
  175SAPI   H4S19879   5.744  -0.354   6.709  0.1192  0.1063  0.1532
  175SAPI   C2519880   5.912  -0.349   6.852  0.4713 -0.1868  0.0752
  175SAPI   H5R19881   6.019  -0.323   6.852  0.2583  0.7430  0.2015
  175SAPI   C2619882   5.858  -0.363   6.976  0.0638  0.0195 -1.3266
  175SAPI   H6R19883   5.913  -0.329   7.065 -1.2757  0.5112 -0.6538
  175SAPI   C2719884   5.719  -0.410   7.010 -0.0758  0.6376 -0.3603
  175SAPI   H7R19885   5.672  -0.470   6.929 -0.8396 -0.5756  0.9578
  175SAPI   H7S19886   5.642  -0.331   7.019 -2.6461 -1.9228  2.4439
  175SAPI   C2819887   5.718  -0.508   7.127 -0.1881  0.8248 -0.1571
  175SAPI   H8R19888   5.696  -0.612   7.102 -1.8197  1.0638  0.1926
  175SAPI   C2919889   5.721  -0.471   7.254  0.2700 -0.4962  0.1877
  175SAPI   H9R19890   5.738  -0.547   7.331 -0.4254 -0.7246  0.1216
  175SAPI  C21019891   5.732  -0.329   7.299  0.3259 -0.3347  0.2663
  175SAPI  H10R19892   5.651  -0.313   7.373  0.1030 -0.2761  0.0109
  175SAPI  H10S19893   5.704  -0.251   7.225 -0.9567  0.4661  1.5510
  175SAPI  C21119894   5.867  -0.307   7.367 -0.8477  0.8473  0.2745
  175SAPI  H11R19895   5.948  -0.304   7.294  0.8715  2.0518  2.1214
  175SAPI  C21219896   5.894  -0.297   7.506  0.0955  0.4336  0.1751
  175SAPI  H12R19897   5.995  -0.279   7.546  0.5123 -1.3460 -0.0049
  175SAPI  C21319898   5.794  -0.302   7.614  0.0934  0.0012  0.4623
  175SAPI  H13R19899   5.790  -0.406   7.654  1.7645 -0.0583  0.5732
  175SAPI  H13S19900   5.696  -0.309   7.563  0.7949 -1.7419 -0.7854
  175SAPI  C21419901   5.800  -0.198   7.726  0.1481 -0.7048  0.0941
  175SAPI  H14R19902   5.830  -0.102   7.681  0.8823 -0.6722  0.6244
  175SAPI  C21519903   5.765  -0.205   7.857 -0.0558 -0.0935 -0.2665
  175SAPI  H15R19904   5.797  -0.136   7.937 -2.2262  0.7040 -0.0024
  175SAPI  C21619905   5.717  -0.334   7.918 -0.5858 -0.4080  0.1886
  175SAPI  H16R19906   5.716  -0.418   7.845  1.7230  0.6972 -1.2205
  175SAPI  H16S19907   5.615  -0.321   7.961  0.2923  2.9925  1.5655
  175SAPI  C21719908   5.804  -0.387   8.038  0.0990  0.0524  0.8259
  175SAPI  H17R19909   5.906  -0.418   8.008  0.0963  1.2910 -0.5367
  175SAPI  H17S19910   5.749  -0.477   8.074 -0.1770 -0.6703 -1.2599
  175SAPI  C21819911   5.814  -0.303   8.166 -0.7373  0.2785 -0.2859
  175SAPI  H18R19912   5.892  -0.227   8.144  0.6731 -1.5922 -2.1099
  175SAPI  H18S19913   5.853  -0.354   8.257 -2.0278 -0.7328 -0.2709
  175SAPI  C21919914   5.687  -0.235   8.213  0.2807 -0.3523  0.0900
  175SAPI  H19R19915   5.634  -0.168   8.142 -2.4099 -1.9617  0.4115
  175SAPI  H19S19916   5.721  -0.171   8.297  0.3428  1.7150 -1.4365
  175SAPI  C22019917   5.579  -0.331   8.257  0.0046 -0.1923 -0.7753
  175SAPI  H20R19918   5.493  -0.277   8.302 -1.2876 -2.4290 -0.4711
  175SAPI  H20S19919   5.611  -0.414   8.323 -1.3214  0.9523  1.4287
  175SAPI  H20T19920   5.559  -0.381   8.159  0.0066 -1.4347 -0.1558
  175SAPI   C3319921   5.693   0.105   7.102  0.5734 -0.8016 -0.2074
  175SAPI   H3X19922   5.623   0.049   7.037  0.9336 -0.4705 -0.8921
  175SAPI   H3Y19923   5.675   0.215   7.102 -0.2523 -0.9061  1.3921
  175SAPI   C3419924   5.654   0.073   7.254  0.1050  0.2353 -0.3112
  175SAPI   H4X19925   5.660  -0.033   7.285 -1.1626  0.7838  2.0501
  175SAPI   H4Y19926   5.545   0.094   7.264 -0.2007 -0.8339 -1.2090
  175SAPI   C3519927   5.738   0.147   7.364  0.3594 -0.4800  0.4179
  175SAPI   H5X19928   5.764   0.248   7.327 -0.6036 -0.4968 -0.3376
  175SAPI   H5Y19929   5.841   0.105   7.360  0.2536 -0.6444 -1.5353
  175SAPI   C3619930   5.686   0.156   7.504 -0.5497 -0.0506  0.2476
  175SAPI   H6X19931   5.675   0.047   7.520 -1.4433  0.2044  1.5867
  175SAPI   H6Y19932   5.587   0.206   7.514 -0.9214 -1.1218  2.4285
  175SAPI   C3719933   5.784   0.221   7.610 -0.2296 -0.4769 -0.2903
  175SAPI   H7X19934   5.798   0.326   7.577 -1.6389 -0.6454 -1.5470
  175SAPI   H7Y19935   5.884   0.175   7.601 -0.5003 -1.0575 -0.3942
  175SAPI   C3819936   5.722   0.225   7.748  0.5485  0.2596 -0.3853
  175SAPI   H8X19937   5.704   0.119   7.774  2.4910 -0.8122 -2.9517
  175SAPI   H8Y19938   5.623   0.276   7.753  0.7956  0.6696  3.7186
  175SAPI   C3919939   5.817   0.291   7.852  0.1458 -0.0285  0.4776
  175SAPI   H9X19940   5.819   0.402   7.845 -1.5592  0.0387  0.5312
  175SAPI   H9Y19941   5.921   0.253   7.852 -0.2480 -1.4287  3.4391
  175SAPI  C31019942   5.768   0.268   7.999  0.0064  0.2024 -0.0420
  175SAPI  H10X19943   5.674   0.324   8.018  1.0148  2.3055 -0.9553
  175SAPI  H10Y19944   5.848   0.322   8.053 -0.1241  0.0722  0.2796
  175SAPI  C31119945   5.777   0.121   8.038 -0.9710  0.5263 -0.5525
  175SAPI  H11X19946   5.876   0.084   8.003 -1.6831 -0.6182 -1.4040
  175SAPI  H11Y19947   5.701   0.059   7.987  0.6820 -2.9017  0.8312
  175SAPI  C31219948   5.774   0.117   8.196 -1.2726 -0.3071  0.4235
  175SAPI  H12X19949   5.835   0.200   8.236 -2.2935  0.7188 -0.0821
  175SAPI  H12Y19950   5.826   0.025   8.230 -2.4155 -0.6139  1.4311
  175SAPI  C31319951   5.630   0.135   8.259 -0.1548  0.0669  0.6756
  175SAPI  H13X19952   5.562   0.067   8.203  0.3562 -1.9915  2.4189
  175SAPI  H13Y19953   5.593   0.236   8.232  1.1093 -0.0071 -1.6494
  175SAPI  C31419954   5.626   0.094   8.408 -0.1547 -0.2693 -0.4478
  175SAPI  H14X19955   5.723   0.118   8.457 -0.6136  0.2651  0.2058
  175SAPI  H14Y19956   5.601  -0.014   8.412 -0.1353 -0.2814 -0.6315
  175SAPI  C31519957   5.519   0.178   8.471 -0.9622 -0.1718  0.3363
  175SAPI  H15X19958   5.416   0.167   8.431 -0.5471 -0.5279 -0.6513
  175SAPI  H15Y19959   5.546   0.285   8.454 -1.5570  0.7380  4.2127
  175SAPI  C31619960   5.495   0.161   8.624 -0.1262  0.6356  0.1338
  175SAPI  H16X19961   5.582   0.199   8.682 -0.3766  0.4319  0.6482
  175SAPI  H16Y19962   5.479   0.052   8.642 -1.2069  0.7516 -0.0844
  175SAPI  C31719963   5.378   0.238   8.675 -0.2784  0.0965 -0.0316
  175SAPI  H17X19964   5.292   0.221   8.606 -0.9833 -0.0206  0.8627
  175SAPI  H17Y19965   5.406   0.345   8.663  0.5062 -0.0423  0.5082
  175SAPI  C31819966   5.344   0.195   8.810 -0.5278  0.4147  0.0460
  175SAPI  H18X19967   5.289   0.100   8.793 -0.4147  0.4918 -0.8401
  175SAPI  H18Y19968   5.274   0.261   8.865 -0.2114  0.0779  0.8582
  175SAPI  H18Z19969   5.433   0.168   8.870  0.1907 -1.5001 -1.7241
  176SAPI   C1219970   5.663   5.669   6.285 -0.0260 -0.1943  0.1950
  176SAPI    H219971   5.560   5.632   6.265 -0.7247  1.3565  0.7739
  176SAPI    O219972   5.739   5.563   6.226 -0.6789  0.0197  0.1646
  176SAPI   HO219973   5.674   5.492   6.220 -1.0205  0.4060 -1.3023
  176SAPI   C1319974   5.675   5.801   6.227  0.4570  0.1493  0.5322
  176SAPI    H319975   5.621   5.871   6.294  1.6284  0.5059  1.1332
  176SAPI    O319976   5.613   5.808   6.096 -0.0247 -0.1468 -0.3548
  176SAPI   HO319977   5.571   5.894   6.093 -2.2702 -1.1907 -2.2054
  176SAPI   C1419978   5.820   5.846   6.234  0.2227  0.7703 -0.2053
  176SAPI    H419979   5.883   5.770   6.182 -1.7505  1.0977 -3.2711
  176SAPI    O419980   5.844   5.971   6.181 -0.1031 -0.6119  0.1743
  176SAPI   HO419981   5.763   6.016   6.154 -0.2200  1.3184  3.2814
  176SAPI   C1519982   5.860   5.847   6.383  0.2553  0.0092  0.5039
  176SAPI    H519983   5.803   5.928   6.433  0.4653 -0.5095  1.6145
  176SAPI    O519984   6.002   5.870   6.399 -0.6013  0.7471  0.5894
  176SAPI   HO519985   6.014   5.965   6.409  0.1347  0.5606  1.7387
  176SAPI   C1619986   5.828   5.728   6.462  0.0526  0.7123 -0.9202
  176SAPI    H619987   5.894   5.648   6.422 -0.1554  0.3870 -0.6216
  176SAPI    O619988   5.846   5.741   6.600  0.1670 -0.0360 -0.3049
  176SAPI   HO619989   5.851   5.654   6.639  0.8473  0.0275 -0.2330
  176SAPI   C1119990   5.687   5.682   6.439  0.1719 -0.0878 -0.0691
  176SAPI    H119991   5.622   5.763   6.478 -1.6730 -0.2066 -2.6168
  176SAPI     P19992   5.513   5.506   6.531  0.4247 -0.0850 -0.2927
  176SAPI   O1319993   5.521   5.376   6.603  0.0150 -0.1246  0.4165
  176SAPI   O1419994   5.426   5.512   6.415 -0.0917 -0.0359  0.5564
  176SAPI   O1219995   5.663   5.558   6.498  0.6952 -0.1214 -0.2022
  176SAPI   O1119996   5.475   5.626   6.624  0.2055  0.1465  0.0009
  176SAPI    C119997   5.397   5.607   6.741  0.4559 -0.3239  0.0659
  176SAPI    HA19998   5.341   5.701   6.762 -1.2226 -1.1496 -0.5443
  176SAPI    HB19999   5.324   5.524   6.731 -1.3018  1.3611 -2.1517
  176SAPI    C220000   5.480   5.593   6.869  0.1536  0.5119 -0.3262
  176SAPI    HS20001   5.562   5.520   6.850  0.4536  0.6033  0.5677
  176SAPI   O2120002   5.401   5.552   6.986  0.0039 -0.4212 -0.1316
  176SAPI   C2120003   5.355   5.425   6.986  0.3799 -0.4772  0.1725
  176SAPI   O2220004   5.376   5.343   6.901  0.2021  0.3921  0.2283
  176SAPI   C2220005   5.283   5.390   7.113  0.7225  0.2885  0.0574
  176SAPI   H2R20006   5.343   5.429   7.198  1.9511  2.4466 -1.6914
  176SAPI   H2S20007   5.179   5.428   7.101  0.9337  0.6051 -0.8815
  176SAPI    C320008   5.535   5.733   6.915  0.0697  0.1318  0.4118
  176SAPI    HX20009   5.449   5.802   6.905  0.7131  0.9015  0.1128
  176SAPI    HY20010   5.616   5.770   6.849 -0.3941 -0.3579 -0.4440
  176SAPI   O3120011   5.569   5.734   7.059  0.0427  0.1237 -0.5826
  176SAPI   C3120012   5.673   5.670   7.094  0.0673  0.1680 -0.2026
  176SAPI   O3220013   5.759   5.623   7.015 -0.3293 -0.9343 -0.0700
  176SAPI   C3220014   5.691   5.678   7.246 -0.2657  0.4778  0.2864
  176SAPI   H2X20015   5.686   5.776   7.297  0.6450  0.3306  0.6774
  176SAPI   H2Y20016   5.796   5.642   7.257 -0.3111 -0.0450 -0.8412
  176SAPI   C2320017   5.279   5.239   7.142 -0.0080 -0.1703 -0.4994
  176SAPI   H3R20018   5.379   5.203   7.173 -0.2098  1.1945  2.0095
  176SAPI   H3S20019   5.242   5.190   7.049 -1.8763 -0.1764  0.2082
  176SAPI   C2420020   5.177   5.209   7.251  0.2938 -0.8166  0.2644
  176SAPI   H4R20021   5.169   5.099   7.268 -1.0026 -0.8288 -0.2738
  176SAPI   H4S20022   5.079   5.242   7.212  0.5135 -0.5770 -0.0830
  176SAPI   C2520023   5.206   5.281   7.383 -0.1430  0.5844  0.9653
  176SAPI   H5R20024   5.142   5.367   7.405 -2.9956 -1.0427 -0.4045
  176SAPI   C2620025   5.280   5.235   7.483 -0.5408 -0.5583 -0.5648
  176SAPI   H6R20026   5.281   5.285   7.581  2.6635 -0.1612 -0.6782
  176SAPI   C2720027   5.354   5.102   7.485 -0.4637  0.1972  0.6165
  176SAPI   H7R20028   5.441   5.127   7.551  1.7272 -1.3092 -1.5621
  176SAPI   H7S20029   5.387   5.071   7.384 -1.1773 -0.4571  0.5758
  176SAPI   C2820030   5.270   4.989   7.540 -0.0430  0.4611  0.0229
  176SAPI   H8R20031   5.178   4.973   7.481  0.4360 -2.2087 -0.1112
  176SAPI   C2920032   5.309   4.897   7.627  0.5801 -0.5528 -0.0876
  176SAPI   H9R20033   5.229   4.840   7.675 -0.0755 -1.1226 -1.7792
  176SAPI  C21020034   5.449   4.881   7.680 -0.0552 -0.2810 -0.3093
  176SAPI  H10R20035   5.445   4.882   7.791  0.3664 -0.4705 -0.2925
  176SAPI  H10S20036   5.511   4.972   7.663  0.2665  0.1275  2.5256
  176SAPI  C21120037   5.518   4.762   7.628 -1.0968  0.1231  0.2441
  176SAPI  H11R20038   5.581   4.793   7.543 -1.3842  0.3555  0.1165
  176SAPI  C21220039   5.518   4.637   7.687 -0.1171 -0.6218  0.5820
  176SAPI  H12R20040   5.572   4.554   7.640  1.2338 -0.8052  2.3856
  176SAPI  C21320041   5.445   4.599   7.815 -0.2006  0.2291  0.4611
  176SAPI  H13R20042   5.364   4.532   7.777 -0.1308  0.5181 -0.2140
  176SAPI  H13S20043   5.393   4.681   7.869 -3.0690 -1.7314  0.9140
  176SAPI  C21420044   5.531   4.517   7.913  0.8712  0.3554 -1.0567
  176SAPI  H14R20045   5.493   4.414   7.923 -0.3582  0.9064  0.4221
  176SAPI  C21520046   5.626   4.567   7.996 -0.9635 -0.7919  0.1238
  176SAPI  H15R20047   5.677   4.506   8.073 -0.1870 -1.0742 -0.5945
  176SAPI  C21620048   5.673   4.713   8.002  0.0024 -0.1068  0.5848
  176SAPI  H16R20049   5.591   4.785   7.980  0.0254 -0.3352 -0.2768
  176SAPI  H16S20050   5.751   4.730   7.925 -1.7577  1.7555 -0.9068
  176SAPI  C21720051   5.730   4.741   8.145 -0.1320 -0.5226 -0.1102
  176SAPI  H17R20052   5.782   4.840   8.140 -1.9729  0.6084  1.4918
  176SAPI  H17S20053   5.817   4.678   8.173  0.2012  0.1408  0.3851
  176SAPI  C21820054   5.620   4.752   8.257 -0.3032 -0.4515  0.7363
  176SAPI  H18R20055   5.582   4.648   8.263  0.9653 -0.8781  2.2664
  176SAPI  H18S20056   5.548   4.827   8.218  1.2740  0.5104 -0.4330
  176SAPI  C21920057   5.676   4.801   8.391  0.2705  0.3050  0.1530
  176SAPI  H19R20058   5.716   4.904   8.376  2.7476 -1.0069 -3.7988
  176SAPI  H19S20059   5.768   4.751   8.427 -0.3712 -0.4084  0.8317
  176SAPI  C22020060   5.566   4.793   8.498 -0.3603  0.2167  0.1581
  176SAPI  H20R20061   5.591   4.706   8.563 -0.6029 -1.6393 -2.0874
  176SAPI  H20S20062   5.467   4.770   8.453 -0.5759 -0.0885  0.7780
  176SAPI  H20T20063   5.566   4.890   8.551  1.5460  0.2902  0.1063
  176SAPI   C3320064   5.591   5.589   7.319  0.1658 -0.6919  0.3630
  176SAPI   H3X20065   5.587   5.494   7.261  0.4916  0.1998 -1.1863
  176SAPI   H3Y20066   5.495   5.644   7.309  0.1918 -0.9572 -1.9992
  176SAPI   C3420067   5.622   5.579   7.473  0.0745  0.5024 -0.1172
  176SAPI   H4X20068   5.630   5.675   7.529  1.7268  0.6121 -0.5011
  176SAPI   H4Y20069   5.722   5.533   7.485  0.5503  0.9636 -2.0700
  176SAPI   C3520070   5.518   5.488   7.548  0.1969  0.2851 -0.5029
  176SAPI   H5X20071   5.498   5.393   7.494 -0.8701  0.2829 -0.1213
  176SAPI   H5Y20072   5.418   5.535   7.538 -1.0837 -2.4033 -1.2456
  176SAPI   C3620073   5.562   5.467   7.695 -0.6548  0.0947  0.1694
  176SAPI   H6X20074   5.548   5.561   7.752 -2.5489 -0.3039  0.4308
  176SAPI   H6Y20075   5.665   5.430   7.708 -0.5945  1.2750  5.4029
  176SAPI   C3720076   5.467   5.373   7.774  0.9685  0.1229  0.4195
  176SAPI   H7X20077   5.469   5.282   7.710 -2.6502 -0.0609  0.3281
  176SAPI   H7Y20078   5.368   5.423   7.766  1.2655  0.5783 -0.5845
  176SAPI   C3820079   5.498   5.346   7.914 -0.0222  0.2735  0.0417
  176SAPI   H8X20080   5.466   5.426   7.984 -1.8813 -0.8319  0.5319
  176SAPI   H8Y20081   5.609   5.333   7.923  0.4455  2.0975 -2.3071
  176SAPI   C3920082   5.432   5.215   7.968 -0.8461  0.5191 -0.0109
  176SAPI   H9X20083   5.438   5.144   7.883 -2.9293  1.7225 -1.2277
  176SAPI   H9Y20084   5.324   5.239   7.981 -1.7529 -0.6559 -4.0006
  176SAPI  C31020085   5.494   5.167   8.101  0.1010 -0.1795 -0.0811
  176SAPI  H10X20086   5.599   5.202   8.098 -0.5807  1.9652 -2.3282
  176SAPI  H10Y20087   5.481   5.058   8.086  0.1132  0.0971 -2.5511
  176SAPI  C31120088   5.434   5.216   8.233 -0.0336 -0.5620  0.1237
  176SAPI  H11X20089   5.332   5.173   8.244 -1.6967  1.5833 -4.2811
  176SAPI  H11Y20090   5.415   5.325   8.232  0.9579 -0.3501 -2.0390
  176SAPI  C31220091   5.511   5.163   8.356 -0.1083 -0.0563  0.2918
  176SAPI  H12X20092   5.528   5.053   8.351 -1.3834 -0.2098 -2.2879
  176SAPI  H12Y20093   5.465   5.194   8.452 -2.0221 -1.2672 -0.1699
  176SAPI  C31320094   5.659   5.219   8.361  0.5976  0.5588  0.3008
  176SAPI  H13X20095   5.644   5.327   8.342 -2.2887  0.2457  0.3139
  176SAPI  H13Y20096   5.715   5.165   8.282  0.1075  1.8479 -0.9522
  176SAPI  C31420097   5.728   5.207   8.495  0.3981  0.5298 -0.7394
  176SAPI  H14X20098   5.753   5.103   8.523 -0.4476  0.8155  1.2081
  176SAPI  H14Y20099   5.659   5.232   8.578  2.4260  1.7246  0.6836
  176SAPI  C31520100   5.861   5.280   8.501 -0.6000  0.7098  0.7020
  176SAPI  H15X20101   5.846   5.383   8.463 -2.7386  0.8591  1.7994
  176SAPI  H15Y20102   5.923   5.226   8.426 -1.3099  0.9803 -0.0979
  176SAPI  C31620103   5.923   5.274   8.638  0.3039 -0.0618 -0.2479
  176SAPI  H16X20104   6.031   5.301   8.643  0.4286 -0.7776  1.2422
  176SAPI  H16Y20105   5.921   5.170   8.675  0.0445  0.5646  1.5815
  176SAPI  C31720106   5.851   5.363   8.738 -0.5535 -0.0962  0.8447
  176SAPI  H17X20107   5.744   5.338   8.749 -0.3449 -1.0915  0.6594
  176SAPI  H17Y20108   5.846   5.467   8.700 -1.4642 -0.5942 -0.4625
  176SAPI  C31820109   5.917   5.368   8.877  0.1480 -0.1550 -0.3525
  176SAPI  H18X20110   5.858   5.441   8.937 -1.0092 -1.3236 -0.0233
  176SAPI  H18Y20111   6.022   5.406   8.880  0.0636  0.0806  2.0248
  176SAPI  H18Z20112   5.902   5.272   8.931 -0.9123 -1.2892 -2.5273
  177SLPC     N20113   6.159   2.911  11.016  0.0440 -0.1947  0.3787
  177SLPC   C1320114   6.088   2.778  11.018  1.0515 -0.1707 -0.4055
  177SLPC  H13A20115   6.040   2.747  10.926  0.8547  0.6411 -0.5838
  177SLPC  H13B20116   6.154   2.697  11.046  2.2606  0.5320 -1.1320
  177SLPC  H13C20117   6.005   2.784  11.087  1.8465  2.0101  0.4418
  177SLPC   C1420118   6.224   2.922  11.155 -0.4221 -0.1727 -0.2467
  177SLPC  H14A20119   6.305   2.992  11.153  0.3496 -1.0241  0.4862
  177SLPC  H14B20120   6.155   2.964  11.227 -0.0293 -2.1002  1.3422
  177SLPC  H14C20121   6.250   2.821  11.184 -0.2933 -0.2695 -0.6884
  177SLPC   C1520122   6.060   3.023  10.999 -0.0331  0.4372 -0.1531
  177SLPC  H15A20123   5.992   3.013  10.916 -0.9527  4.9507 -0.1872
  177SLPC  H15B20124   5.993   3.027  11.084  0.8079  1.8101  0.4753
  177SLPC  H15C20125   6.109   3.118  10.988  0.6042  0.1092 -0.1775
  177SLPC   C1220126   6.267   2.897  10.918  0.5033  0.0156 -0.1010
  177SLPC  H12A20127   6.224   2.871  10.823  0.5998  0.5297 -0.2866
  177SLPC  H12B20128   6.325   2.810  10.947  0.1270  0.1542  1.1506
  177SLPC   C1120129   6.358   3.021  10.886  0.8290 -0.1026 -0.1753
  177SLPC  H11A20130   6.297   3.107  10.851  0.5212 -0.7351 -1.2067
  177SLPC  H11B20131   6.422   2.992  10.800  1.4608 -1.8167  0.8249
  177SLPC     P20132   6.585   3.025  10.998  0.1357  0.2589 -0.5658
  177SLPC   O1320133   6.649   3.132  11.078 -0.6759  0.3310 -0.0712
  177SLPC   O1420134   6.614   2.881  11.035  0.5840  0.3730  0.5112
  177SLPC   O1220135   6.430   3.058  11.000 -0.0098  0.1468 -0.1101
  177SLPC   O1120136   6.640   3.036  10.847 -0.2334  0.2425  0.6373
  177SLPC    C120137   6.636   3.166  10.783  0.7559 -0.3460  0.0725
  177SLPC    HA20138   6.536   3.214  10.793  1.6013  1.6560 -0.6631
  177SLPC    HB20139   6.710   3.232  10.833  2.2942 -0.8110 -1.4871
  177SLPC    C220140   6.684   3.162  10.637 -0.1126  0.5457 -0.4908
  177SLPC    HS20141   6.596   3.125  10.581  0.0518  0.6377 -0.8163
  177SLPC   O2120142   6.798   3.077  10.627  0.7131 -0.0550 -0.0159
  177SLPC   C2120143   6.802   2.994  10.526 -0.0237  0.1855  0.4093
  177SLPC   O2220144   6.713   2.985  10.440  0.2029 -0.1743 -0.1354
  177SLPC   C2220145   6.928   2.909  10.538  0.5726  0.0307  0.3087
  177SLPC   H2R20146   7.013   2.980  10.548  0.1484  0.9629 -1.8876
  177SLPC   H2S20147   6.922   2.852  10.632  2.9405 -1.0777 -0.1281
  177SLPC    C320148   6.712   3.297  10.570  0.9257 -0.0783  0.3705
  177SLPC    HX20149   6.791   3.353  10.623  0.3450  0.0772  1.0859
  177SLPC    HY20150   6.622   3.361  10.574  0.0699 -1.2788  0.9930
  177SLPC   O3120151   6.763   3.276  10.431 -0.1545  0.3878  0.6570
  177SLPC   C3120152   6.663   3.264  10.350 -0.8865 -0.4665 -0.1692
  177SLPC   O3220153   6.546   3.290  10.366  0.0391 -0.2260 -0.3260
  177SLPC   C3220154   6.717   3.230  10.212  0.5891  0.6597  0.2549
  177SLPC   H2X20155   6.756   3.126  10.204  0.0812  0.6184 -3.3391
  177SLPC   H2Y20156   6.799   3.304  10.198 -1.8306  3.4045 -0.2133
  177SLPC   C2320157   6.959   2.804  10.420 -1.1571  0.3781 -0.4738
  177SLPC   H3R20158   6.880   2.726  10.416  1.4580 -2.7632  2.6194
  177SLPC   H3S20159   7.041   2.743  10.464 -1.1209  0.3566 -0.5680
  177SLPC   C2420160   6.991   2.869  10.284  0.3333 -1.1733  0.6264
  177SLPC   H4R20161   7.078   2.937  10.297 -0.5225 -0.5368  3.9271
  177SLPC   H4S20162   6.910   2.936  10.247  3.1171  2.0219 -0.2222
  177SLPC   C2520163   7.033   2.769  10.178 -0.8514  0.4228 -0.3147
  177SLPC   H5R20164   6.948   2.700  10.159  0.8764 -1.7520 -0.6340
  177SLPC   H5S20165   7.122   2.715  10.216 -0.3053  3.4035  3.2207
  177SLPC   C2620166   7.063   2.829  10.039 -0.5813  0.2049 -0.0964
  177SLPC   H6R20167   7.162   2.878  10.030 -1.8518  2.6268 -2.0284
  177SLPC   H6S20168   6.986   2.906  10.019 -2.2873 -1.5626 -0.7017
  177SLPC   C2720169   7.057   2.728   9.922  0.0752  0.8008  0.5627
  177SLPC   H7R20170   6.958   2.677   9.923 -0.0190  0.8838 -1.0940
  177SLPC   H7S20171   7.122   2.646   9.960 -0.2869  1.1285  1.9286
  177SLPC   C2820172   7.089   2.784   9.784  0.4149 -0.6290 -0.6292
  177SLPC   H8R20173   7.106   2.689   9.728 -1.1336 -0.1969 -1.8843
  177SLPC   H8S20174   7.188   2.834   9.796  1.1731 -2.3105  0.4484
  177SLPC   C2920175   6.984   2.882   9.724  0.4103  0.5441  0.2538
  177SLPC   H9R20176   6.899   2.907   9.789 -0.9739 -0.6637 -1.0146
  177SLPC  C21020177   6.994   2.928   9.598  0.2500 -0.2690 -0.0526
  177SLPC  H10R20178   6.910   2.981   9.551 -0.2214 -0.1551  0.8853
  177SLPC  C21120179   7.110   2.892   9.507 -0.3629  0.3319  0.0527
  177SLPC  H11R20180   7.106   2.959   9.418  1.0713 -2.0372 -1.9342
  177SLPC  H11S20181   7.200   2.924   9.563  0.6605  0.1300 -1.4139
  177SLPC  C21220182   7.129   2.753   9.454 -0.0486  0.6367 -0.0406
  177SLPC  H12R20183   7.189   2.683   9.514  0.1546 -0.9631 -2.0186
  177SLPC  C21320184   7.077   2.699   9.344 -0.2597 -0.5839 -0.5558
  177SLPC  H13R20185   7.105   2.598   9.312  1.3776 -0.1519 -0.5997
  177SLPC  C21420186   7.002   2.775   9.245  0.2669 -0.3744  0.1039
  177SLPC  H14R20187   7.014   2.885   9.257  3.0984 -0.5379 -0.4753
  177SLPC  H14S20188   6.896   2.747   9.260 -0.2439  0.6069 -1.4263
  177SLPC  C21520189   7.051   2.742   9.100  1.2601  0.3135  0.9862
  177SLPC  H15R20190   6.988   2.786   9.019  1.4840 -3.1299 -1.2770
  177SLPC  H15S20191   7.039   2.634   9.078 -0.5819  0.7954 -0.7284
  177SLPC  C21620192   7.196   2.781   9.075  0.3759  0.6691 -0.4013
  177SLPC  H16R20193   7.256   2.732   9.155 -0.7549  0.5661  0.3968
  177SLPC  H16S20194   7.210   2.891   9.086  0.4474  0.6641 -0.4381
  177SLPC  C21720195   7.264   2.716   8.952  0.1402  0.2313 -0.8088
  177SLPC  H17R20196   7.205   2.735   8.861  1.2288  0.5483 -1.4690
  177SLPC  H17S20197   7.281   2.607   8.960  1.6001  0.5541  1.7218
  177SLPC  C21820198   7.412   2.768   8.930  0.4390 -0.2605  0.3297
  177SLPC  H18R20199   7.405   2.879   8.924  2.2652 -0.0735  0.8870
  177SLPC  H18S20200   7.446   2.743   8.827 -0.1791  2.5486 -0.6682
  177SLPC  H18T20201   7.476   2.730   9.012  1.0951 -2.7026 -1.2233
  177SLPC   C3320202   6.624   3.255  10.090  0.2669  0.1804 -0.1939
  177SLPC   H3X20203   6.586   3.359  10.078 -2.7304 -0.9177 -1.0318
  177SLPC   H3Y20204   6.532   3.193  10.096 -0.1924  0.6957 -1.5023
  177SLPC   C3420205   6.696   3.208   9.957 -0.5852 -0.3069  0.0610
  177SLPC   H4X20206   6.688   3.097   9.952 -0.3027 -0.3199 -0.0849
  177SLPC   H4Y20207   6.801   3.242   9.959 -1.0407  1.4047  3.8633
  177SLPC   C3520208   6.627   3.261   9.832 -0.4826  0.6675 -0.2001
  177SLPC   H5X20209   6.621   3.372   9.837  1.3394  0.9758 -2.8240
  177SLPC   H5Y20210   6.521   3.228   9.822 -0.1211 -0.2846 -1.1007
  177SLPC   C3620211   6.707   3.225   9.706  0.2699  0.3161  0.4497
  177SLPC   H6X20212   6.688   3.119   9.680 -1.6875  0.8792 -0.6191
  177SLPC   H6Y20213   6.817   3.229   9.721  0.0851  0.5134  1.9170
  177SLPC   C3720214   6.671   3.312   9.583  0.2946  0.5144  0.0262
  177SLPC   H7X20215   6.706   3.413   9.612  1.6887  0.6647 -1.9749
  177SLPC   H7Y20216   6.562   3.316   9.562  0.6090  0.1512 -1.8548
  177SLPC   C3820217   6.764   3.288   9.458 -0.1400  0.4316 -0.1764
  177SLPC   H8X20218   6.868   3.264   9.488 -0.5141  0.1737  0.9878
  177SLPC   H8Y20219   6.769   3.385   9.403 -2.4442  0.3742 -0.5953
  177SLPC   C3920220   6.705   3.171   9.381 -0.1329 -1.0078 -0.6406
  177SLPC   H9X20221   6.597   3.194   9.364 -0.1458  1.2964  1.8341
  177SLPC   H9Y20222   6.713   3.077   9.441  2.7229 -0.5977 -0.2570
  177SLPC  C31020223   6.771   3.146   9.244 -0.0456 -0.5973 -0.5966
  177SLPC  H10X20224   6.875   3.111   9.261 -0.5242 -0.6818  2.8418
  177SLPC  H10Y20225   6.772   3.241   9.187 -1.3329 -1.0137 -1.3548
  177SLPC  C31120226   6.691   3.047   9.159  0.0418  0.5280 -0.1306
  177SLPC  H11X20227   6.582   3.066   9.160  0.1397  1.1053 -0.1850
  177SLPC  H11Y20228   6.708   2.941   9.191 -0.6927  0.6752  0.8040
  177SLPC  C31220229   6.731   3.038   9.012  0.2569  1.0141  0.4675
  177SLPC  H12X20230   6.676   3.124   8.968 -2.9778 -0.2388  1.8232
  177SLPC  H12Y20231   6.688   2.944   8.972  1.3648  0.2250  1.0588
  177SLPC  C31320232   6.880   3.043   8.986  0.3811 -0.7687  0.1162
  177SLPC  H13X20233   6.935   2.984   9.063  0.0222 -0.6942  0.4368
  177SLPC  H13Y20234   6.914   3.148   8.983 -1.5481 -0.0219 -5.2079
  177SLPC  C31420235   6.914   2.994   8.842  0.2372  0.7017 -0.0129
  177SLPC  H14X20236   6.839   3.030   8.769 -2.3972 -0.1399  2.0891
  177SLPC  H14Y20237   6.916   2.883   8.842  2.8013  0.6642  1.3478
  177SLPC  C31520238   7.057   3.028   8.795 -0.3361 -1.1907 -0.0461
  177SLPC  H15X20239   7.130   2.973   8.858  1.4960  0.6548 -0.4782
  177SLPC  H15Y20240   7.078   3.135   8.815 -0.8682 -1.3148  1.2946
  177SLPC  C31620241   7.090   3.012   8.646 -1.2979 -0.3312 -0.0375
  177SLPC  H16X20242   7.069   2.906   8.620 -1.0282 -0.7175  1.2637
  177SLPC  H16Y20243   7.200   3.030   8.656 -1.2727 -0.7901  0.5400
  177SLPC  C31720244   7.030   3.119   8.554 -0.2759  0.0706  0.3059
  177SLPC  H17X20245   6.925   3.132   8.588 -0.2461 -1.2210  0.9403
  177SLPC  H17Y20246   7.014   3.095   8.446 -0.9474  1.2736  0.1262
  177SLPC  C31820247   7.088   3.263   8.554  0.1873  0.3792 -0.1175
  177SLPC  H18X20248   7.006   3.334   8.529 -2.4226 -1.1892  3.2200
  177SLPC  H18Y20249   7.173   3.270   8.483  1.0117 -1.0685  0.6990
  177SLPC  H18Z20250   7.130   3.284   8.654  0.8906 -2.4648  0.2666
  178SLPC     N20251   2.042   4.373  10.791 -0.3941 -0.5742  0.7361
  178SLPC   C1320252   2.178   4.330  10.747 -0.1207 -0.2487  0.1314
  178SLPC  H13A20253   2.202   4.363  10.647  1.3668 -0.6389  0.3342
  178SLPC  H13B20254   2.257   4.362  10.814  0.6255 -2.5752  0.4592
  178SLPC  H13C20255   2.197   4.223  10.755  1.4412 -0.0869 -0.9714
  178SLPC   C1420256   2.044   4.523  10.769  0.2362  0.1137  0.3837
  178SLPC  H14A20257   2.130   4.570  10.815  1.7846 -0.6336 -1.5385
  178SLPC  H14B20258   2.050   4.551  10.665  1.3710 -0.1580  0.3595
  178SLPC  H14C20259   1.954   4.564  10.811 -0.6444 -0.6009 -0.7349
  178SLPC   C1520260   2.028   4.344  10.937 -0.4575  0.2098  0.5928
  178SLPC  H15A20261   2.076   4.422  10.994 -1.1817  0.1256  1.3411
  178SLPC  H15B20262   1.925   4.354  10.968 -0.6881 -1.9475  0.7005
  178SLPC  H15C20263   2.049   4.243  10.969  1.5516  0.5462  0.4212
  178SLPC   C1220264   1.946   4.307  10.701 -0.3624  0.1976 -0.4520
  178SLPC  H12A20265   1.924   4.207  10.735  1.0313  0.1783  0.4711
  178SLPC  H12B20266   1.978   4.314  10.598 -2.0209  0.5799 -0.9749
  178SLPC   C1120267   1.799   4.364  10.716 -0.0907  0.1530  0.2159
  178SLPC  H11A20268   1.734   4.300  10.653  2.5389 -1.3812 -1.1348
  178SLPC  H11B20269   1.807   4.461  10.662  2.9812  1.2909  2.4358
  178SLPC     P20270   1.655   4.473  10.904  0.3639  0.3079  0.3025
  178SLPC   O1320271   1.569   4.400  10.998  0.1876 -0.2619  0.1291
  178SLPC   O1420272   1.735   4.588  10.950 -0.3191 -0.4105  0.8498
  178SLPC   O1220273   1.753   4.363  10.852  0.5870 -0.6874  0.2097
  178SLPC   O1120274   1.569   4.523  10.774 -0.1358 -0.1130 -0.0612
  178SLPC    C120275   1.489   4.434  10.692  0.4128  0.1996  0.1269
  178SLPC    HA20276   1.525   4.329  10.688  0.2266  0.1235  0.3785
  178SLPC    HB20277   1.382   4.425  10.723 -0.4980  1.6254 -2.3216
  178SLPC    C220278   1.487   4.483  10.543 -0.3728 -0.1732 -0.7034
  178SLPC    HS20279   1.591   4.518  10.528  0.3257 -0.4577  2.6990
  178SLPC   O2120280   1.392   4.591  10.547  0.3590  0.1083  0.4492
  178SLPC   C2120281   1.414   4.690  10.459 -0.6084  0.2222 -0.0317
  178SLPC   O2220282   1.509   4.698  10.386  0.2138 -0.1515 -0.1438
  178SLPC   C2220283   1.298   4.786  10.460 -0.4842 -0.1887 -0.3791
  178SLPC   H2R20284   1.241   4.794  10.555  1.2143 -0.1406  0.6721
  178SLPC   H2S20285   1.343   4.886  10.444 -1.1944  0.0482 -0.9501
  178SLPC    C320286   1.459   4.366  10.437 -0.2254 -0.4326  0.5100
  178SLPC    HX20287   1.362   4.315  10.450 -1.4510  1.5125 -0.4945
  178SLPC    HY20288   1.542   4.292  10.448 -0.9856 -1.7184 -1.7356
  178SLPC   O3120289   1.457   4.423  10.303  0.1744  0.0882 -0.1310
  178SLPC   C3120290   1.579   4.429  10.235  0.4499 -0.3789  0.0167
  178SLPC   O3220291   1.683   4.381  10.282 -0.0378 -0.3266 -0.2265
  178SLPC   C3220292   1.544   4.466  10.093  0.2830 -0.4000 -0.7110
  178SLPC   H2X20293   1.482   4.558  10.095 -0.2372 -0.7632 -0.0913
  178SLPC   H2Y20294   1.497   4.384  10.035  0.1977 -0.5457 -0.4399
  178SLPC   C2320295   1.194   4.781  10.339 -0.3583  0.4579 -0.5986
  178SLPC   H3R20296   1.100   4.835  10.359 -0.5330 -0.5038  1.3725
  178SLPC   H3S20297   1.162   4.675  10.326  1.8048 -0.1540 -1.4174
  178SLPC   C2420298   1.260   4.806  10.202 -0.0125  0.5103 -0.8908
  178SLPC   H4R20299   1.345   4.734  10.203  0.0104  0.4974 -1.8820
  178SLPC   H4S20300   1.296   4.910  10.188  0.4338  0.3161 -1.2257
  178SLPC   C2520301   1.160   4.784  10.087  0.2879  0.7320  0.3968
  178SLPC   H5R20302   1.097   4.875  10.079 -1.1448 -0.2695 -0.1639
  178SLPC   H5S20303   1.088   4.705  10.117  0.1722  1.0433  0.9432
  178SLPC   C2620304   1.236   4.765   9.952  0.0813  0.7024  0.1630
  178SLPC   H6R20305   1.331   4.714   9.981  0.2003  1.3874  1.0346
  178SLPC   H6S20306   1.268   4.865   9.916 -0.3649  0.4216 -1.0486
  178SLPC   C2720307   1.151   4.704   9.841  0.1713  0.3009  0.0474
  178SLPC   H7R20308   1.046   4.731   9.867  0.3585  0.2997  0.8418
  178SLPC   H7S20309   1.155   4.595   9.863 -1.3795  0.6841  2.6182
  178SLPC   C2820310   1.178   4.755   9.699 -0.1998  0.6847  0.0005
  178SLPC   H8R20311   1.267   4.709   9.651 -0.0915  1.3322 -0.4453
  178SLPC   H8S20312   1.188   4.866   9.694 -1.6274  0.9129  1.4569
  178SLPC   C2920313   1.060   4.718   9.616 -0.1916  0.0421  0.5704
  178SLPC   H9R20314   0.962   4.717   9.667  0.6638  2.2310  2.3936
  178SLPC  C21020315   1.057   4.685   9.482 -0.2061 -0.0891 -0.6579
  178SLPC  H10R20316   0.966   4.683   9.421 -0.6850  2.3858 -0.1530
  178SLPC  C21120317   1.176   4.690   9.396 -0.0182  0.5590  0.5462
  178SLPC  H11R20318   1.261   4.749   9.437 -0.9745  1.4345  1.3258
  178SLPC  H11S20319   1.142   4.740   9.302 -2.8683 -2.0919  0.0082
  178SLPC  C21220320   1.233   4.553   9.353 -0.0377 -0.3841  0.0269
  178SLPC  H12R20321   1.248   4.490   9.442 -2.5527  2.3994  2.6391
  178SLPC  C21320322   1.244   4.491   9.231  0.5491  0.1707  0.0562
  178SLPC  H13R20323   1.279   4.387   9.234 -1.6437 -0.6432 -0.1561
  178SLPC  C21420324   1.206   4.544   9.093 -0.2589 -0.0184  0.1401
  178SLPC  H14R20325   1.161   4.645   9.100 -1.8108 -0.5831 -1.2004
  178SLPC  H14S20326   1.139   4.472   9.041 -1.1453  1.8959 -1.4990
  178SLPC  C21520327   1.334   4.567   8.999 -0.3047 -0.3664 -0.3254
  178SLPC  H15R20328   1.393   4.472   9.000 -0.0963 -0.2329  0.2774
  178SLPC  H15S20329   1.382   4.656   9.046 -2.1262 -0.0197  0.9773
  178SLPC  C21620330   1.304   4.601   8.855  0.3669 -1.1567  0.0969
  178SLPC  H16R20331   1.266   4.705   8.862  1.6124 -0.4030 -2.8792
  178SLPC  H16S20332   1.228   4.530   8.815 -1.0720  1.3931 -1.9681
  178SLPC  C21720333   1.422   4.618   8.765  0.4108  0.8115  0.1540
  178SLPC  H17R20334   1.479   4.524   8.745 -0.3835  0.2242  0.5614
  178SLPC  H17S20335   1.478   4.697   8.819  0.0570 -1.3410  4.0121
  178SLPC  C21820336   1.374   4.670   8.628 -0.8384  0.0313  0.4393
  178SLPC  H18R20337   1.458   4.689   8.558 -0.5065 -2.1321  0.1936
  178SLPC  H18S20338   1.325   4.770   8.635 -0.3603  0.2226  1.1396
  178SLPC  H18T20339   1.308   4.593   8.583  0.1581 -0.1701 -0.7374
  178SLPC   C3320340   1.669   4.522  10.017 -0.0499  0.1260  0.3918
  178SLPC   H3X20341   1.745   4.440  10.015  1.4070  1.4479 -1.4829
  178SLPC   H3Y20342   1.709   4.606  10.077 -1.3266  0.6154  0.5781
  178SLPC   C3420343   1.640   4.565   9.877 -0.1186 -0.1197  0.5451
  178SLPC   H4X20344   1.713   4.644   9.849 -0.6097 -0.1082 -0.7478
  178SLPC   H4Y20345   1.546   4.624   9.876  0.2149  0.4534 -1.7936
  178SLPC   C3520346   1.649   4.463   9.768 -0.7188  0.2322  0.7527
  178SLPC   H5X20347   1.588   4.371   9.785 -1.1576  0.1619 -0.9482
  178SLPC   H5Y20348   1.756   4.435   9.760 -0.6480  0.8756 -1.1925
  178SLPC   C3620349   1.626   4.534   9.636  0.6184  0.4933 -1.1150
  178SLPC   H6X20350   1.689   4.626   9.637  0.0254  0.9055 -0.2089
  178SLPC   H6Y20351   1.521   4.567   9.629 -0.0569 -1.8382 -3.4301
  178SLPC   C3720352   1.640   4.444   9.505 -0.1545  0.4860 -0.2605
  178SLPC   H7X20353   1.547   4.383   9.509 -0.2160  0.5828 -0.2027
  178SLPC   H7Y20354   1.734   4.385   9.508  1.1824  2.3694  4.1535
  178SLPC   C3820355   1.643   4.527   9.371  0.6891  0.0642 -0.7265
  178SLPC   H8X20356   1.733   4.592   9.377 -0.3581  1.4481  1.0170
  178SLPC   H8Y20357   1.559   4.600   9.375  0.4173 -0.2861  1.0881
  178SLPC   C3920358   1.621   4.448   9.245 -0.1732 -0.4609  0.3748
  178SLPC   H9X20359   1.573   4.519   9.175  0.7877  0.1393  0.2990
  178SLPC   H9Y20360   1.545   4.370   9.265  1.2545 -1.6582  1.4234
  178SLPC  C31020361   1.745   4.398   9.176  0.5464  0.4978  0.2954
  178SLPC  H10X20362   1.816   4.341   9.240  0.7691 -0.8494 -1.1113
  178SLPC  H10Y20363   1.807   4.486   9.151 -2.3307  2.1368 -1.6151
  178SLPC  C31120364   1.715   4.335   9.036 -0.3228 -0.3131 -0.1304
  178SLPC  H11X20365   1.638   4.390   8.978 -2.5626 -3.4891 -0.4656
  178SLPC  H11Y20366   1.673   4.239   9.073  1.8149 -1.3211 -0.1810
  178SLPC  C31220367   1.838   4.304   8.952 -0.1835  0.1067  0.0984
  178SLPC  H12X20368   1.915   4.263   9.021  1.1725  0.2948 -1.2364
  178SLPC  H12Y20369   1.879   4.390   8.895  2.7310 -1.4848 -0.4269
  178SLPC  C31320370   1.815   4.188   8.855  0.6355  0.3472  0.2457
  178SLPC  H13X20371   1.776   4.224   8.758 -1.6562 -5.1722 -1.2657
  178SLPC  H13Y20372   1.733   4.135   8.908 -0.2359  3.0528  1.8046
  178SLPC  C31420373   1.935   4.091   8.829 -0.4679  0.2860  0.3844
  178SLPC  H14X20374   1.942   4.033   8.924  1.2027 -0.0974  0.0588
  178SLPC  H14Y20375   2.029   4.149   8.825 -1.4424  1.9519  0.7699
  178SLPC  C31520376   1.911   4.003   8.711 -0.3131 -0.2981 -0.2240
  178SLPC  H15X20377   1.826   3.931   8.721  1.0133 -1.7145  1.3487
  178SLPC  H15Y20378   1.896   4.074   8.626  0.8631  0.3805  0.1230
  178SLPC  C31620379   2.035   3.912   8.669 -0.0491 -0.5862  0.2355
  178SLPC  H16X20380   2.106   3.992   8.636 -0.5873 -0.4574 -0.6146
  178SLPC  H16Y20381   1.998   3.858   8.580 -1.7447  0.8282  0.0211
  178SLPC  C31720382   2.085   3.815   8.778  0.0789  0.2215  0.0149
  178SLPC  H17X20383   2.002   3.742   8.783 -0.8083  0.9094 -2.6552
  178SLPC  H17Y20384   2.091   3.866   8.876  1.3161 -0.2309  0.2022
  178SLPC  C31820385   2.217   3.746   8.731 -0.2184 -0.1179  0.1635
  178SLPC  H18X20386   2.242   3.663   8.799 -0.4478 -0.2126  0.1344
  178SLPC  H18Y20387   2.294   3.826   8.726 -0.3641 -0.0042 -0.3049
  178SLPC  H18Z20388   2.207   3.705   8.628  1.2736  1.5847 -0.7165
  179SLPC     N20389   3.694   0.428  10.322 -0.2207 -0.3926  0.4827
  179SLPC   C1320390   3.752   0.442  10.459 -0.0510  0.1057 -0.1599
  179SLPC  H13A20391   3.734   0.362  10.529  1.8312 -0.6790 -0.5001
  179SLPC  H13B20392   3.859   0.457  10.465 -0.0489 -0.1904  0.6542
  179SLPC  H13C20393   3.714   0.526  10.516  2.0318  1.5273 -0.7285
  179SLPC   C1420394   3.794   0.343  10.246  0.0999  0.2041  0.2055
  179SLPC  H14A20395   3.894   0.343  10.289  0.9893 -1.1000 -1.7435
  179SLPC  H14B20396   3.766   0.239  10.243 -0.4663  0.3206  1.1644
  179SLPC  H14C20397   3.794   0.369  10.141  1.0946 -2.8262 -0.6429
  179SLPC   C1520398   3.708   0.570  10.260 -0.8061 -0.0095  0.1522
  179SLPC  H15A20399   3.662   0.647  10.320  0.0264  1.9622 -1.6017
  179SLPC  H15B20400   3.814   0.589  10.249 -0.0297 -3.1105  1.3443
  179SLPC  H15C20401   3.657   0.572  10.165 -1.0474 -0.3091  0.2760
  179SLPC   C1220402   3.554   0.373  10.311  0.2618  0.2241 -0.0252
  179SLPC  H12A20403   3.540   0.343  10.208 -0.1184 -0.4017  0.2017
  179SLPC  H12B20404   3.483   0.452  10.332 -0.8244 -0.8114  0.3154
  179SLPC   C1120405   3.509   0.249  10.389  0.1903  0.7861 -0.1189
  179SLPC  H11A20406   3.409   0.221  10.350 -0.4425  3.0105 -0.2332
  179SLPC  H11B20407   3.508   0.269  10.498  0.2237 -0.0181  0.0353
  179SLPC     P20408   3.556   0.019  10.263  0.2669  0.1023  0.3887
  179SLPC   O1320409   3.666  -0.080  10.251  0.2595 -0.1395 -0.7907
  179SLPC   O1420410   3.419  -0.038  10.298 -0.2350 -0.1743 -0.3983
  179SLPC   O1220411   3.599   0.134  10.366 -0.2697  0.0463 -0.3075
  179SLPC   O1120412   3.541   0.099  10.123 -0.4694 -0.0626 -0.3425
  179SLPC    C120413   3.428   0.077  10.040  0.6137  0.6247 -0.8906
  179SLPC    HA20414   3.336   0.119  10.086 -0.2253  1.6285 -3.3120
  179SLPC    HB20415   3.448   0.143   9.953  2.3981  0.8458 -0.3613
  179SLPC    C220416   3.424  -0.071   9.984  0.2414 -0.7437  0.3256
  179SLPC    HS20417   3.381  -0.143  10.056 -1.4258 -1.2280 -1.0813
  179SLPC   O2120418   3.559  -0.112   9.953  0.3046 -0.0289 -0.1572
  179SLPC   C2120419   3.597  -0.235   9.961 -0.1803 -0.8257 -0.7126
  179SLPC   O2220420   3.535  -0.333   9.999 -0.1323  1.0746 -0.0949
  179SLPC   C2220421   3.737  -0.251   9.904  0.7998  0.4784  0.5567
  179SLPC   H2R20422   3.807  -0.168   9.925 -0.8322  1.6442  1.6016
  179SLPC   H2S20423   3.770  -0.352   9.936 -0.6603 -0.6947 -1.4181
  179SLPC    C320424   3.324  -0.084   9.857 -0.2949  0.2402 -0.0914
  179SLPC    HX20425   3.364  -0.015   9.779 -1.3268  2.0681  0.9376
  179SLPC    HY20426   3.226  -0.042   9.886 -0.0989  2.7502 -2.6670
  179SLPC   O3120427   3.312  -0.215   9.805  0.7292 -0.7275 -0.4167
  179SLPC   C3120428   3.246  -0.304   9.880 -0.3381 -0.0798  0.8551
  179SLPC   O3220429   3.185  -0.291   9.984 -0.2648  0.3593 -0.2478
  179SLPC   C3220430   3.245  -0.443   9.808  0.4489  0.0591 -0.1042
  179SLPC   H2X20431   3.141  -0.480   9.819  0.8063 -1.3168 -1.0237
  179SLPC   H2Y20432   3.316  -0.509   9.863 -0.4349  0.5692  1.6944
  179SLPC   C2320433   3.730  -0.275   9.751  0.4773 -0.2464 -0.0385
  179SLPC   H3R20434   3.700  -0.184   9.696  1.9365  0.6720  0.6144
  179SLPC   H3S20435   3.650  -0.342   9.713  0.9841 -0.9572  0.1311
  179SLPC   C2420436   3.869  -0.325   9.701 -0.1440  0.9129 -0.0494
  179SLPC   H4R20437   3.860  -0.428   9.660 -0.0807  0.9995 -0.2840
  179SLPC   H4S20438   3.945  -0.321   9.782 -0.5706  1.3253  0.3406
  179SLPC   C2520439   3.914  -0.246   9.575  0.8137  0.0392  0.5879
  179SLPC   H5R20440   4.011  -0.283   9.534 -0.5890 -2.0323 -1.1177
  179SLPC   H5S20441   3.921  -0.140   9.606  0.8125  0.1333  0.2686
  179SLPC   C2620442   3.825  -0.246   9.448  0.5397  0.1189 -0.8250
  179SLPC   H6R20443   3.871  -0.173   9.378 -1.0258  1.3096 -0.6721
  179SLPC   H6S20444   3.722  -0.212   9.474 -0.4075 -1.8173 -1.7916
  179SLPC   C2720445   3.822  -0.382   9.389  0.1994  0.5092  0.2113
  179SLPC   H7R20446   3.759  -0.448   9.452  1.9602  0.1177  1.6628
  179SLPC   H7S20447   3.921  -0.431   9.378 -0.1150 -0.0222 -0.3141
  179SLPC   C2820448   3.751  -0.375   9.249  0.1737 -0.5037  0.1222
  179SLPC   H8R20449   3.646  -0.344   9.273  0.6491 -0.2677  2.0961
  179SLPC   H8S20450   3.754  -0.482   9.222  1.1644 -0.7679  1.2179
  179SLPC   C2920451   3.805  -0.285   9.142 -0.2856  0.3183  0.0236
  179SLPC   H9R20452   3.796  -0.177   9.162 -0.3762  0.7122 -1.9599
  179SLPC  C21020453   3.856  -0.326   9.025  0.2299  0.2312  0.1608
  179SLPC  H10R20454   3.894  -0.255   8.950  0.9103 -0.7445 -0.4386
  179SLPC  C21120455   3.874  -0.469   8.977 -0.4728 -0.0473 -0.2528
  179SLPC  H11R20456   3.913  -0.533   9.060 -0.4369  1.8188  1.2422
  179SLPC  H11S20457   3.943  -0.462   8.891  0.0930 -1.2511  0.0842
  179SLPC  C21220458   3.739  -0.527   8.936  0.1198 -0.0027 -0.8348
  179SLPC  H12R20459   3.657  -0.459   8.963  2.0199  2.8601 -1.8378
  179SLPC  C21320460   3.727  -0.618   8.836 -0.5724 -0.3511 -0.2177
  179SLPC  H13R20461   3.630  -0.651   8.796 -0.1040 -0.9853 -0.8476
  179SLPC  C21420462   3.843  -0.682   8.770  0.4023  1.0320 -0.1927
  179SLPC  H14R20463   3.841  -0.793   8.778 -0.3757  1.1570  2.1050
  179SLPC  H14S20464   3.940  -0.657   8.818  0.4943 -0.0949  0.2420
  179SLPC  C21520465   3.851  -0.617   8.630  0.1706 -0.3546 -0.1628
  179SLPC  H15R20466   3.864  -0.508   8.643 -0.2481 -0.2056 -0.9223
  179SLPC  H15S20467   3.757  -0.638   8.575  0.2584 -1.3538  0.0469
  179SLPC  C21620468   3.960  -0.673   8.542  1.0699 -0.0882 -0.3008
  179SLPC  H16R20469   3.913  -0.762   8.496  0.4476  0.2008 -0.2388
  179SLPC  H16S20470   4.052  -0.695   8.601 -0.9679 -2.3136  2.2896
  179SLPC  C21720471   4.012  -0.584   8.425  0.9235 -0.5601  0.0284
  179SLPC  H17R20472   4.056  -0.489   8.463  0.0312 -0.0652 -0.1531
  179SLPC  H17S20473   3.918  -0.560   8.371  0.9364  0.0922  0.2832
  179SLPC  C21820474   4.105  -0.654   8.322  0.5018 -0.2364 -1.0203
  179SLPC  H18R20475   4.051  -0.742   8.281 -0.3474  0.5080 -1.5173
  179SLPC  H18S20476   4.192  -0.689   8.382 -1.0328  0.6623  1.8968
  179SLPC  H18T20477   4.118  -0.577   8.243 -1.5826  0.3660 -0.8253
  179SLPC   C3320478   3.289  -0.446   9.661 -0.4681  0.3738 -0.2486
  179SLPC   H3X20479   3.399  -0.444   9.673 -0.2881  2.2466 -1.8538
  179SLPC   H3Y20480   3.254  -0.358   9.603 -2.1160 -0.7964 -1.1275
  179SLPC   C3420481   3.230  -0.572   9.593 -0.4844 -0.7987 -0.2149
  179SLPC   H4X20482   3.124  -0.603   9.607 -1.3708 -0.2059 -4.3130
  179SLPC   H4Y20483   3.299  -0.648   9.635 -0.0225  1.7606  4.3557
  179SLPC   C3520484   3.253  -0.567   9.444  0.4239  0.0071 -0.3620
  179SLPC   H5X20485   3.184  -0.494   9.396  1.1953  1.6290  0.8829
  179SLPC   H5Y20486   3.250  -0.674   9.415 -0.9774 -0.4290  1.2162
  179SLPC   C3620487   3.400  -0.525   9.402  0.5874 -0.4916  0.4727
  179SLPC   H6X20488   3.473  -0.559   9.478  3.1007  1.9271 -0.6821
  179SLPC   H6Y20489   3.395  -0.414   9.405  1.2138 -0.4041 -0.8325
  179SLPC   C3720490   3.430  -0.564   9.256 -0.1457 -0.1157 -0.0210
  179SLPC   H7X20491   3.469  -0.667   9.242  2.4582  0.9086 -0.8668
  179SLPC   H7Y20492   3.512  -0.500   9.216 -0.3011  0.4109  0.4963
  179SLPC   C3820493   3.309  -0.550   9.164 -0.2262 -0.3816 -0.8410
  179SLPC   H8X20494   3.259  -0.452   9.180 -0.8376 -0.7279 -0.5803
  179SLPC   H8Y20495   3.228  -0.622   9.190 -0.9718  0.7696  0.1561
  179SLPC   C3920496   3.352  -0.557   9.012 -0.1627  0.8142  0.0953
  179SLPC   H9X20497   3.417  -0.645   8.991 -0.4551  0.8164 -0.8411
  179SLPC   H9Y20498   3.419  -0.469   8.999  1.0210 -0.0697  0.0572
  179SLPC  C31020499   3.249  -0.554   8.906 -0.1349 -0.2906  0.0344
  179SLPC  H10X20500   3.184  -0.466   8.928  0.4743 -0.0426  0.8658
  179SLPC  H10Y20501   3.190  -0.647   8.917  3.1518 -3.0337 -3.0406
  179SLPC  C31120502   3.296  -0.557   8.758 -0.5696 -0.8333  0.1782
  179SLPC  H11X20503   3.383  -0.490   8.737 -0.0390 -1.8138 -0.8565
  179SLPC  H11Y20504   3.205  -0.539   8.697 -1.0664 -1.5546  0.6916
  179SLPC  C31220505   3.339  -0.699   8.717  0.8006  0.0805 -0.2316
  179SLPC  H12X20506   3.253  -0.769   8.707  0.4273  0.5279 -0.1840
  179SLPC  H12Y20507   3.416  -0.737   8.787  0.7956  0.5336  0.0238
  179SLPC  C31320508   3.415  -0.687   8.582 -0.2204 -0.6736  0.1516
  179SLPC  H13X20509   3.445  -0.792   8.562  1.3906 -0.2082  0.0260
  179SLPC  H13Y20510   3.510  -0.631   8.591  1.3975 -3.2053 -0.2967
  179SLPC  C31420511   3.329  -0.641   8.469  0.2500 -0.1312  0.1830
  179SLPC  H14X20512   3.317  -0.533   8.492 -0.8710 -0.0850 -0.5006
  179SLPC  H14Y20513   3.230  -0.690   8.479 -1.3202  3.1606  2.5964
  179SLPC  C31520514   3.400  -0.659   8.332 -0.3904 -0.3446 -1.0716
  179SLPC  H15X20515   3.451  -0.758   8.325  0.4531 -0.1417  1.2455
  179SLPC  H15Y20516   3.490  -0.595   8.326 -1.4541  1.1880 -1.1335
  179SLPC  C31620517   3.306  -0.613   8.224 -0.3707 -0.4954  0.4595
  179SLPC  H16X20518   3.293  -0.503   8.237 -3.8618 -1.0196  2.3585
  179SLPC  H16Y20519   3.209  -0.666   8.227 -0.3782 -0.4925  0.2887
  179SLPC  C31720520   3.372  -0.634   8.090  0.3170 -0.2839 -0.2820
  179SLPC  H17X20521   3.391  -0.740   8.063  2.1264 -0.3821  1.2089
  179SLPC  H17Y20522   3.471  -0.588   8.109  0.5802 -1.0855  0.3296
  179SLPC  C31820523   3.288  -0.568   7.975 -0.6732 -0.5457 -0.2707
  179SLPC  H18X20524   3.285  -0.457   7.987  1.3843 -0.3680 -0.9031
  179SLPC  H18Y20525   3.186  -0.610   7.987  0.7706 -3.5418  3.6952
  179SLPC  H18Z20526   3.330  -0.594   7.875 -0.0514 -0.7966  0.0521
  180SLPC     N20527   3.886   5.409  11.087  0.3721 -0.6233  0.9339
  180SLPC   C1320528   3.961   5.366  11.210 -0.2000 -0.0426  0.1447
  180SLPC  H13A20529   4.069   5.372  11.208 -0.2377  0.9856  0.5965
  180SLPC  H13B20530   3.927   5.421  11.296  0.0283  2.3477 -1.2227
  180SLPC  H13C20531   3.931   5.264  11.231  1.0009 -0.3175  0.5984
  180SLPC   C1420532   3.896   5.557  11.093  0.2963 -0.3533 -0.2491
  180SLPC  H14A20533   3.860   5.610  11.180  1.1684  1.0444 -0.6948
  180SLPC  H14B20534   3.996   5.598  11.086 -0.0877  1.1157  1.9545
  180SLPC  H14C20535   3.848   5.598  11.005  1.1571  2.7576  0.5853
  180SLPC   C1520536   3.739   5.376  11.108  0.0694  0.6094  0.1502
  180SLPC  H15A20537   3.691   5.421  11.194  0.8149 -0.2178  1.0176
  180SLPC  H15B20538   3.682   5.433  11.035  0.5196  2.1625  0.9549
  180SLPC  H15C20539   3.730   5.271  11.128 -0.8379  0.6881  0.2292
  180SLPC   C1220540   3.930   5.347  10.955 -0.2109 -0.1123 -0.3318
  180SLPC  H12A20541   3.916   5.240  10.958 -3.4799  0.1828 -0.6796
  180SLPC  H12B20542   4.030   5.374  10.924 -0.9131  2.6168 -0.4574
  180SLPC   C1120543   3.839   5.387  10.828  0.0016  0.2662 -0.5878
  180SLPC  H11A20544   3.731   5.392  10.853  0.0194  1.0806 -0.6381
  180SLPC  H11B20545   3.857   5.300  10.762  0.6696  1.5082 -2.0866
  180SLPC     P20546   4.023   5.556  10.737  0.3600 -0.5863  0.4975
  180SLPC   O1320547   4.031   5.679  10.648  0.4977  0.2194 -0.3010
  180SLPC   O1420548   4.099   5.561  10.863  0.0919 -0.1193 -0.0065
  180SLPC   O1220549   3.879   5.511  10.764 -0.4874  0.4856 -0.4143
  180SLPC   O1120550   4.089   5.431  10.658  0.1956 -0.0440 -1.0474
  180SLPC    C120551   4.035   5.397  10.530  0.9162  0.2169 -0.2437
  180SLPC    HA20552   4.004   5.291  10.542  4.5576 -0.8075  1.7634
  180SLPC    HB20553   3.962   5.472  10.493 -0.3664 -1.0473 -0.3304
  180SLPC    C220554   4.144   5.404  10.419  0.2226  0.0791  0.1771
  180SLPC    HS20555   4.220   5.328  10.449  0.0244  0.1397  0.8306
  180SLPC   O2120556   4.186   5.533  10.397  0.1049  0.2350 -0.4321
  180SLPC   C2120557   4.314   5.556  10.408 -0.2597  0.0782  0.1424
  180SLPC   O2220558   4.395   5.476  10.452  0.1739 -0.0681 -0.4046
  180SLPC   C2220559   4.346   5.698  10.361  0.8560 -0.7060 -0.6411
  180SLPC   H2R20560   4.252   5.758  10.355  1.1815  0.1349  1.6029
  180SLPC   H2S20561   4.410   5.745  10.439  0.2160  0.2979 -0.6946
  180SLPC    C320562   4.077   5.348  10.282  0.0076  0.3276 -0.1294
  180SLPC    HX20563   4.160   5.342  10.209  0.9003 -0.1478  0.9036
  180SLPC    HY20564   3.994   5.420  10.267  2.4365  3.9045  2.0027
  180SLPC   O3120565   4.024   5.215  10.301 -0.6024  0.1790  0.3462
  180SLPC   C3120566   3.951   5.173  10.199 -0.7743  1.0111  1.0994
  180SLPC   O3220567   3.915   5.242  10.101 -0.1403 -0.1931 -0.1630
  180SLPC   C3220568   3.936   5.020  10.206  0.8766  0.2692  0.1633
  180SLPC   H2X20569   3.841   5.000  10.260 -0.2136 -0.2561 -1.8655
  180SLPC   H2Y20570   4.028   4.981  10.254  1.2644  2.3349  1.2115
  180SLPC   C2320571   4.426   5.699  10.233  0.4138  0.7506  0.6378
  180SLPC   H3R20572   4.520   5.640  10.240 -0.7899 -1.9436 -2.9294
  180SLPC   H3S20573   4.449   5.802  10.200  2.7520  0.4774  1.2825
  180SLPC   C2420574   4.344   5.637  10.113 -0.3025  0.6712 -0.0682
  180SLPC   H4R20575   4.297   5.551  10.164  1.0775  0.0097  0.1306
  180SLPC   H4S20576   4.409   5.603  10.030 -0.9004 -4.4359  1.2402
  180SLPC   C2520577   4.233   5.729  10.064 -0.5356  0.1592  0.4627
  180SLPC   H5R20578   4.289   5.824  10.049  0.9843 -0.8905 -0.7828
  180SLPC   H5S20579   4.159   5.763  10.140  0.3526  0.5226  1.1795
  180SLPC   C2620580   4.163   5.673   9.940 -0.8572  0.2087 -0.2945
  180SLPC   H6R20581   4.142   5.566   9.959  1.4344 -0.1260  0.6729
  180SLPC   H6S20582   4.238   5.665   9.859 -1.3755 -2.0189 -0.6068
  180SLPC   C2720583   4.035   5.744   9.908  0.1746 -0.3377 -0.2243
  180SLPC   H7R20584   4.058   5.851   9.893  0.6572 -0.3600  0.3166
  180SLPC   H7S20585   3.963   5.745   9.992  1.6433 -0.7203  1.0853
  180SLPC   C2820586   3.958   5.689   9.788  0.0412  0.1052 -0.3126
  180SLPC   H8R20587   4.036   5.667   9.711 -0.4219 -2.9228 -0.0426
  180SLPC   H8S20588   3.891   5.764   9.741  1.2416 -0.2950 -2.8695
  180SLPC   C2920589   3.875   5.563   9.819 -0.8877  0.2462 -0.2533
  180SLPC   H9R20590   3.817   5.582   9.911 -0.8283  0.9485 -0.3505
  180SLPC  C21020591   3.886   5.439   9.758 -0.3792 -0.1632 -0.3821
  180SLPC  H10R20592   3.824   5.357   9.798  0.5069 -0.7595 -0.2139
  180SLPC  C21120593   3.969   5.409   9.635 -0.0858 -0.3236  0.2764
  180SLPC  H11R20594   4.051   5.481   9.616 -0.4217 -0.1898 -0.7339
  180SLPC  H11S20595   3.898   5.410   9.549 -0.6217  3.1640  0.6311
  180SLPC  C21220596   4.015   5.262   9.642  0.5015  0.3555  0.2763
  180SLPC  H12R20597   3.938   5.187   9.617 -1.8465  1.5115  3.2761
  180SLPC  C21320598   4.141   5.230   9.667 -0.3487  0.4418 -0.0758
  180SLPC  H13R20599   4.166   5.123   9.676 -0.4008  0.3390 -1.0370
  180SLPC  C21420600   4.253   5.316   9.707 -0.5152 -0.6047  0.4936
  180SLPC  H14R20601   4.212   5.411   9.749 -0.9887  0.3604 -2.0206
  180SLPC  H14S20602   4.302   5.343   9.612 -1.6560 -2.7497 -0.7750
  180SLPC  C21520603   4.353   5.263   9.811 -0.3579  0.1598  0.2037
  180SLPC  H15R20604   4.440   5.332   9.814  1.1514 -1.6947  1.3630
  180SLPC  H15S20605   4.388   5.163   9.779 -0.2274  0.1814  0.2762
  180SLPC  C21620606   4.287   5.267   9.956  0.5906  0.0170  0.9225
  180SLPC  H16R20607   4.189   5.216   9.940  0.2545  0.6613  0.8899
  180SLPC  H16S20608   4.261   5.375   9.969  0.1722  0.1212 -0.5208
  180SLPC  C21720609   4.366   5.199  10.069  0.1066 -0.8199  0.6045
  180SLPC  H17R20610   4.388   5.092  10.049  1.3648 -1.2667  3.7798
  180SLPC  H17S20611   4.301   5.202  10.159  1.5170  0.6494  1.6172
  180SLPC  C21820612   4.483   5.288  10.115  0.0288  0.1828 -0.0018
  180SLPC  H18R20613   4.554   5.303  10.031  0.9299 -0.3598  0.6459
  180SLPC  H18S20614   4.537   5.232  10.194 -0.2393 -1.5021 -0.9579
  180SLPC  H18T20615   4.438   5.384  10.148  0.7430  0.9795 -1.2761
  180SLPC   C3320616   3.918   4.942  10.073  0.3664 -0.3583 -0.3701
  180SLPC   H3X20617   3.837   4.987  10.011  0.0563  1.2926  1.1621
  180SLPC   H3Y20618   3.887   4.836  10.089  0.6108 -0.3672  0.0727
  180SLPC   C3420619   4.050   4.937   9.995 -0.0724  0.1880 -0.6031
  180SLPC   H4X20620   4.134   4.892  10.051 -0.3463 -1.8526 -1.7400
  180SLPC   H4Y20621   4.077   5.043   9.975  0.1313  0.3348  0.4101
  180SLPC   C3520622   4.041   4.851   9.864  0.0945  0.4803  0.2199
  180SLPC   H5X20623   4.034   4.749   9.908  0.3896  0.4306  0.1549
  180SLPC   H5Y20624   4.136   4.865   9.808 -0.0447 -0.0006 -0.1422
  180SLPC   C3620625   3.925   4.885   9.765 -0.2973 -0.2289  1.2471
  180SLPC   H6X20626   3.931   4.990   9.730 -0.4664 -0.4583  0.5177
  180SLPC   H6Y20627   3.831   4.877   9.824 -1.1025  0.9110  0.1792
  180SLPC   C3720628   3.927   4.793   9.640 -0.2380  0.1271 -0.5088
  180SLPC   H7X20629   3.828   4.814   9.594  0.1159  2.8660 -0.2340
  180SLPC   H7Y20630   3.947   4.685   9.656  0.4750  0.2457 -0.5386
  180SLPC   C3820631   4.048   4.833   9.551  0.0751 -0.8237 -0.4341
  180SLPC   H8X20632   4.136   4.790   9.603 -1.2041 -0.9586  1.7406
  180SLPC   H8Y20633   4.071   4.941   9.534  0.5480 -0.8152  0.1912
  180SLPC   C3920634   4.036   4.765   9.409 -0.0048  0.3439  0.4624
  180SLPC   H9X20635   4.028   4.656   9.425 -0.2605  0.3407  0.3191
  180SLPC   H9Y20636   4.135   4.780   9.361  0.7986 -0.7012  1.7197
  180SLPC  C31020637   3.922   4.804   9.320 -0.5761  0.4274 -0.2823
  180SLPC  H10X20638   3.886   4.908   9.341  2.4546  1.7476 -1.1282
  180SLPC  H10Y20639   3.835   4.737   9.341  0.2891 -0.3563  0.8772
  180SLPC  C31120640   3.957   4.794   9.169 -0.0034 -0.4602  0.1785
  180SLPC  H11X20641   4.030   4.713   9.150  2.2154  1.3878  0.3309
  180SLPC  H11Y20642   4.002   4.895   9.153 -0.4141 -0.4281 -0.8447
  180SLPC  C31220643   3.830   4.789   9.083 -0.1398  0.2813  0.0311
  180SLPC  H12X20644   3.752   4.857   9.123  0.8256  1.8153 -0.6104
  180SLPC  H12Y20645   3.795   4.687   9.111 -0.7691  1.0052  2.0791
  180SLPC  C31320646   3.863   4.812   8.936  0.0908  0.1696 -0.3749
  180SLPC  H13X20647   3.950   4.750   8.905  1.1627  0.7040  1.4562
  180SLPC  H13Y20648   3.893   4.917   8.919 -1.1992  0.5196 -0.5871
  180SLPC  C31420649   3.737   4.806   8.847  0.6460  0.3106 -0.1490
  180SLPC  H14X20650   3.667   4.882   8.889  0.6521 -0.8774  2.1985
  180SLPC  H14Y20651   3.697   4.703   8.852  1.6287 -0.0581  0.3879
  180SLPC  C31520652   3.772   4.852   8.707 -0.0778  0.0579  0.4754
  180SLPC  H15X20653   3.840   4.777   8.661 -0.3813  0.1829 -0.1855
  180SLPC  H15Y20654   3.818   4.953   8.709 -0.8649  0.5190 -1.8887
  180SLPC  C31620655   3.647   4.864   8.608 -0.4193 -0.7582  0.6615
  180SLPC  H16X20656   3.694   4.875   8.508  1.3817  0.4693  1.5926
  180SLPC  H16Y20657   3.583   4.953   8.622 -0.1853  0.3361 -3.6792
  180SLPC  C31720658   3.556   4.738   8.601  1.1204  1.0221 -0.0628
  180SLPC  H17X20659   3.485   4.765   8.521 -0.3096 -1.1392  0.4037
  180SLPC  H17Y20660   3.504   4.721   8.698  1.0113  2.4858  0.1563
  180SLPC  C31820661   3.621   4.610   8.559 -0.8786  0.3710  0.6849
  180SLPC  H18X20662   3.675   4.560   8.642  2.0588 -1.1777 -1.9323
  180SLPC  H18Y20663   3.693   4.632   8.477 -1.4433 -4.0039 -1.2094
  180SLPC  H18Z20664   3.542   4.547   8.515  1.4048 -1.4517 -1.0870
  181SLPC     N20665   1.706   3.943  10.745 -0.4456  0.3981 -0.5144
  181SLPC   C1320666   1.680   4.059  10.835 -0.6324 -0.0639 -0.1272
  181SLPC  H13A20667   1.700   4.152  10.786 -0.1123 -0.0875  0.0373
  181SLPC  H13B20668   1.578   4.063  10.872 -0.0325 -2.9260  2.2693
  181SLPC  H13C20669   1.741   4.044  10.923 -2.2908 -0.6070  0.9893
  181SLPC   C1420670   1.844   3.942  10.685  0.5277  0.0214  0.3102
  181SLPC  H14A20671   1.866   3.854  10.627 -1.6679 -0.7596  0.5680
  181SLPC  H14B20672   1.864   4.027  10.621  0.3340 -0.2807 -0.1605
  181SLPC  H14C20673   1.905   3.960  10.772  1.3429  0.7011 -0.3710
  181SLPC   C1520674   1.607   3.948  10.633  0.0059 -0.0027  0.3478
  181SLPC  H15A20675   1.608   4.048  10.593 -0.5927 -0.3113 -0.4623
  181SLPC  H15B20676   1.631   3.870  10.562  0.3992 -1.1032  1.6217
  181SLPC  H15C20677   1.510   3.930  10.677 -0.2730 -1.4464 -0.7729
  181SLPC   C1220678   1.675   3.811  10.826 -0.0161  0.2661  0.3671
  181SLPC  H12A20679   1.727   3.808  10.921 -0.1723 -0.3630  0.4369
  181SLPC  H12B20680   1.721   3.729  10.773 -0.4504  0.1420  0.1813
  181SLPC   C1120681   1.528   3.776  10.861 -0.4200  0.1266  0.2601
  181SLPC  H11A20682   1.543   3.696  10.936 -0.5257  0.2428  0.4064
  181SLPC  H11B20683   1.479   3.744  10.766 -1.7409 -0.3474  1.0790
  181SLPC     P20684   1.322   3.941  10.877 -0.3582 -0.2192  0.0989
  181SLPC   O1320685   1.224   3.948  10.989 -0.3355 -0.4645 -0.3588
  181SLPC   O1420686   1.335   4.060  10.790  0.2364 -0.6169  0.0259
  181SLPC   O1220687   1.460   3.882  10.932 -0.1153  0.6951  0.3184
  181SLPC   O1120688   1.273   3.817  10.783  0.2702 -0.1729 -0.3190
  181SLPC    C120689   1.148   3.826  10.718 -0.6981  0.1010  0.1764
  181SLPC    HA20690   1.111   3.723  10.697  2.3124 -1.0206 -0.2741
  181SLPC    HB20691   1.077   3.874  10.788  0.1752 -0.7151  1.6940
  181SLPC    C220692   1.162   3.896  10.584  0.3170 -0.0905  0.6378
  181SLPC    HS20693   1.210   3.995  10.597  0.9916 -0.2247 -0.7138
  181SLPC   O2120694   1.028   3.903  10.528 -0.7958 -0.3482 -0.1983
  181SLPC   C2120695   0.941   3.973  10.588 -0.4057  0.7502 -0.5373
  181SLPC   O2220696   0.964   4.048  10.680 -0.5558  0.0368 -0.1016
  181SLPC   C2220697   0.803   3.973  10.516  0.4607  0.4510 -0.1131
  181SLPC   H2R20698   0.735   3.902  10.568 -1.0290 -0.1639 -2.7058
  181SLPC   H2S20699   0.756   4.073  10.519 -0.3497  0.1507 -1.7036
  181SLPC    C320700   1.255   3.825  10.477  0.0209  0.1538 -0.0656
  181SLPC    HX20701   1.221   3.719  10.478 -0.9669  0.4572  0.3929
  181SLPC    HY20702   1.358   3.835  10.516 -0.1594 -1.8796  1.0774
  181SLPC   O3120703   1.235   3.885  10.343 -0.0444  0.0905  0.0114
  181SLPC   C3120704   1.279   3.808  10.244 -0.2459  0.0235  0.8429
  181SLPC   O3220705   1.363   3.720  10.253 -0.1427 -0.3195  0.0536
  181SLPC   C3220706   1.217   3.849  10.111  0.5624 -0.5767  0.8396
  181SLPC   H2X20707   1.198   3.958  10.114 -0.6357 -0.6488 -1.4968
  181SLPC   H2Y20708   1.123   3.791  10.103  0.3626 -0.3727  1.6532
  181SLPC   C2320709   0.806   3.929  10.367 -0.1208  0.1186 -0.6438
  181SLPC   H3R20710   0.697   3.917  10.348 -0.4829  2.9403 -0.6661
  181SLPC   H3S20711   0.864   3.834  10.358 -0.4591 -0.2755  1.0448
  181SLPC   C2420712   0.835   4.044  10.263  0.0940 -0.4274  0.0184
  181SLPC   H4R20713   0.940   4.075  10.284 -0.0666 -0.1322  0.3815
  181SLPC   H4S20714   0.766   4.130  10.274 -1.3175 -1.0200 -3.1370
  181SLPC   C2520715   0.823   3.986  10.129  0.0532 -0.2967 -0.0562
  181SLPC   H5R20716   0.713   3.980  10.113  0.2352 -4.3384 -0.7124
  181SLPC   H5S20717   0.871   3.886  10.131 -0.0521 -0.3682 -0.8744
  181SLPC   C2620718   0.878   4.074  10.017  0.2343  0.1153 -0.2081
  181SLPC   H6R20719   0.984   4.098  10.039 -0.3030 -1.4916  5.7939
  181SLPC   H6S20720   0.824   4.171  10.019  1.4618  0.8600 -1.0512
  181SLPC   C2720721   0.862   4.017   9.881  0.1379 -0.3049 -0.1032
  181SLPC   H7R20722   0.755   3.995   9.860  0.0330 -1.0648  1.1626
  181SLPC   H7S20723   0.909   3.918   9.864 -1.4336 -0.9696 -0.7901
  181SLPC   C2820724   0.939   4.116   9.783  0.0560 -0.9549  0.4496
  181SLPC   H8R20725   1.048   4.106   9.804  0.2269 -1.9621 -0.8058
  181SLPC   H8S20726   0.903   4.220   9.797 -1.5589 -1.5578  0.9325
  181SLPC   C2920727   0.915   4.069   9.640 -0.1791 -0.2901 -0.0104
  181SLPC   H9R20728   0.841   3.991   9.617 -0.4193 -1.0854  2.9652
  181SLPC  C21020729   0.981   4.121   9.532  0.6639 -0.3094  0.5763
  181SLPC  H10R20730   0.958   4.084   9.431 -2.7160 -0.5211  1.3246
  181SLPC  C21120731   1.096   4.227   9.537  0.3173 -0.3294 -0.2203
  181SLPC  H11R20732   1.056   4.314   9.594 -1.0960 -0.6169 -0.7368
  181SLPC  H11S20733   1.101   4.269   9.435 -0.5592 -0.3318 -0.2752
  181SLPC  C21220734   1.229   4.187   9.579 -0.0418  0.2248 -0.1289
  181SLPC  H12R20735   1.265   4.104   9.516 -0.8941  0.0549 -0.3991
  181SLPC  C21320736   1.294   4.234   9.691 -0.3562  0.2509  0.2700
  181SLPC  H13R20737   1.401   4.214   9.709 -0.0430  0.5245 -1.1907
  181SLPC  C21420738   1.245   4.333   9.796  0.0234 -0.6570 -0.5418
  181SLPC  H14R20739   1.142   4.369   9.778  0.3922  0.3066 -0.8301
  181SLPC  H14S20740   1.317   4.418   9.803  1.6335 -2.0405  0.4274
  181SLPC  C21520741   1.252   4.261   9.936 -0.4242  0.5225 -0.2651
  181SLPC  H15R20742   1.355   4.223   9.953 -1.5232 -2.6229 -0.1005
  181SLPC  H15S20743   1.184   4.174   9.934 -0.0766  0.2063  1.0092
  181SLPC  C21620744   1.198   4.346  10.051  0.1358 -0.2152 -0.2541
  181SLPC  H16R20745   1.097   4.382  10.023  1.0854  2.2848 -0.6934
  181SLPC  H16S20746   1.250   4.443  10.061 -0.1001  0.0070 -1.1631
  181SLPC  C21720747   1.201   4.275  10.185  0.4694 -0.2265  0.7216
  181SLPC  H17R20748   1.306   4.266  10.219  1.0647 -0.6300 -1.0847
  181SLPC  H17S20749   1.155   4.174  10.174 -0.0756  0.2221 -1.8430
  181SLPC  C21820750   1.120   4.345  10.290  0.2106 -0.1649 -0.2226
  181SLPC  H18R20751   1.156   4.450  10.286 -2.5290  0.8660 -0.5987
  181SLPC  H18S20752   1.142   4.311  10.393  4.0252  0.6225 -0.6375
  181SLPC  H18T20753   1.013   4.346  10.257 -0.4861 -0.9885  1.8198
  181SLPC   C3320754   1.311   3.833   9.985 -0.3108  0.1283  0.2920
  181SLPC   H3X20755   1.349   3.729   9.990  2.2514  0.8387 -1.8947
  181SLPC   H3Y20756   1.395   3.905   9.972 -0.5064  0.1372 -1.1991
  181SLPC   C3420757   1.228   3.844   9.854 -0.0787 -0.1948 -0.3415
  181SLPC   H4X20758   1.175   3.941   9.850 -1.8158 -1.0615  0.3380
  181SLPC   H4Y20759   1.155   3.760   9.858  2.6296 -2.8663 -1.9890
  181SLPC   C3520760   1.318   3.822   9.728  0.3255 -0.3484 -1.0537
  181SLPC   H5X20761   1.371   3.725   9.735 -0.8054 -0.8396  1.7437
  181SLPC   H5Y20762   1.399   3.898   9.720  0.0106  0.3815  1.7295
  181SLPC   C3620763   1.234   3.822   9.598 -0.6622  0.0838  0.1369
  181SLPC   H6X20764   1.171   3.911   9.578 -0.1501  0.5452  0.5294
  181SLPC   H6Y20765   1.160   3.740   9.604 -0.1812 -0.3588  0.1101
  181SLPC   C3720766   1.318   3.799   9.473 -0.3694  0.1729 -0.1663
  181SLPC   H7X20767   1.358   3.696   9.484 -1.9268 -0.3655  0.7651
  181SLPC   H7Y20768   1.402   3.872   9.474 -0.3544  0.2175 -1.7026
  181SLPC   C3820769   1.251   3.812   9.337 -0.1452 -0.1751  1.0215
  181SLPC   H8X20770   1.186   3.902   9.336  2.1785  1.6116 -1.6745
  181SLPC   H8Y20771   1.184   3.723   9.329  0.2673 -0.3821 -0.2803
  181SLPC   C3920772   1.348   3.808   9.217  0.9544 -0.3951  0.2410
  181SLPC   H9X20773   1.415   3.720   9.230 -0.6397 -1.3430  2.7756
  181SLPC   H9Y20774   1.420   3.892   9.216  0.6654 -0.1351  1.0294
  181SLPC  C31020775   1.272   3.802   9.083 -0.3008  0.0738 -0.5685
  181SLPC  H10X20776   1.346   3.772   9.005  0.0478 -1.2835  0.2519
  181SLPC  H10Y20777   1.236   3.906   9.069 -0.9024 -0.0032  0.3237
  181SLPC  C31120778   1.148   3.713   9.090 -0.9623  0.1655  0.0740
  181SLPC  H11X20779   1.069   3.776   9.136  0.9443  1.8090  1.2626
  181SLPC  H11Y20780   1.161   3.631   9.163 -0.2576  1.1970  1.1316
  181SLPC  C31220781   1.093   3.645   8.961 -0.0789  1.1026  0.8116
  181SLPC  H12X20782   0.999   3.594   8.989 -0.6181  3.0289  2.8381
  181SLPC  H12Y20783   1.170   3.577   8.918  0.2102  2.7787 -1.5161
  181SLPC  C31320784   1.066   3.743   8.846 -0.5302 -0.2949 -0.2655
  181SLPC  H13X20785   1.144   3.820   8.827 -0.6458 -0.0629  0.1813
  181SLPC  H13Y20786   0.982   3.804   8.886  1.4937  1.2920  1.8657
  181SLPC  C31420787   1.020   3.683   8.714  0.0342  0.3957  0.2824
  181SLPC  H14X20788   0.917   3.642   8.726  0.5731 -1.3882 -0.8809
  181SLPC  H14Y20789   1.093   3.607   8.679 -0.3423 -0.0196  0.3912
  181SLPC  C31520790   1.010   3.795   8.608 -0.1072 -0.2487 -0.4302
  181SLPC  H15X20791   0.970   3.884   8.660  0.3769 -0.2488 -0.0487
  181SLPC  H15Y20792   0.927   3.763   8.542 -2.5957 -1.7204  3.0771
  181SLPC  C31620793   1.132   3.822   8.525 -0.6823 -0.2427 -0.0713
  181SLPC  H16X20794   1.209   3.865   8.593  0.9733 -0.3694 -1.7874
  181SLPC  H16Y20795   1.112   3.902   8.450  0.2056 -0.6610 -0.7691
  181SLPC  C31720796   1.187   3.710   8.429  0.0279 -0.2369  0.2769
  181SLPC  H17X20797   1.204   3.625   8.498  0.3207 -0.1441  0.3235
  181SLPC  H17Y20798   1.286   3.740   8.388  0.6494 -0.7647  1.3202
  181SLPC  C31820799   1.095   3.660   8.313 -0.4978 -0.6359 -0.9028
  181SLPC  H18X20800   1.137   3.581   8.247  0.8921 -0.4323 -0.3006
  181SLPC  H18Y20801   1.087   3.746   8.244  1.6401  0.6934  0.3979
  181SLPC  H18Z20802   0.994   3.627   8.348  0.1767  1.0815  3.1478
  182SLPC     N20803   4.830   3.130  11.177  0.1051  0.5153  0.3522
  182SLPC   C1320804   4.694   3.192  11.170  0.1201  0.7572 -0.9151
  182SLPC  H13A20805   4.661   3.205  11.068  1.5079 -1.4232 -1.6883
  182SLPC  H13B20806   4.617   3.144  11.230 -1.1136  0.6830 -2.4829
  182SLPC  H13C20807   4.694   3.289  11.218  1.9987 -0.0942  0.9329
  182SLPC   C1420808   4.820   2.994  11.114  0.3357  0.2660  0.6945
  182SLPC  H14A20809   4.907   2.936  11.140  0.8530 -0.6680 -2.6207
  182SLPC  H14B20810   4.737   2.943  11.163  0.0126  2.2935  2.3940
  182SLPC  H14C20811   4.793   3.000  11.010 -1.8122  3.0644  1.2753
  182SLPC   C1520812   4.865   3.101  11.315  0.0198  0.9561  0.0751
  182SLPC  H15A20813   4.779   3.053  11.358  2.1365 -1.2320  2.1629
  182SLPC  H15B20814   4.948   3.033  11.319  0.9709  1.8842 -2.3418
  182SLPC  H15C20815   4.884   3.197  11.362  2.5223  0.5001  0.1568
  182SLPC   C1220816   4.942   3.208  11.107 -0.2764 -0.8415  0.2599
  182SLPC  H12A20817   5.039   3.166  11.129 -0.0211  1.2108  3.6524
  182SLPC  H12B20818   4.945   3.303  11.158 -0.4641 -1.5575  1.6510
  182SLPC   C1120819   4.929   3.231  10.955  0.2876  0.2120  0.2342
  182SLPC  H11A20820   4.916   3.136  10.897  0.5838 -0.7332  1.6666
  182SLPC  H11B20821   5.021   3.281  10.919 -0.5312  0.9155 -0.9605
  182SLPC     P20822   4.814   3.459  10.939 -0.2930  0.1217  0.3900
  182SLPC   O1320823   4.672   3.499  10.926 -0.2609  0.3218 -0.2166
  182SLPC   O1420824   4.886   3.499  11.063 -0.1387 -0.3381  0.4491
  182SLPC   O1220825   4.822   3.304  10.917  0.9219 -0.6975 -0.0803
  182SLPC   O1120826   4.905   3.518  10.825  0.0716  0.7208 -0.0085
  182SLPC    C120827   4.853   3.545  10.691  1.1007  0.2849 -0.1838
  182SLPC    HA20828   4.800   3.642  10.700 -0.2287 -0.5233  1.1352
  182SLPC    HB20829   4.942   3.553  10.626  1.5038 -0.6869  0.2257
  182SLPC    C220830   4.758   3.439  10.617  0.8168  0.0027 -0.1756
  182SLPC    HS20831   4.673   3.424  10.687  1.1172  2.6052  0.8699
  182SLPC   O2120832   4.818   3.314  10.580 -0.0905 -0.6131  0.3279
  182SLPC   C2120833   4.744   3.205  10.559  0.0752 -0.6873 -1.0675
  182SLPC   O2220834   4.624   3.199  10.564  0.0071 -0.4262 -0.2899
  182SLPC   C2220835   4.839   3.094  10.536  0.2354  0.2409 -0.1842
  182SLPC   H2R20836   4.931   3.131  10.488 -0.8174  0.0306 -2.5049
  182SLPC   H2S20837   4.859   3.034  10.627 -1.2443  0.2078  0.1583
  182SLPC    C320838   4.714   3.511  10.492  0.6100 -0.1643 -0.3767
  182SLPC    HX20839   4.669   3.606  10.527 -0.1265 -1.0783  1.2687
  182SLPC    HY20840   4.628   3.453  10.451 -1.3975  2.7752 -0.6467
  182SLPC   O3120841   4.824   3.547  10.409  0.3587  0.3246 -0.3476
  182SLPC   C3120842   4.836   3.466  10.301 -0.0372  0.0961  0.9217
  182SLPC   O3220843   4.757   3.376  10.274 -0.4897  0.0312  0.1804
  182SLPC   C3220844   4.960   3.502  10.226 -0.4865  0.0552  0.0545
  182SLPC   H2X20845   5.042   3.438  10.265 -1.1142  0.0901  1.4794
  182SLPC   H2Y20846   4.995   3.606  10.240  0.3059  0.4197 -3.5195
  182SLPC   C2320847   4.785   2.987  10.430 -0.0977 -0.7033  0.8344
  182SLPC   H3R20848   4.796   3.038  10.332  0.6107 -0.4337  1.0456
  182SLPC   H3S20849   4.674   2.974  10.432 -0.1506 -0.3411  0.5740
  182SLPC   C2420850   4.850   2.849  10.442  0.2287 -0.1512  0.3408
  182SLPC   H4R20851   4.833   2.800  10.540  2.3098 -1.1890  0.2562
  182SLPC   H4S20852   4.961   2.846  10.450  0.0810 -2.7529  3.5311
  182SLPC   C2520853   4.814   2.761  10.326 -0.1592 -0.2130 -0.2280
  182SLPC   H5R20854   4.887   2.780  10.245  1.8504 -2.3101  0.9830
  182SLPC   H5S20855   4.713   2.796  10.297 -1.5285 -2.5962  1.3359
  182SLPC   C2620856   4.809   2.619  10.373 -0.3638 -0.3297  0.0203
  182SLPC   H6R20857   4.751   2.615  10.468  0.0671  1.2687  0.3838
  182SLPC   H6S20858   4.908   2.571  10.389 -1.0590 -1.7577  0.2080
  182SLPC   C2720859   4.728   2.528  10.280  0.3587  0.5310  0.0635
  182SLPC   H7R20860   4.648   2.580  10.224 -0.4554 -0.0346  0.6679
  182SLPC   H7S20861   4.665   2.467  10.349  0.4891  1.9662  1.5163
  182SLPC   C2820862   4.813   2.435  10.195 -0.7335  0.1031 -0.2837
  182SLPC   H8R20863   4.881   2.373  10.257  1.1928  2.5623  0.2211
  182SLPC   H8S20864   4.880   2.503  10.137  0.0286  3.5402  4.0753
  182SLPC   C2920865   4.713   2.346  10.127 -0.3503 -0.3184 -0.3151
  182SLPC   H9R20866   4.632   2.296  10.182 -0.0697 -2.9500 -2.0999
  182SLPC  C21020867   4.699   2.332   9.995  0.2193  0.0851 -0.1043
  182SLPC  H10R20868   4.621   2.264   9.957 -0.7142  1.0371  0.0784
  182SLPC  C21120869   4.788   2.393   9.893 -0.0877  0.3997  0.0923
  182SLPC  H11R20870   4.805   2.312   9.818  1.5987  0.6639  0.1608
  182SLPC  H11S20871   4.890   2.415   9.929 -0.4253  2.0783  0.1076
  182SLPC  C21220872   4.748   2.519   9.823  0.0983 -0.3192 -0.5055
  182SLPC  H12R20873   4.675   2.580   9.878 -0.6976 -0.7393 -1.0723
  182SLPC  C21320874   4.777   2.563   9.697 -0.4054 -0.6213 -0.3139
  182SLPC  H13R20875   4.752   2.665   9.663  0.6919  0.1591  1.0960
  182SLPC  C21420876   4.883   2.496   9.611  0.2974  0.3072  0.1713
  182SLPC  H14R20877   4.930   2.409   9.663  3.4297  1.2973 -0.7650
  182SLPC  H14S20878   4.957   2.574   9.582  2.3452 -1.8042 -0.6369
  182SLPC  C21520879   4.819   2.446   9.480 -0.2865 -0.4238  0.6305
  182SLPC  H15R20880   4.902   2.423   9.410 -0.9947  1.7148 -1.0130
  182SLPC  H15S20881   4.772   2.539   9.442 -1.1952 -1.4984 -1.0170
  182SLPC  C21620882   4.714   2.335   9.488  0.0998  0.0542  0.1783
  182SLPC  H16R20883   4.626   2.367   9.547 -1.8594 -0.2791 -2.3897
  182SLPC  H16S20884   4.762   2.242   9.525 -0.3235 -0.2740 -0.0769
  182SLPC  C21720885   4.652   2.315   9.347 -0.0596 -0.2156  0.5768
  182SLPC  H17R20886   4.731   2.282   9.276 -0.1274  2.8142 -1.0433
  182SLPC  H17S20887   4.612   2.411   9.309  3.4271  1.4443  0.6517
  182SLPC  C21820888   4.535   2.208   9.347  0.1707 -0.4243 -0.5080
  182SLPC  H18R20889   4.579   2.108   9.325 -0.4836 -1.4833  2.4959
  182SLPC  H18S20890   4.462   2.238   9.269 -0.2781  1.1800  0.4780
  182SLPC  H18T20891   4.489   2.213   9.448  3.2068  1.2697  0.9219
  182SLPC   C3320892   4.941   3.484  10.074 -0.0107  0.1482 -0.0963
  182SLPC   H3X20893   4.857   3.554  10.052 -1.0660 -0.4283  1.8457
  182SLPC   H3Y20894   4.908   3.385  10.038 -0.3813  0.1270  0.3003
  182SLPC   C3420895   5.071   3.527  10.001  0.0017 -0.0161 -0.1097
  182SLPC   H4X20896   5.154   3.455  10.021  0.5607  1.2055  2.2611
  182SLPC   H4Y20897   5.110   3.624  10.038 -0.0159  0.2977 -0.8978
  182SLPC   C3520898   5.058   3.538   9.846 -0.5848  0.1064  1.3404
  182SLPC   H5X20899   5.145   3.571   9.786 -2.0062 -0.1849 -1.0154
  182SLPC   H5Y20900   4.982   3.618   9.830  0.4289  0.7364 -0.5463
  182SLPC   C3620901   4.994   3.412   9.777  0.2831 -0.5273 -0.6244
  182SLPC   H6X20902   4.910   3.374   9.839 -2.2000  2.7613 -1.6779
  182SLPC   H6Y20903   5.070   3.332   9.766  0.5313 -0.6536  1.5921
  182SLPC   C3720904   4.928   3.450   9.640 -0.2707  0.2161  0.0872
  182SLPC   H7X20905   4.848   3.527   9.637  0.0215  0.6266  1.9314
  182SLPC   H7Y20906   4.896   3.349   9.606  1.2385 -0.9974  2.1069
  182SLPC   C3820907   5.033   3.494   9.539 -0.4382 -0.3011  0.0439
  182SLPC   H8X20908   5.115   3.420   9.545  0.4024  0.6837  1.5957
  182SLPC   H8Y20909   5.072   3.596   9.561 -2.2736  0.2166  1.1351
  182SLPC   C3920910   4.972   3.499   9.394  0.0322 -0.2036 -0.3298
  182SLPC   H9X20911   4.874   3.549   9.383  0.5766  1.5034  1.9552
  182SLPC   H9Y20912   4.957   3.392   9.367  0.1707 -0.0890 -0.8802
  182SLPC  C31020913   5.076   3.556   9.296  0.2366  0.3165 -0.5879
  182SLPC  H10X20914   5.168   3.494   9.287  1.4036  1.6221  1.4030
  182SLPC  H10Y20915   5.107   3.655   9.337  2.0853 -1.0266  1.5188
  182SLPC  C31120916   5.035   3.564   9.152  0.3118  0.3061 -0.3696
  182SLPC  H11X20917   5.031   3.466   9.100  0.8585  0.4380 -0.6731
  182SLPC  H11Y20918   5.105   3.630   9.095 -0.2624  1.1118 -0.1689
  182SLPC  C31220919   4.904   3.644   9.125 -0.5198  0.2954  0.2421
  182SLPC  H12X20920   4.907   3.740   9.182 -0.4506 -0.7895  2.1464
  182SLPC  H12Y20921   4.816   3.602   9.177 -2.1250  2.5922 -0.4403
  182SLPC  C31320922   4.865   3.672   8.978  0.1064  0.3744 -0.3315
  182SLPC  H13X20923   4.945   3.731   8.929  0.9429  1.9694  2.7207
  182SLPC  H13Y20924   4.776   3.736   8.996 -0.4604 -1.0406  2.6286
  182SLPC  C31420925   4.831   3.542   8.898  0.2206  0.1450  0.2323
  182SLPC  H14X20926   4.782   3.470   8.966  1.9239 -1.2729  0.0134
  182SLPC  H14Y20927   4.928   3.495   8.872  0.3994  0.2053  0.7874
  182SLPC  C31520928   4.748   3.565   8.766 -0.3052 -0.3181 -0.1272
  182SLPC  H15X20929   4.813   3.617   8.692  0.1430 -0.3345  0.2532
  182SLPC  H15Y20930   4.663   3.634   8.783  0.0399 -0.0387  0.4860
  182SLPC  C31620931   4.698   3.430   8.711 -0.0610 -0.3057  0.1175
  182SLPC  H16X20932   4.644   3.374   8.791  2.8440 -0.4118  2.1493
  182SLPC  H16Y20933   4.786   3.372   8.676  0.6292  0.8368 -0.0881
  182SLPC  C31720934   4.599   3.449   8.599  0.4345  0.3543 -0.7039
  182SLPC  H17X20935   4.648   3.507   8.518  2.5754 -0.3014  0.0471
  182SLPC  H17Y20936   4.508   3.509   8.619 -0.3273 -0.7439 -0.7866
  182SLPC  C31820937   4.542   3.315   8.550  0.4398  0.3209 -0.1718
  182SLPC  H18X20938   4.619   3.239   8.523 -0.8357 -1.0808  0.0125
  182SLPC  H18Y20939   4.478   3.327   8.460  1.1986  1.7366 -0.5541
  182SLPC  H18Z20940   4.490   3.274   8.640  2.6462  0.4585  1.2570
  183SLPC     N20941   0.412   6.013  10.940 -0.0099 -0.3369  0.2165
  183SLPC   C1320942   0.310   5.936  11.023  0.4405 -0.4407  0.3165
  183SLPC  H13A20943   0.311   5.832  10.993 -1.6387 -0.0609 -1.3341
  183SLPC  H13B20944   0.324   5.949  11.129  2.0213  1.2334 -0.0589
  183SLPC  H13C20945   0.212   5.975  10.999  1.2850  2.7136  1.4780
  183SLPC   C1420946   0.416   5.962  10.801  0.2269 -0.0338 -0.2387
  183SLPC  H14A20947   0.317   5.950  10.758  0.1360 -0.3616  0.0561
  183SLPC  H14B20948   0.473   6.025  10.734  1.1135  0.3037  0.8061
  183SLPC  H14C20949   0.438   5.856  10.793 -0.7116 -0.2114 -0.6124
  183SLPC   C1520950   0.549   6.018  10.996 -0.5309  0.8947  0.3651
  183SLPC  H15A20951   0.619   6.031  10.915 -1.5230  3.3331 -0.1900
  183SLPC  H15B20952   0.572   6.108  11.051 -1.6574  1.0690  0.5734
  183SLPC  H15C20953   0.578   5.923  11.040 -0.7491  0.7976  0.3015
  183SLPC   C1220954   0.370   6.160  10.926  0.1455  0.3464 -0.8106
  183SLPC  H12A20955   0.445   6.218  10.874 -2.4342  2.2473 -2.6936
  183SLPC  H12B20956   0.355   6.210  11.020 -0.8702  0.3542 -0.9600
  183SLPC   C1120957   0.243   6.197  10.841 -0.4287 -0.1600 -0.7610
  183SLPC  H11A20958   0.275   6.199  10.735  0.2268  3.6571 -0.6515
  183SLPC  H11B20959   0.218   6.302  10.868 -2.0025 -0.5521 -0.5971
  183SLPC     P20960   0.003   6.126  10.799 -0.1807  0.6114  0.1984
  183SLPC   O1320961  -0.093   6.052  10.885  0.3354 -0.0030  0.4304
  183SLPC   O1420962  -0.023   6.267  10.763  0.1628 -0.5003 -0.5970
  183SLPC   O1220963   0.131   6.116  10.875  0.3227  0.0851  0.4511
  183SLPC   O1120964   0.036   6.051  10.665 -0.1398  0.8475  0.0265
  183SLPC    C120965  -0.070   6.045  10.565 -0.8620 -0.0550  0.7371
  183SLPC    HA20966  -0.160   5.994  10.605 -1.5683  1.9386  1.8016
  183SLPC    HB20967  -0.108   6.149  10.558  0.4845  0.4508  0.6005
  183SLPC    C220968  -0.031   6.008  10.420 -0.1174  0.0858  0.9987
  183SLPC    HS20969  -0.113   6.036  10.351  0.2211 -1.0146  0.1117
  183SLPC   O2120970  -0.019   5.862  10.416 -0.2072 -0.5107 -0.1321
  183SLPC   C2120971  -0.131   5.799  10.429  0.0211 -0.0234 -0.0362
  183SLPC   O2220972  -0.241   5.852  10.440 -0.3695  0.2469 -0.7562
  183SLPC   C2220973  -0.111   5.643  10.432  0.0602  0.3034 -0.4079
  183SLPC   H2R20974  -0.014   5.613  10.387 -0.5939 -1.6091 -0.6341
  183SLPC   H2S20975  -0.109   5.611  10.538  0.6439  1.2138 -0.1400
  183SLPC    C320976   0.097   6.077  10.360 -0.0137  0.8038 -0.3245
  183SLPC    HX20977   0.176   6.015  10.409 -0.4868  0.0038 -0.5485
  183SLPC    HY20978   0.101   6.182  10.394 -0.3766 -0.3258  3.7006
  183SLPC   O3120979   0.101   6.061  10.215  0.2396 -0.3429 -0.3718
  183SLPC   C3120980   0.181   6.145  10.147  0.2767 -0.2710  0.3342
  183SLPC   O3220981   0.233   6.243  10.193 -0.3622  0.4517  0.5766
  183SLPC   C3220982   0.219   6.109  10.002  0.1319  0.5110 -0.4635
  183SLPC   H2X20983   0.173   6.015   9.966  1.9702 -0.3917 -0.5591
  183SLPC   H2Y20984   0.328   6.088  10.003  1.0303  4.3871  0.6985
  183SLPC   C2320985  -0.235   5.577  10.371  0.1662  0.8155  0.4715
  183SLPC   H3R20986  -0.333   5.602  10.417 -1.3464 -1.2216 -1.4017
  183SLPC   H3S20987  -0.224   5.467  10.380  1.5159  0.5079 -3.1724
  183SLPC   C2420988  -0.241   5.603  10.224  0.4692 -0.1921  0.0381
  183SLPC   H4R20989  -0.154   5.545  10.188  0.5483 -1.3935  1.9851
  183SLPC   H4S20990  -0.230   5.711  10.200  0.5427 -0.6511 -2.1866
  183SLPC   C2520991  -0.379   5.564  10.157  0.8868  0.4635 -0.8305
  183SLPC   H5R20992  -0.459   5.557  10.234  0.8273 -1.5506 -1.0340
  183SLPC   H5S20993  -0.351   5.462  10.123  5.6420  2.2263 -3.1261
  183SLPC   C2620994  -0.416   5.655  10.037  0.4918 -0.6465  0.0292
  183SLPC   H6R20995  -0.389   5.761  10.054  0.2722 -0.8182  1.5693
  183SLPC   H6S20996  -0.525   5.649  10.019  0.1749 -0.2650  1.6881
  183SLPC   C2720997  -0.353   5.603   9.903 -0.7387  0.4743 -0.7939
  183SLPC   H7R20998  -0.342   5.493   9.917 -1.4174  0.2747 -1.7088
  183SLPC   H7S20999  -0.248   5.636   9.903 -0.5088 -0.2283 -0.4096
  183SLPC   C2821000  -0.425   5.645   9.782  0.5432 -0.0730 -0.0340
  183SLPC   H8R21001  -0.418   5.756   9.769  1.7760 -0.1620 -0.3051
  183SLPC   H8S21002  -0.531   5.616   9.797  0.5420 -0.2847 -0.4378
  183SLPC   C2921003  -0.363   5.574   9.663 -0.4780  0.4398  0.3136
  183SLPC   H9R21004  -0.432   5.503   9.615 -1.5341  0.0411  2.2907
  183SLPC  C21021005  -0.250   5.601   9.600  0.1030  0.6131  0.5950
  183SLPC  H10R21006  -0.223   5.529   9.522 -3.2383 -0.6668  0.4644
  183SLPC  C21121007  -0.153   5.709   9.644  0.3596  0.5769  0.1515
  183SLPC  H11R21008  -0.069   5.650   9.686  0.4286  0.2035 -0.4985
  183SLPC  H11S21009  -0.188   5.755   9.739  0.3907 -0.6945  0.8003
  183SLPC  C21221010  -0.117   5.806   9.536  0.6386 -0.4076 -0.2950
  183SLPC  H12R21011  -0.203   5.869   9.508  1.2380  1.0039  0.8666
  183SLPC  C21321012  -0.006   5.826   9.466 -0.6235 -0.6230 -0.2616
  183SLPC  H13R21013  -0.005   5.891   9.378  3.1588  0.2341  0.2637
  183SLPC  C21421014   0.122   5.746   9.488  0.0342 -0.1619  0.3668
  183SLPC  H14R21015   0.149   5.761   9.594 -1.2598  0.3089  0.6547
  183SLPC  H14S21016   0.199   5.799   9.429 -1.5108 -0.8339 -2.4647
  183SLPC  C21521017   0.124   5.601   9.446  0.3741  0.5230  0.1571
  183SLPC  H15R21018   0.059   5.541   9.513 -0.3440  3.8013  2.6510
  183SLPC  H15S21019   0.220   5.547   9.462 -0.8835 -1.4447  1.5471
  183SLPC  C21621020   0.078   5.583   9.306  0.4148 -0.2417  0.8137
  183SLPC  H16R21021   0.144   5.634   9.232 -1.0201 -0.5161 -0.7146
  183SLPC  H16S21022  -0.023   5.625   9.291 -0.3547 -1.9171  1.0432
  183SLPC  C21721023   0.079   5.429   9.269  0.4402  0.0261  0.4635
  183SLPC  H17R21024   0.168   5.392   9.324 -0.9260 -2.3294  1.2055
  183SLPC  H17S21025   0.096   5.423   9.159  1.8271 -0.7642  0.7009
  183SLPC  C21821026  -0.044   5.352   9.312  0.1771 -0.6720 -0.1012
  183SLPC  H18R21027  -0.132   5.400   9.266  0.6829 -0.6362 -1.0540
  183SLPC  H18S21028  -0.042   5.337   9.422 -0.1639 -2.9596 -0.3495
  183SLPC  H18T21029  -0.052   5.249   9.271 -0.6779 -0.5513 -0.2410
  183SLPC   C3321030   0.174   6.211   9.901  0.0459 -0.5165 -0.1489
  183SLPC   H3X21031   0.202   6.312   9.938 -0.7595 -0.0816 -0.7064
  183SLPC   H3Y21032   0.063   6.212   9.897  0.0190  1.5046 -0.1851
  183SLPC   C3421033   0.243   6.195   9.767  0.0551  0.6323  0.2183
  183SLPC   H4X21034   0.349   6.216   9.792  1.1238 -2.7287 -0.9271
  183SLPC   H4Y21035   0.190   6.271   9.705 -3.1957  0.4398  2.5386
  183SLPC   C3521036   0.247   6.052   9.713  0.3228  0.0223  0.5263
  183SLPC   H5X21037   0.142   6.014   9.717 -0.7352  2.4636 -1.4934
  183SLPC   H5Y21038   0.297   5.982   9.783 -0.6718 -1.2235  0.0382
  183SLPC   C3621039   0.306   6.048   9.570 -0.0880  0.8217  0.0893
  183SLPC   H6X21040   0.332   5.944   9.543 -1.0824  0.2339  1.2875
  183SLPC   H6Y21041   0.394   6.115   9.565  0.6432 -0.1930 -0.9352
  183SLPC   C3721042   0.204   6.107   9.469  0.2324  0.1551  0.6254
  183SLPC   H7X21043   0.188   6.215   9.493  0.2865 -0.0286  1.5480
  183SLPC   H7Y21044   0.112   6.050   9.492 -0.4578  1.4973  1.3374
  183SLPC   C3821045   0.243   6.091   9.320 -0.8132 -0.4623  0.6551
  183SLPC   H8X21046   0.260   5.984   9.299 -2.4766 -1.0627  2.1733
  183SLPC   H8Y21047   0.330   6.154   9.291 -1.4519 -0.5241 -1.5266
  183SLPC   C3921048   0.133   6.134   9.229  0.4933  0.1049 -0.5674
  183SLPC   H9X21049   0.111   6.240   9.253 -0.9061 -0.0967 -0.8603
  183SLPC   H9Y21050   0.043   6.070   9.243  0.8433 -0.4291 -0.7103
  183SLPC  C31021051   0.162   6.119   9.075 -0.1762 -0.4070  0.3036
  183SLPC  H10X21052   0.250   6.177   9.039 -1.6430  1.0327 -1.0847
  183SLPC  H10Y21053   0.075   6.170   9.029 -0.8392 -0.6662  1.2326
  183SLPC  C31121054   0.176   5.977   9.019  0.3303  0.1221  0.3507
  183SLPC  H11X21055   0.265   5.920   9.052  1.1627  0.4252 -1.2228
  183SLPC  H11Y21056   0.207   5.984   8.912  1.0615 -0.9542  0.4825
  183SLPC  C31221057   0.043   5.899   9.031 -0.7726 -0.2905  0.7786
  183SLPC  H12X21058  -0.039   5.972   9.012 -0.0056 -0.1962 -2.9912
  183SLPC  H12Y21059   0.024   5.836   9.121 -0.1512 -1.3298  0.2055
  183SLPC  C31321060   0.048   5.785   8.924 -0.3640 -0.1656 -0.3489
  183SLPC  H13X21061   0.152   5.746   8.912  0.5709  0.5431  3.8717
  183SLPC  H13Y21062   0.027   5.840   8.830  2.7849  0.5535 -0.7409
  183SLPC  C31421063  -0.066   5.681   8.956  0.0801  0.5703  0.0609
  183SLPC  H14X21064  -0.136   5.732   9.027 -0.5744 -0.2263  0.0047
  183SLPC  H14Y21065  -0.025   5.598   9.018 -1.4354 -0.4592 -0.2520
  183SLPC  C31521066  -0.143   5.643   8.827  0.2872 -0.5849  1.0518
  183SLPC  H15X21067  -0.161   5.736   8.769 -0.8866 -0.7807  1.0834
  183SLPC  H15Y21068  -0.242   5.603   8.856 -0.1358 -0.1522  0.2244
  183SLPC  C31621069  -0.082   5.533   8.750  0.3681  0.2748 -0.1227
  183SLPC  H16X21070   0.022   5.559   8.722  0.4953  1.3045  1.2298
  183SLPC  H16Y21071  -0.145   5.526   8.659 -1.7249 -0.4322  1.2971
  183SLPC  C31721072  -0.090   5.400   8.825  0.3823 -0.4510  0.1894
  183SLPC  H17X21073  -0.194   5.380   8.857  1.1776 -1.2409  2.4895
  183SLPC  H17Y21074  -0.024   5.418   8.912  1.1571 -1.8206 -0.0875
  183SLPC  C31821075  -0.046   5.276   8.750  0.3929  0.5293  0.4522
  183SLPC  H18X21076  -0.105   5.244   8.662  1.0806 -1.4029  0.6265
  183SLPC  H18Y21077  -0.057   5.187   8.816 -0.5001  1.7061  1.9506
  183SLPC  H18Z21078   0.060   5.291   8.721  0.4476 -1.8471 -0.8325
  184SLPC     N21079   3.022   1.850  10.857 -0.1135  0.0904  0.4469
  184SLPC   C1321080   2.878   1.859  10.882  0.3235 -0.7515  0.0434
  184SLPC  H13A21081   2.841   1.958  10.860 -2.3716 -1.6249  0.3430
  184SLPC  H13B21082   2.817   1.804  10.812  1.2098 -0.7825 -0.7192
  184SLPC  H13C21083   2.844   1.830  10.981  0.3509 -0.8097  0.0358
  184SLPC   C1421084   3.060   1.709  10.903 -0.1110  0.6148  0.1764
  184SLPC  H14A21085   3.048   1.694  11.009  0.5652 -1.4816 -0.0012
  184SLPC  H14B21086   3.006   1.630  10.852  1.4473  0.2485 -0.9708
  184SLPC  H14C21087   3.163   1.689  10.878 -0.4797 -1.9513  0.3545
  184SLPC   C1521088   3.097   1.946  10.939  0.1213  0.8803  0.0625
  184SLPC  H15A21089   3.092   1.910  11.041  0.7610 -2.3501 -0.9300
  184SLPC  H15B21090   3.203   1.949  10.917  0.6876 -0.6299  2.1703
  184SLPC  H15C21091   3.061   2.047  10.935 -1.2773  0.3537 -1.9253
  184SLPC   C1221092   3.065   1.871  10.710 -0.4348 -0.4411 -0.6031
  184SLPC  H12A21093   3.048   1.779  10.656 -0.4863 -1.0845  0.4775
  184SLPC  H12B21094   3.170   1.894  10.709 -0.2565 -1.2029 -0.2550
  184SLPC   C1121095   2.989   1.979  10.633  1.1688 -0.0265  0.5938
  184SLPC  H11A21096   2.880   1.959  10.620  0.9210  0.6989  1.4455
  184SLPC  H11B21097   3.020   1.967  10.527  2.2939 -4.1200  1.1824
  184SLPC     P21098   3.128   2.196  10.642  0.2918  0.6384  0.1451
  184SLPC   O1321099   3.071   2.334  10.639 -0.2238  1.0005 -0.3850
  184SLPC   O1421100   3.244   2.169  10.732 -0.3592 -0.2932 -0.6306
  184SLPC   O1221101   3.009   2.106  10.692  0.0937 -0.2751  0.2513
  184SLPC   O1121102   3.173   2.147  10.497 -0.2748 -0.3112 -0.4168
  184SLPC    C121103   3.093   2.193  10.388 -0.1799  0.3576 -0.3225
  184SLPC    HA21104   3.002   2.130  10.377  0.3712 -0.2213 -1.8669
  184SLPC    HB21105   3.060   2.298  10.401 -2.3958 -0.3065 -0.1093
  184SLPC    C221106   3.180   2.174  10.261 -0.0817  0.0970  0.6985
  184SLPC    HS21107   3.132   2.237  10.183  0.8365 -2.1529 -1.8358
  184SLPC   O2121108   3.170   2.033  10.226 -0.2911 -0.0701  0.2308
  184SLPC   C2121109   3.180   1.997  10.100  0.4369  0.0398  0.8166
  184SLPC   O2221110   3.190   2.071  10.005 -0.3996 -0.2455  0.3512
  184SLPC   C2221111   3.140   1.852  10.083 -0.3547  0.0452 -0.4049
  184SLPC   H2R21112   3.193   1.779  10.149  1.3679 -0.6936 -2.4992
  184SLPC   H2S21113   3.031   1.851  10.107  0.2805  0.3560  2.9702
  184SLPC    C321114   3.330   2.233  10.277  0.1784 -0.1997 -0.1372
  184SLPC    HX21115   3.365   2.149  10.341 -1.0152 -2.5828 -2.4057
  184SLPC    HY21116   3.351   2.326  10.333  3.9095 -1.5281  0.9676
  184SLPC   O3121117   3.397   2.224  10.154 -0.0588 -0.2690  0.1532
  184SLPC   C3121118   3.403   2.340  10.098 -0.1570  0.6058  0.0093
  184SLPC   O3221119   3.363   2.446  10.141  0.1822 -0.0485 -0.3053
  184SLPC   C3221120   3.472   2.326   9.960 -0.0637  0.1754 -0.5265
  184SLPC   H2X21121   3.558   2.258   9.977  0.3266  0.4849 -1.2206
  184SLPC   H2Y21122   3.500   2.433   9.947 -1.3348  0.8808  1.8873
  184SLPC   C2321123   3.165   1.807   9.940 -0.0693  0.1627  0.1702
  184SLPC   H3R21124   3.274   1.799   9.921 -0.0889  0.2701  0.0027
  184SLPC   H3S21125   3.132   1.876   9.859 -0.7689 -0.5344 -0.1582
  184SLPC   C2421126   3.092   1.674   9.905 -0.7890  0.3621 -0.0311
  184SLPC   H4R21127   2.981   1.680   9.909 -0.7313  0.7628  2.0851
  184SLPC   H4S21128   3.123   1.592   9.973  0.3568  0.6579 -0.1628
  184SLPC   C2521129   3.134   1.628   9.761  0.1016 -0.5202  0.2308
  184SLPC   H5R21130   3.112   1.521   9.740 -0.8974 -0.0830 -1.1720
  184SLPC   H5S21131   3.242   1.654   9.765 -0.7340  3.3517  3.2358
  184SLPC   C2621132   3.068   1.705   9.643 -0.7609 -0.1590  0.5929
  184SLPC   H6R21133   3.090   1.814   9.641  1.5160 -0.5722 -1.2045
  184SLPC   H6S21134   2.958   1.689   9.638 -0.8744  0.8656 -1.8082
  184SLPC   C2721135   3.122   1.652   9.508  0.4718  0.2802  0.5055
  184SLPC   H7R21136   3.101   1.543   9.498  0.6745  0.4303 -2.1739
  184SLPC   H7S21137   3.232   1.663   9.525  0.4771  0.9616  0.0671
  184SLPC   C2821138   3.087   1.736   9.383  0.4239  0.5941  0.0804
  184SLPC   H8R21139   2.976   1.726   9.380  0.4041  0.9108 -0.3438
  184SLPC   H8S21140   3.130   1.693   9.290 -0.0914  1.6917 -0.6968
  184SLPC   C2921141   3.110   1.884   9.387 -0.0919 -0.5506  0.3303
  184SLPC   H9R21142   3.059   1.943   9.464 -0.3922 -0.7226  0.2650
  184SLPC  C21021143   3.156   1.951   9.276  0.1154 -0.0128 -0.2609
  184SLPC  H10R21144   3.166   2.060   9.283 -2.9512  0.3478 -0.2362
  184SLPC  C21121145   3.197   1.884   9.148  0.1607 -0.2077  0.0668
  184SLPC  H11R21146   3.139   1.798   9.108 -0.1305 -0.5155  1.1218
  184SLPC  H11S21147   3.293   1.832   9.169  0.4484  0.3793  0.2428
  184SLPC  C21221148   3.198   1.982   9.040 -0.3974 -0.5073  0.0965
  184SLPC  H12R21149   3.284   2.049   9.052 -2.5133  2.9568 -2.3541
  184SLPC  C21321150   3.113   1.992   8.936 -0.2981  0.1675  0.3605
  184SLPC  H13R21151   3.136   2.070   8.862 -0.6074 -0.2612 -0.1887
  184SLPC  C21421152   3.007   1.895   8.903  0.2852 -0.9305  0.2033
  184SLPC  H14R21153   2.981   1.825   8.985 -1.4550  0.9808  1.3754
  184SLPC  H14S21154   3.036   1.843   8.809  0.0728  1.1652 -1.0784
  184SLPC  C21521155   2.873   1.968   8.885  0.0337 -1.2010 -0.5740
  184SLPC  H15R21156   2.871   2.039   8.800 -1.2970  1.8723  1.8438
  184SLPC  H15S21157   2.832   2.030   8.968 -0.1726  0.3193 -1.7696
  184SLPC  C21621158   2.760   1.868   8.850 -0.1919 -0.8466  0.0154
  184SLPC  H16R21159   2.752   1.790   8.929 -0.0361  1.3397  2.3027
  184SLPC  H16S21160   2.795   1.813   8.760  0.8934  0.4004 -0.3415
  184SLPC  C21721161   2.621   1.924   8.820  0.1046  0.1549  0.5469
  184SLPC  H17R21162   2.557   1.836   8.795  0.7656 -0.8725  2.3302
  184SLPC  H17S21163   2.626   1.991   8.732 -1.3390 -0.0013  0.3143
  184SLPC  C21821164   2.545   1.977   8.943 -0.1033  0.6186 -0.3420
  184SLPC  H18R21165   2.541   1.909   9.031 -2.2855  0.8876 -0.1822
  184SLPC  H18S21166   2.444   2.006   8.907 -0.5722 -1.2436 -0.6212
  184SLPC  H18T21167   2.596   2.075   8.956 -1.1202  1.1572 -0.2700
  184SLPC   C3321168   3.380   2.295   9.838  0.8157 -0.8620 -0.6331
  184SLPC   H3X21169   3.296   2.367   9.838 -0.5604 -2.3876  0.5179
  184SLPC   H3Y21170   3.331   2.197   9.858  1.5373 -0.9396  0.9403
  184SLPC   C3421171   3.442   2.291   9.705 -0.3769 -0.1915 -0.3513
  184SLPC   H4X21172   3.494   2.192   9.706  0.3651  0.1627 -1.6652
  184SLPC   H4Y21173   3.521   2.368   9.697  0.8393 -1.1212  1.7033
  184SLPC   C3521174   3.343   2.300   9.587  0.1490  0.3004 -0.2685
  184SLPC   H5X21175   3.285   2.395   9.594  1.1754  1.1246 -2.1395
  184SLPC   H5Y21176   3.267   2.219   9.577 -1.2429  1.2945  1.4634
  184SLPC   C3621177   3.420   2.318   9.456  0.1009  0.2056  0.2371
  184SLPC   H6X21178   3.491   2.232   9.450  0.7828  0.6884  1.0697
  184SLPC   H6Y21179   3.494   2.400   9.469  2.2746 -1.8667  2.0880
  184SLPC   C3721180   3.332   2.327   9.330 -0.9669 -0.1517  0.4379
  184SLPC   H7X21181   3.249   2.401   9.324 -0.1985  0.6964 -0.0097
  184SLPC   H7Y21182   3.283   2.227   9.330  0.5269 -0.9207 -0.7275
  184SLPC   C3821183   3.428   2.329   9.206 -0.0010  0.4443 -0.7851
  184SLPC   H8X21184   3.475   2.228   9.202  2.9933  1.6920 -0.1379
  184SLPC   H8Y21185   3.509   2.401   9.232 -0.3969  1.4062 -2.1442
  184SLPC   C3921186   3.353   2.357   9.077 -0.6290 -0.0463  0.1389
  184SLPC   H9X21187   3.338   2.465   9.061 -0.6524 -0.3017 -1.7517
  184SLPC   H9Y21188   3.253   2.311   9.090 -0.3287 -0.3947  1.3947
  184SLPC  C31021189   3.416   2.292   8.954 -0.2147  0.4408  0.2628
  184SLPC  H10X21190   3.427   2.181   8.954  1.3958  0.5518  2.4465
  184SLPC  H10Y21191   3.514   2.341   8.940 -1.1112  1.8568 -1.4554
  184SLPC  C31121192   3.338   2.315   8.829 -0.6899 -0.2893  0.8066
  184SLPC  H11X21193   3.354   2.418   8.792 -0.8013 -0.1627  1.1139
  184SLPC  H11Y21194   3.228   2.298   8.836 -1.3283  3.0758  0.4762
  184SLPC  C31221195   3.381   2.221   8.713  0.0187 -0.5355 -0.1059
  184SLPC  H12X21196   3.322   2.246   8.623  0.4355  2.4161  0.3413
  184SLPC  H12Y21197   3.344   2.117   8.729  2.6659 -1.9997 -2.5907
  184SLPC  C31321198   3.526   2.220   8.675 -0.1339  0.7986 -1.1958
  184SLPC  H13X21199   3.586   2.192   8.764 -0.6341 -0.1921 -1.1487
  184SLPC  H13Y21200   3.550   2.325   8.648 -2.5092  2.3522  2.0249
  184SLPC  C31421201   3.561   2.118   8.563 -0.2814  0.1836  0.2728
  184SLPC  H14X21202   3.497   2.142   8.475  0.8003 -0.8168 -0.8316
  184SLPC  H14Y21203   3.546   2.019   8.611 -0.5289  0.5888  1.0447
  184SLPC  C31521204   3.701   2.125   8.517  0.1177  0.1179  0.4051
  184SLPC  H15X21205   3.723   2.230   8.492 -3.1038  0.9335  0.4811
  184SLPC  H15Y21206   3.699   2.060   8.427 -0.2004 -1.0295  1.2084
  184SLPC  C31621207   3.796   2.060   8.620 -0.2591  0.5750  0.1610
  184SLPC  H16X21208   3.743   1.966   8.648  0.2949  0.0512 -0.5182
  184SLPC  H16Y21209   3.818   2.118   8.711 -2.5818  0.3301  0.9512
  184SLPC  C31721210   3.932   2.032   8.558 -0.3583 -0.0456 -0.3517
  184SLPC  H17X21211   3.919   1.944   8.491  0.8732  0.9974 -2.0421
  184SLPC  H17Y21212   4.002   2.008   8.641  0.3721  0.3489 -0.8405
  184SLPC  C31821213   4.001   2.142   8.474  0.8136  0.0233  0.1813
  184SLPC  H18X21214   4.106   2.125   8.443  0.6249 -0.1154 -0.4113
  184SLPC  H18Y21215   4.020   2.239   8.525  0.6229  0.1631 -0.0087
  184SLPC  H18Z21216   3.926   2.166   8.394  1.7794  2.1385 -0.1577
  185SLPC     N21217   0.246   5.301   6.072  0.1149  0.4720 -0.1197
  185SLPC   C1321218   0.166   5.224   5.964 -0.1250 -0.4169  0.3280
  185SLPC  H13A21219   0.142   5.286   5.878  0.4833  1.5832  1.5507
  185SLPC  H13B21220   0.215   5.133   5.933  0.1689  0.5883 -2.4326
  185SLPC  H13C21221   0.077   5.189   6.014  0.4270 -0.0861  1.5670
  185SLPC   C1421222   0.374   5.352   6.018  0.2327  0.6119 -0.0769
  185SLPC  H14A21223   0.442   5.271   5.994  2.7744  1.4455  3.4359
  185SLPC  H14B21224   0.354   5.406   5.927  1.4638  2.4807  0.6921
  185SLPC  H14C21225   0.423   5.422   6.084  2.0039  2.1806 -2.8402
  185SLPC   C1521226   0.268   5.190   6.168 -0.0739 -0.3134  0.2872
  185SLPC  H15A21227   0.317   5.103   6.125 -1.2304 -0.8314 -0.0356
  185SLPC  H15B21228   0.328   5.215   6.254  0.6709  0.4387 -0.4303
  185SLPC  H15C21229   0.170   5.163   6.204 -0.7670  1.5022 -0.1361
  185SLPC   C1221230   0.175   5.420   6.133 -0.6069  0.0386  0.4150
  185SLPC  H12A21231   0.135   5.483   6.055 -0.7262  1.2419  1.4166
  185SLPC  H12B21232   0.253   5.479   6.179  0.7233 -0.9629 -0.4653
  185SLPC   C1121233   0.053   5.404   6.227  0.1985  0.0687  0.1398
  185SLPC  H11A21234  -0.009   5.333   6.167  0.7530 -0.4849  0.2111
  185SLPC  H11B21235   0.002   5.501   6.244 -2.7783 -1.5221  1.1109
  185SLPC     P21236  -0.015   5.269   6.441 -1.0035 -0.1568 -0.2294
  185SLPC   O1321237  -0.079   5.164   6.355 -0.6073  0.3603 -1.0323
  185SLPC   O1421238   0.049   5.221   6.571 -0.2818 -0.8306  0.1912
  185SLPC   O1221239   0.094   5.349   6.350 -0.2329  0.3256  0.0644
  185SLPC   O1121240  -0.119   5.388   6.463 -0.3721  0.0548  0.3143
  185SLPC    C121241  -0.078   5.504   6.546 -0.2302 -0.9154  0.0893
  185SLPC    HA21242   0.014   5.491   6.607 -0.7085  0.9133  1.2634
  185SLPC    HB21243  -0.069   5.593   6.480  1.1721 -0.9007  0.2656
  185SLPC    C221244  -0.185   5.523   6.655 -0.6520 -0.6850 -0.5819
  185SLPC    HS21245  -0.157   5.612   6.715 -1.4221 -1.8641  1.6386
  185SLPC   O2121246  -0.189   5.410   6.747  0.1297 -0.0561  0.0834
  185SLPC   C2121247  -0.090   5.384   6.837  0.7271 -0.6215  0.2539
  185SLPC   O2221248   0.014   5.444   6.849  0.0466 -0.4665 -0.0856
  185SLPC   C2221249  -0.116   5.244   6.901  0.4842  0.4306  0.1883
  185SLPC   H2R21250  -0.222   5.241   6.936  0.6036 -1.5379  0.4717
  185SLPC   H2S21251  -0.110   5.171   6.818 -2.9941 -1.0240  1.0426
  185SLPC    C321252  -0.322   5.544   6.604 -0.5431  0.2740 -0.0999
  185SLPC    HX21253  -0.367   5.460   6.546 -0.6281 -1.5427  2.4169
  185SLPC    HY21254  -0.314   5.627   6.530  0.4740  0.6813  0.4570
  185SLPC   O3121255  -0.415   5.590   6.711  0.3128  0.4179  0.4462
  185SLPC   C3121256  -0.498   5.493   6.758 -0.0698 -0.5802 -0.5386
  185SLPC   O3221257  -0.517   5.383   6.712 -0.3340 -0.0443  0.1003
  185SLPC   C3221258  -0.581   5.548   6.879  0.4452 -0.3051 -0.2814
  185SLPC   H2X21259  -0.673   5.596   6.840  0.9369 -0.0139 -1.0988
  185SLPC   H2Y21260  -0.521   5.632   6.921 -0.2809  0.4679 -0.7683
  185SLPC   C2321261  -0.033   5.196   7.018 -0.2143 -0.5971  1.0465
  185SLPC   H3R21262   0.074   5.208   6.989 -0.5429  1.5018  0.5166
  185SLPC   H3S21263  -0.054   5.087   7.030 -3.5451 -0.2929 -0.9918
  185SLPC   C2421264  -0.063   5.274   7.142  0.1425 -0.1425  0.2508
  185SLPC   H4R21265  -0.044   5.381   7.121  3.9011 -1.2450 -3.4201
  185SLPC   H4S21266   0.017   5.246   7.214  0.0688 -1.5512 -0.1805
  185SLPC   C2521267  -0.195   5.245   7.212  0.7071  0.8163  0.8937
  185SLPC   H5R21268  -0.193   5.136   7.233 -2.2577  0.3802 -0.5867
  185SLPC   H5S21269  -0.278   5.265   7.141  1.1210  0.6494  0.3455
  185SLPC   C2621270  -0.210   5.327   7.341  0.0333 -0.5482  0.4399
  185SLPC   H6R21271  -0.229   5.433   7.312  0.2648 -0.4382  0.6847
  185SLPC   H6S21272  -0.114   5.332   7.398  0.7244  0.7980 -0.7757
  185SLPC   C2721273  -0.317   5.284   7.446 -0.2419 -0.3682 -0.1797
  185SLPC   H7R21274  -0.302   5.175   7.460  1.2209 -0.3080 -1.1274
  185SLPC   H7S21275  -0.416   5.300   7.398  0.2170  2.4685 -0.3399
  185SLPC   C2821276  -0.317   5.358   7.577 -0.6853  0.3365 -0.0761
  185SLPC   H8R21277  -0.417   5.342   7.623 -1.5641  3.2572 -0.7836
  185SLPC   H8S21278  -0.304   5.465   7.551 -0.5054  0.1856 -0.6119
  185SLPC   C2921279  -0.204   5.325   7.672  0.3700 -0.2915 -0.3549
  185SLPC   H9R21280  -0.106   5.368   7.647  0.6947 -1.0477 -0.4177
  185SLPC  C21021281  -0.215   5.256   7.789 -0.3711 -0.8832 -0.1814
  185SLPC  H10R21282  -0.124   5.217   7.835 -0.5336 -0.7584  0.2486
  185SLPC  C21121283  -0.347   5.203   7.840 -0.1814 -0.8149 -0.2911
  185SLPC  H11R21284  -0.382   5.122   7.773  0.7562 -1.9531  0.5506
  185SLPC  H11S21285  -0.428   5.276   7.821  2.9540  3.3809  0.8984
  185SLPC  C21221286  -0.343   5.155   7.984 -0.3149 -0.8500 -0.4736
  185SLPC  H12R21287  -0.350   5.047   8.005  0.1791 -0.6686  0.7411
  185SLPC  C21321288  -0.314   5.223   8.096 -0.4383 -0.2866  0.4163
  185SLPC  H13R21289  -0.332   5.171   8.192 -1.4246  1.0911  0.9922
  185SLPC  C21421290  -0.286   5.368   8.107 -0.3374  0.3797 -0.5395
  185SLPC  H14R21291  -0.355   5.418   8.179 -0.5974 -0.4649 -0.2004
  185SLPC  H14S21292  -0.299   5.409   8.004  1.0066 -1.1339 -1.3456
  185SLPC  C21521293  -0.138   5.406   8.137 -0.0662 -0.5153  0.0921
  185SLPC  H15R21294  -0.130   5.514   8.160  1.7731 -0.6327  0.1436
  185SLPC  H15S21295  -0.079   5.382   8.045 -0.0637 -0.7183  0.1451
  185SLPC  C21621296  -0.081   5.339   8.261 -0.3683 -0.8785 -0.1396
  185SLPC  H16R21297  -0.039   5.238   8.240 -1.1039 -1.3038  0.3952
  185SLPC  H16S21298  -0.161   5.302   8.328 -1.5349  0.3012 -0.8311
  185SLPC  C21721299   0.017   5.427   8.344  0.4165  0.7452 -0.9625
  185SLPC  H17R21300   0.052   5.369   8.432 -2.1845  0.7007  0.1246
  185SLPC  H17S21301  -0.027   5.519   8.388 -1.7520  0.8929 -3.1902
  185SLPC  C21821302   0.143   5.458   8.270 -0.5960 -0.6857  0.5518
  185SLPC  H18R21303   0.191   5.365   8.230 -1.7291 -0.5138 -1.3428
  185SLPC  H18S21304   0.214   5.503   8.343 -1.2872 -0.4966  1.1136
  185SLPC  H18T21305   0.127   5.524   8.182  0.2136 -1.7386 -0.4271
  185SLPC   C3321306  -0.620   5.435   6.979  0.1321 -0.8345 -0.5796
  185SLPC   H3X21307  -0.525   5.385   7.009  0.4486  0.5435  0.8366
  185SLPC   H3Y21308  -0.680   5.358   6.925  1.7289 -2.2297 -0.4601
  185SLPC   C3421309  -0.684   5.488   7.114  0.4469 -0.0978  0.7810
  185SLPC   H4X21310  -0.698   5.405   7.186 -0.5741 -0.6168  0.0123
  185SLPC   H4Y21311  -0.782   5.534   7.087 -0.7117 -2.5643  0.4966
  185SLPC   C3521312  -0.603   5.598   7.188 -0.1699 -0.1058  0.1536
  185SLPC   H5X21313  -0.565   5.672   7.114 -0.4274 -0.3778 -0.2508
  185SLPC   H5Y21314  -0.512   5.543   7.221 -1.4862 -3.1164 -0.9386
  185SLPC   C3621315  -0.683   5.664   7.299 -0.8329 -0.4523  0.2793
  185SLPC   H6X21316  -0.772   5.704   7.245 -0.9266 -1.0024  0.0125
  185SLPC   H6Y21317  -0.629   5.747   7.349  0.1265 -0.1190 -1.2355
  185SLPC   C3721318  -0.716   5.569   7.412 -0.6990  0.1664  0.2119
  185SLPC   H7X21319  -0.624   5.510   7.430  1.5962  3.0261 -1.1887
  185SLPC   H7Y21320  -0.795   5.504   7.369 -0.7914 -0.2404  0.9798
  185SLPC   C3821321  -0.779   5.622   7.548  0.3317 -1.0152  0.6975
  185SLPC   H8X21322  -0.861   5.690   7.519  0.8551 -0.0142  1.4711
  185SLPC   H8Y21323  -0.710   5.691   7.601 -1.1553  0.7977  0.3511
  185SLPC   C3921324  -0.829   5.501   7.633 -0.3302  0.3662  0.1629
  185SLPC   H9X21325  -0.743   5.434   7.654 -1.6304 -1.2824  0.4261
  185SLPC   H9Y21326  -0.905   5.450   7.570  1.4365 -0.3591 -1.4634
  185SLPC  C31021327  -0.872   5.546   7.772 -0.3000  0.3931 -0.1130
  185SLPC  H10X21328  -0.887   5.449   7.825  1.3088 -0.0227 -0.3881
  185SLPC  H10Y21329  -0.956   5.616   7.792  1.2095  1.7371  1.9048
  185SLPC  C31121330  -0.769   5.610   7.852  0.5408 -1.0894  0.1420
  185SLPC  H11X21331  -0.739   5.706   7.805  1.5877 -2.4155 -2.0658
  185SLPC  H11Y21332  -0.670   5.561   7.863  1.1892  0.3663  1.2039
  185SLPC  C31221333  -0.814   5.633   7.997  0.1612 -0.0716 -0.8133
  185SLPC  H12X21334  -0.917   5.673   8.002  0.6019  0.8848  1.5042
  185SLPC  H12Y21335  -0.745   5.705   8.044  0.4964  0.6728 -2.3680
  185SLPC  C31321336  -0.818   5.503   8.087  0.3071  0.1142 -0.1304
  185SLPC  H13X21337  -0.886   5.430   8.039 -1.3566  1.0898  0.6449
  185SLPC  H13Y21338  -0.862   5.535   8.184  2.7769  0.9272  0.8017
  185SLPC  C31421339  -0.683   5.424   8.109  0.9666  0.3552 -0.0943
  185SLPC  H14X21340  -0.605   5.504   8.105  1.1962  0.1156 -0.3855
  185SLPC  H14Y21341  -0.668   5.364   8.017 -2.8279 -1.3623  0.2298
  185SLPC  C31521342  -0.673   5.351   8.243  0.7382  0.1908 -0.5320
  185SLPC  H15X21343  -0.592   5.276   8.227  1.2124  0.4174  0.6689
  185SLPC  H15Y21344  -0.766   5.291   8.255  0.9350 -0.2848 -1.3149
  185SLPC  C31621345  -0.647   5.448   8.372  0.3758 -0.0540  0.2718
  185SLPC  H16X21346  -0.744   5.480   8.415 -0.4644 -0.1957 -1.4375
  185SLPC  H16Y21347  -0.593   5.543   8.350 -0.4336 -0.0537 -1.9947
  185SLPC  C31721348  -0.555   5.371   8.465 -0.9263 -0.2718 -1.0352
  185SLPC  H17X21349  -0.469   5.339   8.402 -0.1260  0.5429 -0.3927
  185SLPC  H17Y21350  -0.616   5.284   8.497  1.0305 -0.6913  1.9708
  185SLPC  C31821351  -0.495   5.454   8.583 -0.0042 -0.2608  0.1315
  185SLPC  H18X21352  -0.439   5.391   8.656 -1.8852 -1.2426  0.8226
  185SLPC  H18Y21353  -0.578   5.508   8.634 -0.1422 -0.7727  0.4615
  185SLPC  H18Z21354  -0.424   5.529   8.542  2.0597 -2.2806 -0.2054
  186SLPC     N21355   1.516   1.312   6.031 -0.5058 -0.7823 -0.8657
  186SLPC   C1321356   1.522   1.175   6.093  0.1818 -0.8184  0.1252
  186SLPC  H13A21357   1.574   1.109   6.025  2.2641  1.8629 -1.0806
  186SLPC  H13B21358   1.594   1.169   6.173  3.4522 -3.2810 -2.7086
  186SLPC  H13C21359   1.422   1.139   6.111 -0.4973  0.2579 -1.2490
  186SLPC   C1421360   1.404   1.303   5.923  0.5109 -0.4652 -0.0326
  186SLPC  H14A21361   1.380   1.394   5.871 -1.2053 -0.6720  0.3381
  186SLPC  H14B21362   1.426   1.231   5.846  1.5583 -0.3782  0.1718
  186SLPC  H14C21363   1.310   1.277   5.968  1.2164 -1.4853  0.9055
  186SLPC   C1521364   1.644   1.340   5.970 -0.1734  0.1484  0.0043
  186SLPC  H15A21365   1.727   1.338   6.039 -0.1906  1.0334  0.0545
  186SLPC  H15B21366   1.652   1.264   5.893  1.9660 -2.2955  2.4147
  186SLPC  H15C21367   1.638   1.436   5.922 -2.8592 -0.9009 -2.0289
  186SLPC   C1221368   1.483   1.425   6.133 -0.5114  0.9193  0.9782
  186SLPC  H12A21369   1.381   1.403   6.159 -0.3647  0.0536  0.8708
  186SLPC  H12B21370   1.485   1.522   6.085  1.9772  0.2079 -0.5765
  186SLPC   C1121371   1.572   1.421   6.259 -0.6252  0.2345  0.3303
  186SLPC  H11A21372   1.589   1.314   6.283  0.8733 -0.1346 -2.1020
  186SLPC  H11B21373   1.525   1.457   6.353  0.1569  0.1102  0.7801
  186SLPC     P21374   1.709   1.636   6.254 -0.3522  0.2323  0.1466
  186SLPC   O1321375   1.840   1.681   6.206  0.0981 -0.3874  0.2815
  186SLPC   O1421376   1.595   1.712   6.208  0.4358  0.2510 -0.2439
  186SLPC   O1221377   1.701   1.482   6.228 -0.2529 -0.4736 -0.3878
  186SLPC   O1121378   1.707   1.637   6.409 -0.4133 -0.4450  0.1667
  186SLPC    C121379   1.741   1.762   6.474  0.2590 -0.0050  0.3612
  186SLPC    HA21380   1.829   1.740   6.538  0.3701 -0.4520  0.0555
  186SLPC    HB21381   1.775   1.843   6.406 -1.2699 -0.5550 -1.1177
  186SLPC    C221382   1.633   1.800   6.579  0.7158 -0.0464  0.1435
  186SLPC    HS21383   1.650   1.901   6.623 -0.3849  0.4442 -0.5048
  186SLPC   O2121384   1.621   1.704   6.688 -0.2676  0.0852 -0.7718
  186SLPC   C2121385   1.720   1.708   6.776  0.5125  0.3971 -0.5140
  186SLPC   O2221386   1.797   1.802   6.780  0.4069 -0.1371 -0.1764
  186SLPC   C2221387   1.728   1.590   6.869  0.0831  1.2601  0.4053
  186SLPC   H2R21388   1.634   1.533   6.862  1.7907 -1.6669 -0.4075
  186SLPC   H2S21389   1.811   1.533   6.822 -3.0408 -2.6032 -0.9758
  186SLPC    C321390   1.494   1.808   6.516  0.0060 -0.2475  0.0916
  186SLPC    HX21391   1.457   1.717   6.464 -2.6615  1.2947 -0.8726
  186SLPC    HY21392   1.497   1.885   6.436 -0.9063  0.3925  0.6502
  186SLPC   O3121393   1.405   1.861   6.621  0.4638 -0.0816 -0.3800
  186SLPC   C3121394   1.330   1.768   6.688 -0.3682  0.9017  0.0268
  186SLPC   O3221395   1.333   1.643   6.660 -0.0491 -0.5684 -0.5323
  186SLPC   C3221396   1.269   1.830   6.816 -0.7524  0.3882 -0.1957
  186SLPC   H2X21397   1.172   1.867   6.778 -1.9297 -1.2103  1.0941
  186SLPC   H2Y21398   1.338   1.902   6.867 -0.8686 -1.0543  2.1380
  186SLPC   C2321399   1.776   1.643   7.002  0.2270  0.2745  0.3968
  186SLPC   H3R21400   1.694   1.704   7.044 -0.5950  1.3555 -2.5379
  186SLPC   H3S21401   1.864   1.709   6.986  1.1538 -0.6410  1.5880
  186SLPC   C2421402   1.838   1.533   7.089 -0.2156  0.6057 -0.2916
  186SLPC   H4R21403   1.923   1.487   7.034  1.4745 -0.2179  2.7519
  186SLPC   H4S21404   1.767   1.449   7.106  0.7971  0.0042  1.1553
  186SLPC   C2521405   1.892   1.585   7.224 -1.1693 -0.6963 -0.6236
  186SLPC   H5R21406   1.808   1.640   7.273  0.4090  3.2748 -1.9442
  186SLPC   H5S21407   1.978   1.653   7.207 -0.3831 -1.0717  1.5486
  186SLPC   C2621408   1.943   1.471   7.319  0.2735 -0.1074 -0.2040
  186SLPC   H6R21409   2.039   1.512   7.356  0.3816 -0.9313  0.4455
  186SLPC   H6S21410   1.972   1.386   7.254  0.7069 -0.1195  0.0054
  186SLPC   C2721411   1.855   1.440   7.440  0.6918  0.3412 -0.6100
  186SLPC   H7R21412   1.754   1.406   7.407  0.3976  1.2861 -0.7267
  186SLPC   H7S21413   1.830   1.544   7.472  2.4356 -0.2110  3.0665
  186SLPC   C2821414   1.917   1.353   7.558  0.3387 -0.3857 -0.0542
  186SLPC   H8R21415   2.001   1.415   7.595 -0.9448  0.9970  0.7001
  186SLPC   H8S21416   1.956   1.255   7.524 -2.3065 -1.9479  1.0497
  186SLPC   C2921417   1.824   1.345   7.678  0.2449  0.5598  0.3819
  186SLPC   H9R21418   1.738   1.277   7.668  0.7394 -0.4557  2.3764
  186SLPC  C21021419   1.836   1.390   7.804  0.3071 -1.0095 -0.5992
  186SLPC  H10R21420   1.763   1.353   7.877 -0.9357  1.0759 -0.6905
  186SLPC  C21121421   1.954   1.467   7.863 -0.3565  0.3521  0.2988
  186SLPC  H11R21422   1.919   1.567   7.896  1.5453  0.4661  2.1317
  186SLPC  H11S21423   2.021   1.495   7.779 -4.2102  3.3800 -2.1239
  186SLPC  C21221424   2.014   1.394   7.980  0.4080 -0.1830 -0.1562
  186SLPC  H12R21425   2.006   1.285   7.971  0.3984 -0.1220 -0.9626
  186SLPC  C21321426   2.075   1.451   8.090  0.7756  0.9482  0.3967
  186SLPC  H13R21427   2.109   1.380   8.167 -0.3514  1.0713  1.0352
  186SLPC  C21421428   2.094   1.598   8.116  0.4854 -0.4192 -0.0794
  186SLPC  H14R21429   2.073   1.655   8.023 -2.5834  0.8892  1.2537
  186SLPC  H14S21430   2.198   1.633   8.135 -0.3858  0.9643  2.7858
  186SLPC  C21521431   1.995   1.645   8.225 -0.4764 -0.9082 -0.4523
  186SLPC  H15R21432   1.894   1.599   8.216 -0.5001 -0.6597 -1.5591
  186SLPC  H15S21433   1.992   1.754   8.209  0.3489 -0.9982 -1.2607
  186SLPC  C21621434   2.047   1.626   8.373  0.1721 -0.1846 -0.0789
  186SLPC  H16R21435   2.140   1.686   8.375  0.0493  0.0098 -0.1276
  186SLPC  H16S21436   2.073   1.518   8.383  0.2774 -0.2957 -1.3872
  186SLPC  C21721437   1.948   1.677   8.480 -0.3542 -0.7745 -0.3222
  186SLPC  H17R21438   2.004   1.684   8.575 -1.8136  1.5565  0.4331
  186SLPC  H17S21439   1.861   1.609   8.489 -2.2362  1.7048  1.1730
  186SLPC  C21821440   1.911   1.823   8.456  0.0206  0.2074 -0.7752
  186SLPC  H18R21441   1.883   1.849   8.352 -0.9214 -3.2207 -1.4899
  186SLPC  H18S21442   1.988   1.896   8.490 -0.1663 -0.2076  0.6284
  186SLPC  H18T21443   1.816   1.838   8.512  0.7235 -0.1742  0.5649
  186SLPC   C3321444   1.247   1.725   6.930 -0.1453 -0.3756  0.4694
  186SLPC   H3X21445   1.222   1.626   6.885 -0.1435 -0.9905  1.7625
  186SLPC   H3Y21446   1.166   1.758   6.998  0.0931  0.5966  0.2861
  186SLPC   C3421447   1.361   1.708   7.025  0.3452  0.2808  0.2198
  186SLPC   H4X21448   1.396   1.808   7.057  0.3862  0.4049 -0.2025
  186SLPC   H4Y21449   1.446   1.656   6.974 -0.6795 -2.6266  1.2908
  186SLPC   C3521450   1.330   1.619   7.148 -0.0902  0.3494  0.2767
  186SLPC   H5X21451   1.272   1.528   7.119  0.1416 -0.3550  1.9373
  186SLPC   H5Y21452   1.260   1.682   7.207  0.2818  1.0144  0.0218
  186SLPC   C3621453   1.447   1.578   7.231  0.4548  0.0402  0.0328
  186SLPC   H6X21454   1.493   1.677   7.253  1.3990 -0.2997 -0.3506
  186SLPC   H6Y21455   1.512   1.511   7.172  0.8596 -0.5948  1.1642
  186SLPC   C3721456   1.386   1.514   7.360 -0.3220  0.3770 -0.0461
  186SLPC   H7X21457   1.366   1.409   7.330 -0.3391 -0.0539  1.4048
  186SLPC   H7Y21458   1.285   1.549   7.390 -1.1813 -0.5117 -1.7693
  186SLPC   C3821459   1.475   1.513   7.486 -0.3479  0.1198 -1.1395
  186SLPC   H8X21460   1.557   1.439   7.471 -0.3462  0.1029 -1.0457
  186SLPC   H8Y21461   1.417   1.474   7.572 -0.2535 -0.3581 -1.2879
  186SLPC   C3921462   1.515   1.656   7.527  0.0819  0.1012  0.3389
  186SLPC   H9X21463   1.433   1.731   7.522 -1.0522 -1.1201  0.2127
  186SLPC   H9Y21464   1.594   1.702   7.464 -0.6590 -0.1140 -0.7933
  186SLPC  C31021465   1.565   1.662   7.667  0.0575  0.6508 -0.0728
  186SLPC  H10X21466   1.597   1.560   7.698 -1.5224 -0.2624 -1.2887
  186SLPC  H10Y21467   1.483   1.667   7.741  1.1316  0.8430  1.1359
  186SLPC  C31121468   1.653   1.786   7.706 -0.0784  0.2886  0.6535
  186SLPC  H11X21469   1.587   1.872   7.683  1.0670  1.6279  2.1425
  186SLPC  H11Y21470   1.742   1.788   7.640 -1.0198 -2.3809 -0.8533
  186SLPC  C31221471   1.690   1.800   7.847  0.5038 -0.0165 -0.4474
  186SLPC  H12X21472   1.756   1.716   7.877  1.5144  0.7233 -0.5382
  186SLPC  H12Y21473   1.603   1.794   7.916 -0.3764 -0.5045 -1.5823
  186SLPC  C31321474   1.760   1.932   7.877 -0.6691  0.4590  0.3478
  186SLPC  H13X21475   1.689   2.017   7.866  1.3827  2.0608 -1.5741
  186SLPC  H13Y21476   1.841   1.940   7.801 -0.2403 -3.1879  0.2384
  186SLPC  C31421477   1.828   1.925   8.012 -0.1557 -0.1971  0.1908
  186SLPC  H14X21478   1.914   1.855   8.006  1.4147  1.3903  2.3582
  186SLPC  H14Y21479   1.753   1.895   8.089 -1.0030  1.0645 -0.1186
  186SLPC  C31521480   1.895   2.055   8.032 -0.2676 -0.5365 -0.3492
  186SLPC  H15X21481   1.822   2.139   8.037 -0.8937 -1.1394  1.4452
  186SLPC  H15Y21482   1.971   2.073   7.954  1.1598  2.7235  1.5698
  186SLPC  C31621483   1.976   2.058   8.163  0.3274  0.2998  0.0652
  186SLPC  H16X21484   2.040   1.969   8.148 -0.1900  0.1405 -1.3413
  186SLPC  H16Y21485   1.909   2.051   8.252  1.9957 -1.2919  1.2516
  186SLPC  C31721486   2.062   2.180   8.188 -0.1623 -0.9045 -0.5803
  186SLPC  H17X21487   2.144   2.177   8.112 -1.6536 -1.2845 -2.2400
  186SLPC  H17Y21488   2.107   2.153   8.286 -0.0519 -1.3250 -0.7445
  186SLPC  C31821489   1.979   2.310   8.207 -0.8080  0.2587  0.8801
  186SLPC  H18X21490   2.042   2.389   8.254 -2.4849  1.6449  0.9308
  186SLPC  H18Y21491   1.891   2.299   8.274  0.4798  0.4414  2.6641
  186SLPC  H18Z21492   1.951   2.345   8.105 -0.0661  0.2852  0.6791
  187SLPC     N21493   1.831   6.139   6.252  0.1256  0.5726 -0.4013
  187SLPC   C1321494   1.822   6.187   6.113  0.4379  0.8095 -0.0689
  187SLPC  H13A21495   1.868   6.285   6.107  1.4100  0.5003  1.7014
  187SLPC  H13B21496   1.882   6.134   6.040 -1.0156 -0.5387 -0.3345
  187SLPC  H13C21497   1.722   6.182   6.072  1.2592 -0.9113 -2.0924
  187SLPC   C1421498   1.978   6.136   6.279  0.0640 -1.3584 -0.1739
  187SLPC  H14A21499   2.018   6.234   6.298  1.2215 -2.0343  1.1297
  187SLPC  H14B21500   1.992   6.081   6.371  2.8917  1.1591  1.0503
  187SLPC  H14C21501   2.026   6.088   6.196 -0.3761 -2.5442  0.2301
  187SLPC   C1521502   1.779   6.001   6.275  0.6628  0.0326 -0.0656
  187SLPC  H15A21503   1.773   5.978   6.380 -2.8794 -3.4391 -0.7952
  187SLPC  H15B21504   1.683   5.998   6.224 -0.3554 -0.3728  1.8046
  187SLPC  H15C21505   1.844   5.920   6.246 -2.1421 -1.3310 -3.2340
  187SLPC   C1221506   1.760   6.240   6.340  0.0848  0.2818  0.7704
  187SLPC  H12A21507   1.655   6.241   6.315 -0.1048 -1.8562  1.2951
  187SLPC  H12B21508   1.800   6.338   6.319 -0.0126  0.7253  2.4980
  187SLPC   C1121509   1.769   6.225   6.497  0.5787 -0.0266  0.5517
  187SLPC  H11A21510   1.744   6.119   6.521  0.6656  0.1896  1.6313
  187SLPC  H11B21511   1.693   6.284   6.551 -0.3883 -1.1946  0.5296
  187SLPC     P21512   1.954   6.394   6.562  0.0151  0.0646  0.1285
  187SLPC   O1321513   2.076   6.416   6.485 -0.2592 -0.3212  0.1289
  187SLPC   O1421514   1.843   6.492   6.536  0.2264  0.0079 -0.2863
  187SLPC   O1221515   1.905   6.251   6.534  0.3775  0.4242  0.1017
  187SLPC   O1121516   1.988   6.405   6.714  0.4423  1.0168 -0.6103
  187SLPC    C121517   2.001   6.292   6.806  0.1075  0.4220  0.0260
  187SLPC    HA21518   1.966   6.199   6.757  1.9502 -0.4319  0.2311
  187SLPC    HB21519   2.108   6.279   6.836 -0.1210  0.2120  0.7814
  187SLPC    C221520   1.910   6.320   6.926 -0.2117 -0.1378 -0.2712
  187SLPC    HS21521   1.922   6.229   6.990  1.7346  1.0136  1.1381
  187SLPC   O2121522   1.779   6.360   6.892  0.2816 -0.3969 -0.0633
  187SLPC   C2121523   1.697   6.263   6.883 -0.5328 -0.3396 -0.2680
  187SLPC   O2221524   1.724   6.144   6.902 -0.7505  0.4618 -0.1742
  187SLPC   C2221525   1.553   6.319   6.853  0.3959  0.0805 -0.7675
  187SLPC   H2R21526   1.538   6.395   6.933 -0.8311 -0.5427 -0.3815
  187SLPC   H2S21527   1.548   6.384   6.763 -0.1093  1.4155  0.1825
  187SLPC    C321528   1.963   6.428   7.017  0.3535  0.2601 -0.5062
  187SLPC    HX21529   1.975   6.515   6.949  0.2853  0.2026 -0.5914
  187SLPC    HY21530   2.062   6.405   7.062 -1.0132 -1.8552  1.6456
  187SLPC   O3121531   1.871   6.446   7.123 -0.3098  0.3196  0.1801
  187SLPC   C3121532   1.877   6.358   7.229  0.1006 -0.4185 -0.2208
  187SLPC   O3221533   1.976   6.295   7.257 -0.8081 -0.1453 -0.1947
  187SLPC   C3221534   1.735   6.331   7.281  0.0635  0.3667  0.0211
  187SLPC   H2X21535   1.695   6.242   7.227  0.0759  0.1518  0.3615
  187SLPC   H2Y21536   1.689   6.425   7.245  1.6552  0.3498 -2.1945
  187SLPC   C2321537   1.429   6.225   6.880 -0.5437  0.2749  0.2614
  187SLPC   H3R21538   1.448   6.126   6.832  2.8008  1.1866 -0.5394
  187SLPC   H3S21539   1.338   6.260   6.826 -0.3106 -0.9470 -0.9818
  187SLPC   C2421540   1.386   6.195   7.022  0.4610 -0.3726 -0.4982
  187SLPC   H4R21541   1.469   6.173   7.092  0.9195  0.8339 -0.6432
  187SLPC   H4S21542   1.323   6.104   7.025  2.3843 -1.7600 -0.8913
  187SLPC   C2521543   1.316   6.320   7.090  0.1342  0.0984 -0.3006
  187SLPC   H5R21544   1.221   6.323   7.032  0.6656  4.0825 -1.2716
  187SLPC   H5S21545   1.376   6.411   7.065  1.4411  0.2977  3.0987
  187SLPC   C2621546   1.303   6.299   7.237  0.2131  0.5461 -0.1509
  187SLPC   H6R21547   1.406   6.314   7.276  1.2601 -2.6111 -1.3373
  187SLPC   H6S21548   1.273   6.193   7.254 -2.3213  1.4682  1.6759
  187SLPC   C2721549   1.197   6.380   7.307 -0.0905  0.3941  0.3229
  187SLPC   H7R21550   1.179   6.340   7.409 -1.0153  1.3253  0.5390
  187SLPC   H7S21551   1.101   6.368   7.252 -1.9986  3.3848  2.7014
  187SLPC   C2821552   1.222   6.533   7.317 -0.9092 -0.7921 -0.7503
  187SLPC   H8R21553   1.120   6.576   7.325 -0.5041 -0.0374  0.7898
  187SLPC   H8S21554   1.259   6.572   7.220  0.0968 -1.7956 -0.7912
  187SLPC   C2921555   1.310   6.566   7.441 -0.6911 -0.5993  0.0498
  187SLPC   H9R21556   1.419   6.564   7.430 -0.3512  1.8583  2.0289
  187SLPC  C21021557   1.263   6.583   7.570  0.0077  0.0530 -0.4946
  187SLPC  H10R21558   1.326   6.635   7.643 -0.5920  2.9379 -1.8831
  187SLPC  C21121559   1.117   6.572   7.616 -0.1528  0.7563  0.0992
  187SLPC  H11R21560   1.110   6.499   7.700 -1.5847 -1.1126 -1.5465
  187SLPC  H11S21561   1.062   6.512   7.540  1.2945 -1.9338  1.0306
  187SLPC  C21221562   1.048   6.704   7.647 -0.0038  0.5333  0.3291
  187SLPC  H12R21563   1.061   6.788   7.577 -0.9904  0.7529  0.3840
  187SLPC  C21321564   0.992   6.728   7.761  0.4429 -0.1332 -0.3531
  187SLPC  H13R21565   0.943   6.826   7.774 -0.5247 -0.6690  0.1592
  187SLPC  C21421566   0.975   6.643   7.874  0.4624  0.4731  0.3969
  187SLPC  H14R21567   0.945   6.539   7.850  1.0259  0.3050  0.4020
  187SLPC  H14S21568   0.884   6.665   7.935 -0.0045  0.3280 -0.2314
  187SLPC  C21521569   1.095   6.653   7.966 -0.0488  0.5541 -0.7734
  187SLPC  H15R21570   1.150   6.744   7.936 -1.3267  2.2537  1.6364
  187SLPC  H15S21571   1.160   6.563   7.962 -0.0624  0.5521 -0.9428
  187SLPC  C21621572   1.050   6.687   8.117  0.0247 -0.1165  0.1156
  187SLPC  H16R21573   1.045   6.589   8.169  0.2223  2.4208  5.7433
  187SLPC  H16S21574   0.944   6.720   8.120 -0.6598 -2.2289  1.9550
  187SLPC  C21721575   1.140   6.785   8.188 -0.8293  0.0076 -0.8680
  187SLPC  H17R21576   1.141   6.878   8.127 -0.9589  1.5724  1.4221
  187SLPC  H17S21577   1.239   6.736   8.175 -1.6014 -0.9206 -4.7413
  187SLPC  C21821578   1.112   6.810   8.336 -0.2802  0.1323 -0.2592
  187SLPC  H18R21579   1.201   6.865   8.372 -0.8128  0.2105  0.9866
  187SLPC  H18S21580   1.108   6.720   8.400  1.8118  1.6861  2.2409
  187SLPC  H18T21581   1.030   6.882   8.357  1.5191  1.5033  2.6221
  187SLPC   C3321582   1.742   6.303   7.430 -0.0578 -0.5508  0.1565
  187SLPC   H3X21583   1.802   6.380   7.483  0.4973 -0.6799 -0.2711
  187SLPC   H3Y21584   1.791   6.204   7.444 -3.3168 -2.4347 -0.6988
  187SLPC   C3421585   1.599   6.290   7.492  0.0607  0.1435 -0.0154
  187SLPC   H4X21586   1.554   6.201   7.443 -2.0083  2.4099 -2.6051
  187SLPC   H4Y21587   1.535   6.372   7.451  0.0757 -0.1898 -0.7143
  187SLPC   C3521588   1.587   6.259   7.648 -0.3623 -0.7706 -0.4515
  187SLPC   H5X21589   1.628   6.343   7.709  0.9417 -1.1997 -0.6993
  187SLPC   H5Y21590   1.646   6.171   7.681  1.4003  0.3742 -0.3672
  187SLPC   C3621591   1.443   6.262   7.699 -0.0555 -0.1772  0.6500
  187SLPC   H6X21592   1.395   6.165   7.676 -1.0230  0.1213  1.3917
  187SLPC   H6Y21593   1.380   6.340   7.652  0.4154  0.3932  0.9585
  187SLPC   C3721594   1.438   6.295   7.854  0.2903  0.2340  0.0705
  187SLPC   H7X21595   1.523   6.247   7.906  1.1727  1.6389  0.0014
  187SLPC   H7Y21596   1.449   6.406   7.855 -0.6865  0.3463 -0.2589
  187SLPC   C3821597   1.301   6.263   7.915 -0.8540  0.1885 -0.1793
  187SLPC   H8X21598   1.284   6.153   7.921 -0.5132  0.0966 -0.8597
  187SLPC   H8Y21599   1.220   6.311   7.856 -0.9273 -0.6628 -0.7839
  187SLPC   C3921600   1.284   6.322   8.060 -0.6453  0.7672 -0.3373
  187SLPC   H9X21601   1.176   6.319   8.082 -1.1127 -2.0678 -2.5411
  187SLPC   H9Y21602   1.329   6.422   8.042  2.8334 -0.5192  0.2643
  187SLPC  C31021603   1.369   6.250   8.161 -0.2669  0.3310  0.2201
  187SLPC  H10X21604   1.476   6.252   8.129 -0.1909  1.1486  0.4882
  187SLPC  H10Y21605   1.347   6.143   8.177  2.6329 -0.3659  0.1928
  187SLPC  C31121606   1.362   6.307   8.303 -0.4118  0.0311  0.2431
  187SLPC  H11X21607   1.258   6.330   8.336 -0.4300  2.6512 -1.3683
  187SLPC  H11Y21608   1.396   6.412   8.293  0.3482 -0.1206  1.1020
  187SLPC  C31221609   1.445   6.232   8.412  0.3023  0.2569 -0.3675
  187SLPC  H12X21610   1.465   6.295   8.502 -0.0155  2.4288 -1.7489
  187SLPC  H12Y21611   1.546   6.220   8.367  0.1212  1.4235 -1.0992
  187SLPC  C31321612   1.390   6.093   8.454  0.2365  0.1570 -0.1709
  187SLPC  H13X21613   1.453   6.053   8.535  1.4698 -0.2630 -1.2918
  187SLPC  H13Y21614   1.384   6.020   8.371 -2.6918 -1.7664  1.5632
  187SLPC  C31421615   1.249   6.111   8.518  0.1634  0.4580  0.4975
  187SLPC  H14X21616   1.174   6.151   8.447  0.0594  0.6439  0.7121
  187SLPC  H14Y21617   1.261   6.190   8.595 -1.4339 -1.5362  2.9917
  187SLPC  C31521618   1.194   5.980   8.583 -0.1734 -0.2829  0.4773
  187SLPC  H15X21619   1.282   5.955   8.647  1.1660  2.6600 -0.0232
  187SLPC  H15Y21620   1.187   5.898   8.508 -1.5845  2.3737 -2.5061
  187SLPC  C31621621   1.059   5.995   8.652  1.0234 -0.3989 -0.4240
  187SLPC  H16X21622   1.045   5.896   8.702  1.8202 -0.2028  0.1992
  187SLPC  H16Y21623   0.971   6.007   8.585  0.0141 -1.2208  0.6913
  187SLPC  C31721624   1.071   6.102   8.755  0.0872 -0.3484  0.7844
  187SLPC  H17X21625   1.028   6.197   8.716  3.0776  0.7703 -0.0643
  187SLPC  H17Y21626   1.179   6.107   8.783  1.1929 -1.4106 -2.8094
  187SLPC  C31821627   0.989   6.064   8.883 -0.4450 -0.3061 -0.4767
  187SLPC  H18X21628   1.007   5.961   8.919  0.6506  0.0735  0.1151
  187SLPC  H18Y21629   0.879   6.070   8.866 -0.3787 -0.5066 -1.0187
  187SLPC  H18Z21630   1.000   6.142   8.961 -0.3790  0.2520 -1.0279
  188SLPC     N21631   2.817   0.135   6.130 -0.0513 -0.0369  0.3976
  188SLPC   C1321632   2.741   0.198   6.243 -0.7357 -0.3086  0.0014
  188SLPC  H13A21633   2.667   0.265   6.202  0.6572  1.9760  1.0055
  188SLPC  H13B21634   2.684   0.128   6.301 -0.9474 -1.5300 -1.6212
  188SLPC  H13C21635   2.805   0.258   6.307 -1.4364  1.9161 -1.2760
  188SLPC   C1421636   2.880   0.248   6.051 -0.0197 -1.0379  0.2116
  188SLPC  H14A21637   2.957   0.301   6.106 -1.7209 -0.0505  1.7523
  188SLPC  H14B21638   2.915   0.213   5.955  0.0174 -0.2618 -0.0683
  188SLPC  H14C21639   2.797   0.317   6.050  0.4295 -0.4652  1.0146
  188SLPC   C1521640   2.723   0.062   6.050 -0.0779  0.1972  0.7669
  188SLPC  H15A21641   2.698  -0.030   6.101  2.2455 -1.4786 -0.9342
  188SLPC  H15B21642   2.631   0.115   6.033 -1.0565 -0.6980  2.8550
  188SLPC  H15C21643   2.765   0.042   5.953 -1.9412 -0.0675 -0.0377
  188SLPC   C1221644   2.921   0.037   6.191 -0.2532  0.5288 -0.2159
  188SLPC  H12A21645   2.961  -0.021   6.109  0.1340  2.5698 -1.5458
  188SLPC  H12B21646   2.877  -0.033   6.261 -2.2797  3.4841  1.6656
  188SLPC   C1121647   3.045   0.093   6.268  1.0506  0.5724  0.5146
  188SLPC  H11A21648   3.103   0.162   6.203  2.8178 -0.0959  1.3052
  188SLPC  H11B21649   3.118   0.010   6.282 -0.8868 -1.2766  0.2253
  188SLPC     P21650   2.939   0.080   6.506 -0.2410  0.0795  0.3055
  188SLPC   O1321651   2.825   0.161   6.557  0.2289  0.3123  0.1193
  188SLPC   O1421652   2.906  -0.063   6.478 -0.4283  1.1437  0.5247
  188SLPC   O1221653   3.001   0.163   6.385  0.5127  0.3454  0.9241
  188SLPC   O1121654   3.057   0.085   6.613  0.1963 -0.7195  0.0915
  188SLPC    C121655   3.150   0.193   6.610 -0.7392  0.4921 -0.5404
  188SLPC    HA21656   3.225   0.172   6.531  0.5087  0.6908  0.5400
  188SLPC    HB21657   3.117   0.293   6.575  0.7984  0.3090 -2.6535
  188SLPC    C221658   3.205   0.207   6.766 -0.0435  0.7154  0.3718
  188SLPC    HS21659   3.279   0.290   6.763 -0.4568  1.0618 -0.4174
  188SLPC   O2121660   3.263   0.084   6.812  1.4983  0.6077  0.4428
  188SLPC   C2121661   3.377   0.048   6.748 -0.6424 -0.0091 -0.1984
  188SLPC   O2221662   3.425   0.119   6.663 -0.5525  0.0095  0.6475
  188SLPC   C2221663   3.429  -0.082   6.800 -0.4432  0.0948 -0.4074
  188SLPC   H2R21664   3.368  -0.167   6.763  1.9957 -2.4996  1.1327
  188SLPC   H2S21665   3.527  -0.104   6.753 -0.3632  0.2058 -0.2931
  188SLPC    C321666   3.097   0.248   6.861  0.4807 -0.1354 -0.3806
  188SLPC    HX21667   3.022   0.167   6.867 -0.5704  0.6452 -2.2938
  188SLPC    HY21668   3.033   0.334   6.832 -1.4159  0.3009  4.1471
  188SLPC   O3121669   3.151   0.275   6.992 -0.4936 -0.2231  0.1632
  188SLPC   C3121670   3.193   0.398   7.001 -0.3821  0.1995  0.2727
  188SLPC   O3221671   3.198   0.482   6.917  0.4297  0.2190  0.5978
  188SLPC   C3221672   3.242   0.422   7.142 -0.4791  0.1198  0.0600
  188SLPC   H2X21673   3.245   0.531   7.163  2.0662 -0.2355  2.0840
  188SLPC   H2Y21674   3.346   0.382   7.148 -1.0873 -1.3044  2.4453
  188SLPC   C2321675   3.446  -0.074   6.957  0.4341  0.4450  0.0217
  188SLPC   H3R21676   3.463  -0.174   7.001 -1.2441  0.0767 -0.0977
  188SLPC   H3S21677   3.354  -0.033   7.004 -0.6807 -1.6589 -0.2162
  188SLPC   C2421678   3.551   0.024   7.010  0.2891  0.5528  0.0773
  188SLPC   H4R21679   3.650  -0.017   6.981  0.0837 -0.2995  0.5611
  188SLPC   H4S21680   3.539   0.016   7.120  1.1122 -1.9909  0.0359
  188SLPC   C2521681   3.557   0.169   6.955 -0.1401 -0.2574 -0.6425
  188SLPC   H5R21682   3.459   0.221   6.951  1.2972  2.5992 -1.9624
  188SLPC   H5S21683   3.597   0.157   6.853 -1.3296 -0.8767 -1.0501
  188SLPC   C2621684   3.648   0.266   7.030  0.1342  0.5018  0.2047
  188SLPC   H6R21685   3.751   0.225   7.042  0.9601  2.3852 -0.0240
  188SLPC   H6S21686   3.609   0.283   7.133  0.8787 -1.7300  0.9068
  188SLPC   C2721687   3.650   0.407   6.963 -0.3935  0.0374  0.0547
  188SLPC   H7R21688   3.560   0.458   7.001 -2.2976 -1.7086 -1.8613
  188SLPC   H7S21689   3.639   0.386   6.855  1.5348 -1.7014  0.1090
  188SLPC   C2821690   3.774   0.493   7.003  0.6511 -0.4988  0.0002
  188SLPC   H8R21691   3.776   0.516   7.111  0.7372 -0.4511 -0.0113
  188SLPC   H8S21692   3.766   0.588   6.944  1.1080 -0.6678 -0.3397
  188SLPC   C2921693   3.905   0.434   6.960 -0.1516 -0.4741 -0.2143
  188SLPC   H9R21694   3.923   0.437   6.851  2.0350 -0.0798  0.1090
  188SLPC  C21021695   3.997   0.379   7.040  0.2867 -0.8729 -0.4240
  188SLPC  H10R21696   4.078   0.324   6.989  1.7891  2.3008 -1.7941
  188SLPC  C21121697   3.993   0.370   7.195 -0.7528  0.3561 -0.6133
  188SLPC  H11R21698   3.907   0.423   7.242  0.3095  0.0000  1.9058
  188SLPC  H11S21699   4.078   0.435   7.223 -0.3321  0.0511 -1.1826
  188SLPC  C21221700   4.001   0.228   7.248 -0.0180  0.1733  0.2688
  188SLPC  H12R21701   3.907   0.174   7.229 -0.4915  1.5443 -1.7036
  188SLPC  C21321702   4.105   0.169   7.307  0.2644 -0.6899 -0.0309
  188SLPC  H13R21703   4.093   0.067   7.346  2.1657 -2.4086 -3.4986
  188SLPC  C21421704   4.234   0.234   7.344 -0.1263  0.1184 -0.3694
  188SLPC  H14R21705   4.288   0.270   7.254 -0.0021  2.0095  0.4176
  188SLPC  H14S21706   4.300   0.157   7.390  3.4661  1.3785 -2.9831
  188SLPC  C21521707   4.225   0.330   7.461  0.1525  0.2589 -0.5331
  188SLPC  H15R21708   4.172   0.417   7.415 -2.5136 -0.7957  0.3776
  188SLPC  H15S21709   4.323   0.367   7.498 -0.3621  1.4410 -0.2934
  188SLPC  C21621710   4.137   0.289   7.579 -0.6061  0.2556 -0.1603
  188SLPC  H16R21711   4.028   0.292   7.554 -0.4173 -1.3246 -1.3371
  188SLPC  H16S21712   4.164   0.366   7.654  3.6781 -1.0590 -0.1346
  188SLPC  C21721713   4.182   0.153   7.639  0.3686  0.4503  0.1425
  188SLPC  H17R21714   4.276   0.156   7.699  0.8497  3.3478 -0.6138
  188SLPC  H17S21715   4.184   0.072   7.562  1.6390 -0.0995  0.7104
  188SLPC  C21821716   4.076   0.102   7.733  0.5766 -0.2909  0.1500
  188SLPC  H18R21717   4.111   0.028   7.809 -1.1739 -1.1071  0.2212
  188SLPC  H18S21718   3.990   0.053   7.682 -1.1241  0.8044  1.7738
  188SLPC  H18T21719   4.026   0.180   7.794 -1.4056 -1.5295  0.2174
  188SLPC   C3321720   3.157   0.354   7.251  0.1065  0.1920 -0.1479
  188SLPC   H3X21721   3.131   0.251   7.217 -0.2198  0.2738 -0.1509
  188SLPC   H3Y21722   3.064   0.415   7.260 -1.7632 -2.4461 -0.4159
  188SLPC   C3421723   3.226   0.335   7.386 -0.4688  0.6104  0.9353
  188SLPC   H4X21724   3.253   0.440   7.408 -0.0282  0.5761  0.5665
  188SLPC   H4Y21725   3.313   0.266   7.383  0.2196  1.4705 -2.2812
  188SLPC   C3521726   3.126   0.283   7.493 -0.8134  0.7666  0.0851
  188SLPC   H5X21727   3.101   0.180   7.460  1.4247  0.7121 -1.6906
  188SLPC   H5Y21728   3.032   0.342   7.488 -2.4266 -1.6658  0.1073
  188SLPC   C3621729   3.183   0.274   7.636  0.1865 -0.4328 -0.3544
  188SLPC   H6X21730   3.281   0.221   7.639 -1.0967 -2.9389 -0.4167
  188SLPC   H6Y21731   3.109   0.223   7.700 -0.5006  0.7526 -0.1678
  188SLPC   C3721732   3.206   0.413   7.694 -0.0074  0.4986 -0.9457
  188SLPC   H7X21733   3.118   0.480   7.691 -0.9600 -0.7036 -0.8810
  188SLPC   H7Y21734   3.289   0.461   7.639 -0.0373  1.2846 -0.3186
  188SLPC   C3821735   3.252   0.395   7.835  0.0157 -0.6396 -0.6554
  188SLPC   H8X21736   3.325   0.312   7.847 -1.3516 -1.7274  0.4436
  188SLPC   H8Y21737   3.161   0.364   7.890 -0.9366 -1.0576 -2.4108
  188SLPC   C3921738   3.296   0.526   7.906 -0.0768 -0.4955 -0.4398
  188SLPC   H9X21739   3.202   0.583   7.926  0.6603  0.8461 -0.7141
  188SLPC   H9Y21740   3.363   0.580   7.836  0.1428 -1.1074 -0.7082
  188SLPC  C31021741   3.374   0.504   8.038 -0.3657 -1.2217  0.2302
  188SLPC  H10X21742   3.441   0.416   8.027  1.4464  0.2942 -1.8823
  188SLPC  H10Y21743   3.295   0.477   8.111 -0.7735  1.8543  1.0614
  188SLPC  C31121744   3.447   0.634   8.085  0.0216 -0.3323  0.3128
  188SLPC  H11X21745   3.370   0.712   8.098  3.1028  3.3336 -1.5012
  188SLPC  H11Y21746   3.505   0.674   8.000 -0.5938 -0.2984 -0.0937
  188SLPC  C31221747   3.527   0.622   8.215 -0.1883 -0.5197 -0.2914
  188SLPC  H12X21748   3.613   0.554   8.202  0.1804 -0.3216  0.9374
  188SLPC  H12Y21749   3.466   0.588   8.302 -1.4623  2.7426  0.2376
  188SLPC  C31321750   3.584   0.759   8.248  0.5176 -0.1685 -0.5453
  188SLPC  H13X21751   3.495   0.825   8.259  0.5134 -0.4047  1.1429
  188SLPC  H13Y21752   3.623   0.807   8.155  0.4861  1.0532  0.0479
  188SLPC  C31421753   3.674   0.777   8.378 -0.1936  0.4037  0.2241
  188SLPC  H14X21754   3.733   0.683   8.376 -1.4942 -0.4252 -0.8174
  188SLPC  H14Y21755   3.619   0.777   8.474 -1.6423  0.8512 -0.5802
  188SLPC  C31521756   3.754   0.909   8.370  0.0427 -0.7443  0.0433
  188SLPC  H15X21757   3.689   0.993   8.336 -1.6923 -1.5582  1.1976
  188SLPC  H15Y21758   3.835   0.910   8.294  1.5262  0.0755  1.5579
  188SLPC  C31621759   3.829   0.956   8.492 -0.0803 -1.0123  0.1987
  188SLPC  H16X21760   3.756   0.991   8.569 -1.8663 -0.9157 -1.4509
  188SLPC  H16Y21761   3.898   1.042   8.476  1.8997 -1.9977  2.7103
  188SLPC  C31721762   3.913   0.844   8.565  0.3745 -1.0009  0.1776
  188SLPC  H17X21763   3.952   0.766   8.497  0.6628 -0.5126 -0.2278
  188SLPC  H17Y21764   3.836   0.790   8.624 -1.3349  0.9174 -0.1517
  188SLPC  C31821765   4.033   0.902   8.639 -0.2266 -0.6484  0.1063
  188SLPC  H18X21766   4.089   0.970   8.571 -0.6426 -0.2778  0.1313
  188SLPC  H18Y21767   4.098   0.817   8.670 -0.9563 -1.1524  0.2756
  188SLPC  H18Z21768   4.010   0.960   8.730 -2.5862  1.5271 -1.7082
  189SLPC     N21769   5.952   2.162   6.050 -0.0165 -0.2526 -0.4817
  189SLPC   C1321770   5.945   2.164   5.906  0.4446  0.3424  0.3516
  189SLPC  H13A21771   6.043   2.163   5.861  0.6571  0.3598  0.8180
  189SLPC  H13B21772   5.894   2.076   5.869  0.6912  0.0756  0.6462
  189SLPC  H13C21773   5.890   2.248   5.865  2.4485  1.5894  0.0778
  189SLPC   C1421774   6.019   2.289   6.087  0.0779 -0.4113  0.0893
  189SLPC  H14A21775   6.119   2.291   6.046  0.4174 -0.8906  0.8749
  189SLPC  H14B21776   5.967   2.376   6.050 -1.7617 -1.2434  0.6253
  189SLPC  H14C21777   6.038   2.297   6.193  0.1081  0.3742  0.0308
  189SLPC   C1521778   6.041   2.047   6.092  1.0274 -0.4795 -0.6531
  189SLPC  H15A21779   6.014   1.956   6.041 -0.3925  0.4053 -1.5253
  189SLPC  H15B21780   6.136   2.060   6.042 -0.1287  1.1072 -2.5932
  189SLPC  H15C21781   6.046   2.033   6.199  0.6865  1.7422 -0.2943
  189SLPC   C1221782   5.816   2.167   6.117  0.3377  0.1553 -0.6182
  189SLPC  H12A21783   5.770   2.077   6.078  0.1511 -0.4874  1.0238
  189SLPC  H12B21784   5.756   2.248   6.078 -2.2549 -1.0361  0.5935
  189SLPC   C1121785   5.810   2.161   6.271  0.2983  0.3091 -0.0606
  189SLPC  H11A21786   5.702   2.169   6.299  0.3260 -1.0570  0.5009
  189SLPC  H11B21787   5.843   2.255   6.319 -2.4881  2.5377 -2.1309
  189SLPC     P21788   5.834   1.900   6.318 -0.0637  0.1571 -0.3444
  189SLPC   O1321789   5.803   1.856   6.179 -0.5494 -0.0418 -0.3468
  189SLPC   O1421790   5.942   1.827   6.396 -0.6010  0.3046 -0.6477
  189SLPC   O1221791   5.880   2.046   6.330  0.3678  0.4682  0.3355
  189SLPC   O1121792   5.691   1.889   6.397 -0.2760 -0.7586  0.2630
  189SLPC    C121793   5.692   1.926   6.535  0.1911  0.1606  0.4861
  189SLPC    HA21794   5.783   1.891   6.587  1.0511  0.3177 -0.8751
  189SLPC    HB21795   5.682   2.037   6.541  0.4037  0.2820 -1.1717
  189SLPC    C221796   5.573   1.867   6.605  0.0413  0.4103 -0.0799
  189SLPC    HS21797   5.550   1.939   6.686 -2.6954  0.8610 -1.1436
  189SLPC   O2121798   5.606   1.735   6.669 -0.1983  0.2276  0.2692
  189SLPC   C2121799   5.673   1.742   6.781 -0.1260  0.2767 -0.1092
  189SLPC   O2221800   5.706   1.839   6.849 -0.0323 -0.1083 -0.6357
  189SLPC   C2221801   5.697   1.603   6.838 -0.1355 -0.5964  0.1043
  189SLPC   H2R21802   5.683   1.524   6.761  0.9826 -0.6743 -0.0334
  189SLPC   H2S21803   5.807   1.603   6.854 -0.3236 -0.0825  1.5154
  189SLPC    C321804   5.444   1.861   6.526 -0.4282 -0.5513  0.0346
  189SLPC    HX21805   5.464   1.816   6.426 -2.3480 -1.1456 -0.1269
  189SLPC    HY21806   5.414   1.962   6.492  1.3141  0.5230  1.4799
  189SLPC   O3121807   5.348   1.785   6.597  0.5338 -0.0102 -0.0472
  189SLPC   C3121808   5.242   1.856   6.632 -0.0220  0.2917 -0.3886
  189SLPC   O3221809   5.213   1.973   6.606 -0.6034  0.2026 -0.4098
  189SLPC   C3221810   5.146   1.751   6.686  0.5853 -0.6592 -0.6774
  189SLPC   H2X21811   5.130   1.662   6.622  1.0183 -0.7690 -0.6353
  189SLPC   H2Y21812   5.054   1.813   6.683  1.1583  0.3951  1.6733
  189SLPC   C2321813   5.629   1.578   6.973 -0.3824 -0.2225 -0.5957
  189SLPC   H3R21814   5.520   1.600   6.973 -0.3363  0.0960  0.8327
  189SLPC   H3S21815   5.670   1.653   7.043 -5.0279  1.4066  0.7288
  189SLPC   C2421816   5.645   1.436   7.035 -0.0096 -0.0478 -0.7299
  189SLPC   H4R21817   5.749   1.404   7.058 -0.4550 -0.8781  0.1642
  189SLPC   H4S21818   5.601   1.361   6.966 -3.0054  0.0506  0.9183
  189SLPC   C2521819   5.582   1.413   7.168 -0.1586  0.3170 -0.0054
  189SLPC   H5R21820   5.594   1.303   7.184  1.2265  0.2656 -1.2078
  189SLPC   H5S21821   5.472   1.430   7.170 -0.3594 -0.6281 -1.5286
  189SLPC   C2621822   5.639   1.490   7.289  0.4145 -0.6539  0.1150
  189SLPC   H6R21823   5.625   1.598   7.268 -2.7062 -1.0399 -0.3371
  189SLPC   H6S21824   5.748   1.472   7.299  0.5717  0.5693  0.8717
  189SLPC   C2721825   5.563   1.452   7.414  0.2611  0.6525 -0.5700
  189SLPC   H7R21826   5.580   1.344   7.429 -0.2441  0.1614 -3.0000
  189SLPC   H7S21827   5.452   1.463   7.412  0.2403  0.5985  0.1225
  189SLPC   C2821828   5.620   1.517   7.543  0.3333 -0.4684  0.0630
  189SLPC   H8R21829   5.632   1.626   7.523 -0.3712 -0.4716 -0.4485
  189SLPC   H8S21830   5.724   1.481   7.557  0.3868 -0.0071  0.8847
  189SLPC   C2921831   5.534   1.484   7.668  0.1360  0.6080 -0.1173
  189SLPC   H9R21832   5.453   1.413   7.648  2.1932 -1.8614 -0.2479
  189SLPC  C21021833   5.543   1.537   7.796 -1.0352  0.1737  0.4970
  189SLPC  H10R21834   5.494   1.481   7.877 -0.1867  1.5522  2.0197
  189SLPC  C21121835   5.646   1.635   7.849  0.8499 -0.5085 -0.0505
  189SLPC  H11R21836   5.676   1.715   7.778  0.6839 -0.8944 -0.5565
  189SLPC  H11S21837   5.732   1.575   7.885  0.5057 -1.4122 -0.7158
  189SLPC  C21221838   5.572   1.702   7.958  0.2636  0.0718 -0.4738
  189SLPC  H12R21839   5.465   1.682   7.976  0.9552 -1.6144  2.3373
  189SLPC  C21321840   5.633   1.787   8.040  0.2834  0.4022  0.0902
  189SLPC  H13R21841   5.570   1.838   8.115  0.1504  0.1354  0.1654
  189SLPC  C21421842   5.778   1.819   8.032 -0.5687 -0.0719 -0.1838
  189SLPC  H14R21843   5.837   1.770   7.952 -2.9329 -2.3727 -0.6654
  189SLPC  H14S21844   5.819   1.793   8.132 -4.4253  1.5311  2.0812
  189SLPC  C21521845   5.802   1.969   8.024  0.0695  0.0631  0.5392
  189SLPC  H15R21846   5.703   2.016   8.043  0.3337  0.7604  0.2314
  189SLPC  H15S21847   5.812   2.000   7.918  0.6538 -0.5177  0.4162
  189SLPC  C21621848   5.918   2.036   8.107  0.1027  0.4247  0.2230
  189SLPC  H16R21849   5.913   2.147   8.109 -0.9247  0.4043 -0.3936
  189SLPC  H16S21850   6.012   1.996   8.064 -0.2076  2.1886 -2.2829
  189SLPC  C21721851   5.919   2.005   8.256  0.6838 -0.2046 -0.3705
  189SLPC  H17R21852   5.929   1.895   8.268 -0.2681 -0.1222  1.6601
  189SLPC  H17S21853   5.830   2.053   8.303  0.5296 -1.3904  0.6247
  189SLPC  C21821854   6.051   2.070   8.316 -0.1649 -0.6434  0.2257
  189SLPC  H18R21855   6.064   2.176   8.286 -0.1501 -0.6980  0.0327
  189SLPC  H18S21856   6.149   2.020   8.297  0.9856  1.9286 -1.0137
  189SLPC  H18T21857   6.032   2.079   8.425 -1.0065  1.4052 -0.0528
  189SLPC   C3321858   5.166   1.701   6.831  0.6248  0.3110 -0.6075
  189SLPC   H3X21859   5.208   1.783   6.892 -2.0799 -0.1188  2.0442
  189SLPC   H3Y21860   5.234   1.613   6.832  0.0829 -0.1153  0.0616
  189SLPC   C3421861   5.033   1.648   6.872  0.8647 -0.1269 -0.6565
  189SLPC   H4X21862   4.993   1.565   6.810 -2.4250  1.7115 -1.2625
  189SLPC   H4Y21863   4.960   1.732   6.871  2.0848  0.9554 -1.2599
  189SLPC   C3521864   5.026   1.608   7.019 -0.0935 -0.8082  0.4261
  189SLPC   H5X21865   4.920   1.605   7.053 -0.7558 -1.7249 -1.5704
  189SLPC   H5Y21866   5.074   1.689   7.079 -1.7926  0.6415 -0.0838
  189SLPC   C3621867   5.084   1.469   7.051 -0.3491  0.0629  0.0665
  189SLPC   H6X21868   5.168   1.440   6.985 -0.0686  0.4376  0.2594
  189SLPC   H6Y21869   4.998   1.398   7.051 -1.1598  1.0231 -0.1895
  189SLPC   C3721870   5.159   1.459   7.189 -0.4387 -0.0451 -0.9115
  189SLPC   H7X21871   5.238   1.537   7.192 -1.5818  1.1129  0.0223
  189SLPC   H7Y21872   5.211   1.360   7.187  0.0307  0.2012 -2.1172
  189SLPC   C3821873   5.072   1.487   7.314 -0.2721  0.3168 -0.6540
  189SLPC   H8X21874   4.981   1.423   7.311  1.5577 -2.4728 -0.2674
  189SLPC   H8Y21875   5.028   1.589   7.303 -2.9639 -0.7267 -0.2397
  189SLPC   C3921876   5.145   1.453   7.443 -0.0929 -0.2520 -0.9977
  189SLPC   H9X21877   5.241   1.508   7.452  0.0314 -0.5754 -0.2395
  189SLPC   H9Y21878   5.177   1.346   7.440  3.6761  0.6425  0.7117
  189SLPC  C31021879   5.061   1.485   7.568 -0.1199  0.2966  0.1759
  189SLPC  H10X21880   4.962   1.437   7.556  0.8141 -1.6220 -0.2411
  189SLPC  H10Y21881   5.032   1.592   7.573 -2.6213 -0.2922 -0.5477
  189SLPC  C31121882   5.131   1.448   7.706 -0.3142 -0.1430  0.0210
  189SLPC  H11X21883   5.106   1.522   7.785 -1.6254  1.2404 -1.6112
  189SLPC  H11Y21884   5.242   1.447   7.696 -0.3628 -0.3746 -0.5797
  189SLPC  C31221885   5.072   1.323   7.766 -0.4048  0.3891  0.1931
  189SLPC  H12X21886   5.082   1.227   7.710 -1.8500 -0.9194  2.0200
  189SLPC  H12Y21887   4.963   1.335   7.777 -0.7343 -0.7017 -1.5591
  189SLPC  C31321888   5.131   1.288   7.910 -0.4972 -0.5516  0.1037
  189SLPC  H13X21889   5.042   1.256   7.969 -0.9379  4.0145  2.3051
  189SLPC  H13Y21890   5.173   1.382   7.951 -3.1824  0.5778  0.4512
  189SLPC  C31421891   5.238   1.185   7.914  0.6397  0.1856  0.1314
  189SLPC  H14X21892   5.325   1.224   7.857 -1.0955  0.4134 -2.5241
  189SLPC  H14Y21893   5.217   1.095   7.853  0.0379  0.5618 -0.2222
  189SLPC  C31521894   5.280   1.162   8.061 -0.4553  0.0799  0.3216
  189SLPC  H15X21895   5.185   1.146   8.117 -2.1062  0.7009 -2.1575
  189SLPC  H15Y21896   5.318   1.258   8.101 -0.6743 -0.9210  3.1700
  189SLPC  C31621897   5.374   1.042   8.069 -0.7821 -0.0362 -0.3491
  189SLPC  H16X21898   5.355   0.967   7.990 -0.8659 -0.2737 -0.1061
  189SLPC  H16Y21899   5.359   0.981   8.161 -2.3195 -1.5627 -1.5525
  189SLPC  C31721900   5.520   1.086   8.069  0.0156  0.0179 -0.1922
  189SLPC  H17X21901   5.546   1.143   8.161  4.4473 -2.7798  0.6150
  189SLPC  H17Y21902   5.537   1.143   7.975 -2.0774  1.3660  0.1717
  189SLPC  C31821903   5.609   0.963   8.074  0.1642 -0.5974  0.5199
  189SLPC  H18X21904   5.569   0.893   8.150  2.4760 -2.5374  0.0591
  189SLPC  H18Y21905   5.715   0.980   8.101 -0.2128 -0.5580  2.0589
  189SLPC  H18Z21906   5.606   0.906   7.979  0.2602  0.7856 -0.3397
  190SLPC     N21907   5.932   1.300   6.214  0.1117 -0.1799 -0.1018
  190SLPC   C1321908   5.912   1.438   6.271 -0.0772 -0.0302 -0.0376
  190SLPC  H13A21909   5.905   1.528   6.211  3.1410  0.9648  0.8428
  190SLPC  H13B21910   5.819   1.440   6.326  0.2357 -0.7020  0.5280
  190SLPC  H13C21911   5.987   1.454   6.347 -0.0921 -1.3158  0.2698
  190SLPC   C1421912   6.076   1.291   6.168  0.1023 -0.5611  0.2378
  190SLPC  H14A21913   6.091   1.195   6.120  1.1554  0.5328 -1.7407
  190SLPC  H14B21914   6.094   1.375   6.104  0.4799  1.0560  2.3468
  190SLPC  H14C21915   6.144   1.295   6.252  0.2630  2.2010  0.0478
  190SLPC   C1521916   5.842   1.278   6.098 -1.0026  0.1639  0.6360
  190SLPC  H15A21917   5.748   1.235   6.130 -0.6350 -1.9150 -0.8828
  190SLPC  H15B21918   5.819   1.362   6.035  0.7384 -0.7872 -1.3796
  190SLPC  H15C21919   5.902   1.218   6.031 -1.6303 -0.4122  0.5770
  190SLPC   C1221920   5.881   1.195   6.321 -0.1889 -0.6694 -0.8637
  190SLPC  H12A21921   5.934   1.200   6.414  0.2467 -1.9785 -1.0237
  190SLPC  H12B21922   5.899   1.091   6.297  0.2017 -0.5450 -1.1105
  190SLPC   C1121923   5.728   1.202   6.348  0.6738  0.1784 -0.0053
  190SLPC  H11A21924   5.694   1.308   6.354 -1.3286 -0.4784  0.6825
  190SLPC  H11B21925   5.706   1.161   6.448  1.8081  0.0567  0.2143
  190SLPC     P21926   5.662   0.976   6.229 -0.7217 -0.0468 -0.5153
  190SLPC   O1321927   5.551   0.925   6.146  0.0659 -0.3659 -0.4536
  190SLPC   O1421928   5.801   0.942   6.183  0.2110  0.6789 -0.4687
  190SLPC   O1221929   5.650   1.135   6.247  0.2269 -0.1724 -0.6290
  190SLPC   O1121930   5.631   0.920   6.375  0.4043  0.0521 -0.6022
  190SLPC    C121931   5.501   0.953   6.427  0.8356  0.2119 -0.1457
  190SLPC    HA21932   5.481   1.062   6.430 -4.0124 -0.4243  1.8851
  190SLPC    HB21933   5.417   0.903   6.373 -0.3669  1.8573  0.1326
  190SLPC    C221934   5.491   0.891   6.574  0.6399  0.0448  0.0399
  190SLPC    HS21935   5.402   0.931   6.627  0.0460 -1.1787 -0.0006
  190SLPC   O2121936   5.610   0.904   6.650 -0.1263 -0.4170  0.5298
  190SLPC   C2121937   5.642   1.034   6.679  0.4791  0.0706 -0.5219
  190SLPC   O2221938   5.567   1.128   6.655 -1.0592  0.2247 -0.0614
  190SLPC   C2221939   5.775   1.038   6.741 -0.5003  0.2070 -0.6352
  190SLPC   H2R21940   5.841   0.954   6.712  0.0463  0.4872 -0.2104
  190SLPC   H2S21941   5.820   1.134   6.706 -1.3181 -0.0303 -2.4654
  190SLPC    C321942   5.465   0.739   6.565  0.1719  0.2765  0.4574
  190SLPC    HX21943   5.546   0.676   6.523 -1.1860 -0.6432 -0.8870
  190SLPC    HY21944   5.386   0.725   6.488  2.3908  0.2672 -1.9421
  190SLPC   O3121945   5.416   0.690   6.691  0.4253  0.1624 -0.1146
  190SLPC   C3121946   5.495   0.633   6.784 -0.2691 -0.1706 -0.0966
  190SLPC   O3221947   5.610   0.603   6.770 -0.2608 -0.0769  0.0518
  190SLPC   C3221948   5.417   0.612   6.913 -0.7047  0.3548 -0.1211
  190SLPC   H2X21949   5.332   0.545   6.886  0.5426 -0.5887 -1.9056
  190SLPC   H2Y21950   5.383   0.716   6.934 -4.0827 -0.4049 -1.1842
  190SLPC   C2321951   5.754   1.043   6.898 -0.7641  0.1610 -0.3454
  190SLPC   H3R21952   5.725   0.939   6.924  0.6778 -1.2934 -4.0160
  190SLPC   H3S21953   5.674   1.117   6.920 -1.6896 -1.1133  0.7438
  190SLPC   C2421954   5.877   1.097   6.970 -0.6414 -0.7412  0.6700
  190SLPC   H4R21955   5.912   1.199   6.940  4.2005 -2.1738  0.6060
  190SLPC   H4S21956   5.971   1.040   6.955 -0.7624 -0.5491 -1.0137
  190SLPC   C2521957   5.861   1.110   7.128  0.3580  0.1461 -0.0954
  190SLPC   H5R21958   5.827   1.008   7.157  0.1544 -0.3106 -1.8274
  190SLPC   H5S21959   5.793   1.187   7.171 -0.7218 -0.9824  0.2847
  190SLPC   C2621960   5.992   1.123   7.205  1.2144  0.3154  0.3546
  190SLPC   H6R21961   6.038   1.222   7.226  3.2611 -0.1121 -1.6749
  190SLPC   H6S21962   6.076   1.065   7.161  2.1752 -0.5978  3.1593
  190SLPC   C2721963   5.982   1.058   7.344  0.1897  0.7756 -0.5782
  190SLPC   H7R21964   6.080   1.054   7.396 -0.4405  1.9063  0.7609
  190SLPC   H7S21965   5.950   0.952   7.347 -1.5518  1.2741 -0.5423
  190SLPC   C2821966   5.888   1.130   7.441  0.2679 -0.6193 -0.6484
  190SLPC   H8R21967   5.893   1.066   7.531  0.2512 -0.5076 -0.5680
  190SLPC   H8S21968   5.788   1.111   7.396 -0.6742 -1.1774  1.5802
  190SLPC   C2921969   5.918   1.278   7.464 -0.2403 -0.2746 -0.0764
  190SLPC   H9R21970   5.908   1.338   7.372 -0.1077  0.7242  0.5487
  190SLPC  C21021971   5.956   1.339   7.579 -0.5590  0.1945  0.5343
  190SLPC  H10R21972   5.979   1.447   7.578  0.5430 -0.0322  0.8821
  190SLPC  C21121973   5.969   1.266   7.715  0.3454 -0.9873 -0.4861
  190SLPC  H11R21974   6.056   1.310   7.768  0.9401 -0.2209 -2.0537
  190SLPC  H11S21975   5.989   1.157   7.706  1.0736 -0.9633  0.6403
  190SLPC  C21221976   5.848   1.295   7.806  0.5524  0.0842 -0.0743
  190SLPC  H12R21977   5.763   1.336   7.749  0.4225  0.0097  0.0658
  190SLPC  C21321978   5.844   1.271   7.938  0.8002  0.3699  0.7435
  190SLPC  H13R21979   5.750   1.299   7.988 -0.3885 -3.6923  1.1472
  190SLPC  C21421980   5.958   1.217   8.018 -0.5410 -0.0073 -0.3072
  190SLPC  H14R21981   6.009   1.133   7.966 -3.1691 -2.9948  1.5787
  190SLPC  H14S21982   5.924   1.167   8.110  1.8312 -0.2481  0.5070
  190SLPC  C21521983   6.052   1.333   8.054  0.6048  0.2315  0.4099
  190SLPC  H15R21984   6.005   1.410   8.119 -3.1634 -0.8957 -0.7253
  190SLPC  H15S21985   6.091   1.378   7.961 -1.0063  1.0864  0.1039
  190SLPC  C21621986   6.181   1.272   8.119 -0.6144 -0.3034  0.2751
  190SLPC  H16R21987   6.259   1.352   8.120 -1.6167  0.7234  2.0534
  190SLPC  H16S21988   6.215   1.187   8.056 -2.5696 -1.9145  1.2653
  190SLPC  C21721989   6.165   1.206   8.261  0.2216 -0.6688 -0.2070
  190SLPC  H17R21990   6.080   1.134   8.268  0.6663 -1.0289  2.8036
  190SLPC  H17S21991   6.123   1.291   8.318 -1.4815 -1.1285 -0.7075
  190SLPC  C21821992   6.295   1.149   8.318  0.3713 -0.6557  0.4441
  190SLPC  H18R21993   6.289   1.128   8.427  1.4234 -0.3939  0.5676
  190SLPC  H18S21994   6.381   1.210   8.282 -1.4663  1.3958 -0.6579
  190SLPC  H18T21995   6.298   1.046   8.276 -2.2338 -0.5178 -0.2392
  190SLPC   C3321996   5.509   0.562   7.022  0.8606  0.9685  0.0101
  190SLPC   H3X21997   5.602   0.622   7.028  1.0191  0.5593  2.2761
  190SLPC   H3Y21998   5.533   0.456   6.998  1.6554  1.3320 -0.8950
  190SLPC   C3421999   5.433   0.583   7.149 -0.3535 -0.3018  0.2746
  190SLPC   H4X22000   5.327   0.553   7.140 -0.3944  0.1659 -1.0705
  190SLPC   H4Y22001   5.429   0.693   7.166  0.8182 -0.1684 -0.2105
  190SLPC   C3522002   5.512   0.521   7.260 -0.1183  0.0688  0.1384
  190SLPC   H5X22003   5.618   0.554   7.269  0.1358 -0.8593  0.7445
  190SLPC   H5Y22004   5.523   0.411   7.248  0.6748  0.0927  0.5839
  190SLPC   C3622005   5.452   0.544   7.396  0.4724 -0.4504 -0.1353
  190SLPC   H6X22006   5.372   0.470   7.413  1.3920 -1.6152 -0.7282
  190SLPC   H6Y22007   5.406   0.645   7.386  1.1605  0.1671  2.1866
  190SLPC   C3722008   5.554   0.549   7.510 -0.1705  0.1885  0.6756
  190SLPC   H7X22009   5.635   0.623   7.490  2.4054 -2.8489 -1.1724
  190SLPC   H7Y22010   5.614   0.456   7.521  2.1645  1.5843  0.5910
  190SLPC   C3822011   5.494   0.585   7.652 -0.2379 -0.1222 -1.0672
  190SLPC   H8X22012   5.432   0.497   7.680  3.1608 -1.9275  1.5531
  190SLPC   H8Y22013   5.433   0.678   7.647 -2.2819 -0.9147  3.4755
  190SLPC   C3922014   5.614   0.607   7.752  0.7466  0.3658  0.7033
  190SLPC   H9X22015   5.661   0.691   7.698 -1.7910 -1.5451 -5.2840
  190SLPC   H9Y22016   5.677   0.516   7.750 -0.7143 -0.7010 -1.5268
  190SLPC  C31022017   5.559   0.646   7.886 -0.1475 -0.2134  0.2873
  190SLPC  H10X22018   5.496   0.736   7.871 -1.4875 -1.3218 -1.1888
  190SLPC  H10Y22019   5.649   0.669   7.946 -0.0493 -0.2856  0.1678
  190SLPC  C31122020   5.471   0.532   7.942  0.8215 -0.3238 -0.8254
  190SLPC  H11X22021   5.526   0.439   7.915 -1.0993 -1.2418 -1.7552
  190SLPC  H11Y22022   5.375   0.521   7.888 -0.3488  0.3827  1.0319
  190SLPC  C31222023   5.437   0.540   8.090 -0.4892  0.0414  0.1290
  190SLPC  H12X22024   5.375   0.454   8.125 -1.1190  0.2326 -0.4981
  190SLPC  H12Y22025   5.369   0.623   8.119  0.1149  0.9997 -1.0981
  190SLPC  C31322026   5.561   0.551   8.183  0.2802  0.1676  0.4112
  190SLPC  H13X22027   5.632   0.629   8.149  1.1906 -0.5823  0.5499
  190SLPC  H13Y22028   5.618   0.457   8.169  0.6973  0.2971  1.1600
  190SLPC  C31422029   5.535   0.564   8.332  0.2415  0.1162 -0.6922
  190SLPC  H14X22030   5.632   0.565   8.388  0.1088  0.7326 -0.4666
  190SLPC  H14Y22031   5.474   0.479   8.369  0.6825 -0.7097 -1.7791
  190SLPC  C31522032   5.471   0.700   8.375 -0.3767  0.0824 -0.7698
  190SLPC  H15X22033   5.371   0.700   8.325 -1.5524  0.4981  1.4598
  190SLPC  H15Y22034   5.530   0.785   8.335 -1.2135  0.4473 -1.2581
  190SLPC  C31622035   5.450   0.706   8.526 -0.0880 -0.0819 -0.0605
  190SLPC  H16X22036   5.549   0.688   8.573  0.4814  0.3511 -1.0476
  190SLPC  H16Y22037   5.390   0.625   8.571  1.0372 -0.7270  0.3250
  190SLPC  C31722038   5.399   0.843   8.574 -0.2542 -0.8123 -0.6119
  190SLPC  H17X22039   5.289   0.838   8.560 -0.7400 -0.0962  2.3116
  190SLPC  H17Y22040   5.432   0.925   8.506 -0.3570 -1.4809 -1.4835
  190SLPC  C31822041   5.430   0.872   8.716 -0.1388  0.7144 -1.0193
  190SLPC  H18X22042   5.393   0.972   8.747 -1.3312 -0.3549  1.2216
  190SLPC  H18Y22043   5.538   0.878   8.743  0.0235  0.2349 -1.5428
  190SLPC  H18Z22044   5.382   0.807   8.792 -0.1224  1.1468 -0.6344
  191SLPC     N22045   5.006   2.317   5.580  0.1875 -0.4263 -0.1460
  191SLPC   C1322046   5.025   2.461   5.601 -0.4709  0.6909  0.5115
  191SLPC  H13A22047   4.950   2.525   5.557 -1.1445  0.0903  0.7782
  191SLPC  H13B22048   5.026   2.490   5.705  0.2923  0.3208  0.6100
  191SLPC  H13C22049   5.126   2.487   5.574 -1.3172  0.7563 -3.1226
  191SLPC   C1422050   5.037   2.293   5.432 -0.5799  0.3189 -0.2320
  191SLPC  H14A22051   5.011   2.194   5.398  0.2127  1.1560 -3.5813
  191SLPC  H14B22052   4.974   2.370   5.390 -1.3969  0.5514  1.3422
  191SLPC  H14C22053   5.140   2.301   5.401 -0.8142 -1.7093 -1.6722
  191SLPC   C1522054   4.857   2.288   5.600 -0.7365  0.3157  0.2003
  191SLPC  H15A22055   4.797   2.329   5.520 -0.2996 -1.2220 -0.9669
  191SLPC  H15B22056   4.836   2.183   5.590 -0.1918  0.3177 -1.1754
  191SLPC  H15C22057   4.821   2.330   5.693 -0.7683  0.2573  0.2142
  191SLPC   C1222058   5.084   2.233   5.674  0.4829  0.2118 -0.2035
  191SLPC  H12A22059   5.190   2.249   5.656  0.7727  2.0387  2.5204
  191SLPC  H12B22060   5.065   2.133   5.639  1.7875  0.2026 -0.9509
  191SLPC   C1122061   5.054   2.249   5.831 -0.2779 -0.4482  0.9077
  191SLPC  H11A22062   5.099   2.165   5.887 -0.0890 -1.2696 -0.4383
  191SLPC  H11B22063   4.946   2.249   5.854 -1.0603 -1.2989 -2.2609
  191SLPC     P22064   5.247   2.386   5.933  0.2820  0.3006  0.2836
  191SLPC   O1322065   5.347   2.337   5.834  0.0589  0.2883 -0.1571
  191SLPC   O1422066   5.255   2.525   5.972 -0.2266  0.0095 -0.4231
  191SLPC   O1222067   5.104   2.373   5.877  0.2778  0.0018  0.2528
  191SLPC   O1122068   5.243   2.291   6.063  0.2107 -0.2306  0.3462
  191SLPC    C122069   5.146   2.308   6.168 -0.5120  0.0732  0.2489
  191SLPC    HA22070   5.060   2.371   6.138  0.0457  1.6836  1.8178
  191SLPC    HB22071   5.102   2.210   6.196  0.3247 -0.2112  0.6247
  191SLPC    C222072   5.196   2.378   6.293 -0.6272 -0.1883 -0.6145
  191SLPC    HS22073   5.231   2.477   6.256  1.5518 -0.7141 -0.1182
  191SLPC   O2122074   5.308   2.304   6.354  0.3237 -0.5037 -0.2447
  191SLPC   C2122075   5.373   2.367   6.449  0.1203  0.1228 -0.3071
  191SLPC   O2222076   5.352   2.482   6.480 -0.2313  0.4451  0.2880
  191SLPC   C2222077   5.479   2.276   6.512  0.1540 -0.1935  0.2676
  191SLPC   H2R22078   5.438   2.173   6.519  1.8182 -0.8517  0.6183
  191SLPC   H2S22079   5.566   2.275   6.444 -1.3162  0.6209 -1.7196
  191SLPC    C322080   5.084   2.395   6.399 -0.4529  0.3444  0.6205
  191SLPC    HX22081   5.116   2.463   6.481 -0.7952  0.6450  0.5103
  191SLPC    HY22082   5.076   2.293   6.442  1.5774 -0.8373 -1.6057
  191SLPC   O3122083   4.954   2.433   6.345 -0.2904 -0.2567  0.1624
  191SLPC   C3122084   4.923   2.564   6.341  0.2510  0.4646  0.7442
  191SLPC   O3222085   5.008   2.649   6.371  0.0691 -0.1763 -0.2422
  191SLPC   C3222086   4.785   2.584   6.297 -0.5981 -0.2697 -0.6822
  191SLPC   H2X22087   4.727   2.514   6.360  0.2815  0.0287  0.4925
  191SLPC   H2Y22088   4.778   2.544   6.193  2.0088  1.2876 -1.5550
  191SLPC   C2322089   5.517   2.327   6.648 -0.2347  0.1923  0.9452
  191SLPC   H3R22090   5.558   2.430   6.644 -0.3374  0.2262  0.7859
  191SLPC   H3S22091   5.600   2.264   6.687 -0.2107 -0.7820 -0.5656
  191SLPC   C2422092   5.397   2.313   6.732 -0.2234 -0.4948  0.5610
  191SLPC   H4R22093   5.339   2.221   6.707  3.4205 -2.9942  0.4780
  191SLPC   H4S22094   5.335   2.404   6.720  2.7821  1.3015 -4.0318
  191SLPC   C2522095   5.441   2.307   6.883 -0.0146  0.0993 -1.1161
  191SLPC   H5R22096   5.361   2.349   6.948  0.6476 -4.3602  3.1549
  191SLPC   H5S22097   5.521   2.384   6.886  0.0969 -0.0487  0.1066
  191SLPC   C2622098   5.487   2.170   6.934 -0.3663  0.2823 -1.2123
  191SLPC   H6R22099   5.591   2.152   6.900 -0.3283 -1.3438 -0.2965
  191SLPC   H6S22100   5.414   2.096   6.894  0.7432 -1.1789 -0.6151
  191SLPC   C2722101   5.485   2.171   7.086  0.0575 -0.4570  0.5042
  191SLPC   H7R22102   5.380   2.175   7.121 -1.9738  0.8458 -4.8106
  191SLPC   H7S22103   5.547   2.257   7.118  1.5153 -0.6049 -1.6790
  191SLPC   C2822104   5.546   2.042   7.153  0.1196  0.3349  0.2001
  191SLPC   H8R22105   5.530   2.054   7.262 -1.0382  0.2077  0.0495
  191SLPC   H8S22106   5.651   2.034   7.116  0.3605  0.2742  0.8854
  191SLPC   C2922107   5.469   1.926   7.097  0.1555  0.4261  0.0055
  191SLPC   H9R22108   5.447   1.929   6.989 -0.0423  1.2092  0.0614
  191SLPC  C21022109   5.405   1.823   7.167 -0.1490  0.5090  0.0116
  191SLPC  H10R22110   5.353   1.742   7.114  0.1912 -0.5899  1.3108
  191SLPC  C21122111   5.413   1.805   7.316  0.0255  0.0153 -0.5210
  191SLPC  H11R22112   5.483   1.880   7.360  1.2213 -1.0695 -0.5149
  191SLPC  H11S22113   5.454   1.705   7.343  0.1417 -0.1277 -1.2130
  191SLPC  C21222114   5.272   1.809   7.372  0.2268 -0.0327  0.0891
  191SLPC  H12R22115   5.202   1.742   7.320  1.9051 -0.7849 -1.3119
  191SLPC  C21322116   5.239   1.850   7.493  0.1674 -0.2920  0.5335
  191SLPC  H13R22117   5.132   1.854   7.518  0.1911  0.3030  0.5504
  191SLPC  C21422118   5.329   1.915   7.595 -0.4279  0.4656 -0.5596
  191SLPC  H14R22119   5.321   2.026   7.593  1.2796  0.6078 -1.5661
  191SLPC  H14S22120   5.434   1.887   7.570 -0.3094  0.3764  0.0180
  191SLPC  C21522121   5.312   1.854   7.740 -0.7115  0.4443 -0.2905
  191SLPC  H15R22122   5.400   1.881   7.802 -1.8770  1.1722  1.1164
  191SLPC  H15S22123   5.318   1.743   7.736 -1.0440  0.3276  1.4449
  191SLPC  C21622124   5.177   1.893   7.800  0.3976  0.0892 -0.5157
  191SLPC  H16R22125   5.095   1.843   7.744  0.2121  1.8960 -1.9625
  191SLPC  H16S22126   5.164   2.001   7.774 -2.5105 -0.5965 -2.3470
  191SLPC  C21722127   5.171   1.868   7.952 -0.3437  0.1259 -0.1989
  191SLPC  H17R22128   5.097   1.935   8.002 -2.4667 -1.2341 -1.3270
  191SLPC  H17S22129   5.267   1.907   7.992 -0.5934 -0.0062  0.5452
  191SLPC  C21822130   5.166   1.725   8.001  0.1505 -0.2730  0.0298
  191SLPC  H18R22131   5.061   1.692   7.993 -0.5956  1.7901  0.6225
  191SLPC  H18S22132   5.204   1.716   8.105  1.1165  1.8444 -0.0675
  191SLPC  H18T22133   5.239   1.669   7.938  2.1012 -1.6425  3.2233
  191SLPC   C3322134   4.740   2.728   6.328  0.0836  0.5929 -0.1728
  191SLPC   H3X22135   4.653   2.761   6.268 -0.7288  0.8015  1.0994
  191SLPC   H3Y22136   4.820   2.797   6.293  0.8896 -0.5149 -0.6018
  191SLPC   C3422137   4.690   2.760   6.474 -0.4312  0.3520  0.0600
  191SLPC   H4X22138   4.736   2.698   6.553  2.1224  1.8440 -0.1623
  191SLPC   H4Y22139   4.581   2.738   6.476 -0.2547 -0.6661 -0.7350
  191SLPC   C3522140   4.718   2.907   6.513 -0.6138 -0.5421 -0.2041
  191SLPC   H5X22141   4.665   2.974   6.442 -0.0552 -0.0705 -0.1862
  191SLPC   H5Y22142   4.820   2.946   6.493 -0.4033  0.5781  2.4836
  191SLPC   C3622143   4.669   2.940   6.655  0.9620 -0.0526  0.3261
  191SLPC   H6X22144   4.563   2.972   6.660  0.8132 -0.4456 -0.2182
  191SLPC   H6Y22145   4.730   3.027   6.688  1.2782 -0.3296  0.4794
  191SLPC   C3722146   4.681   2.836   6.760 -1.0234  0.3870 -0.1672
  191SLPC   H7X22147   4.783   2.791   6.760 -1.6470 -1.1913 -2.0282
  191SLPC   H7Y22148   4.614   2.747   6.753 -0.4603 -0.0311 -0.3805
  191SLPC   C3822149   4.658   2.894   6.904  0.4172 -0.0896  0.5123
  191SLPC   H8X22150   4.554   2.931   6.909  0.7944  0.8793  2.2894
  191SLPC   H8Y22151   4.729   2.979   6.918  0.4294  0.2599 -1.3604
  191SLPC   C3922152   4.668   2.786   7.011 -0.5336 -0.8128  0.3251
  191SLPC   H9X22153   4.764   2.730   7.015 -0.7687 -1.1519  2.8950
  191SLPC   H9Y22154   4.592   2.710   6.983 -1.3632  0.8009 -2.2066
  191SLPC  C31022155   4.633   2.833   7.153  0.7185 -0.5396 -0.1753
  191SLPC  H10X22156   4.627   2.741   7.216 -1.5714 -0.0658  0.3673
  191SLPC  H10Y22157   4.534   2.882   7.159  0.8645 -0.4074  1.4119
  191SLPC  C31122158   4.732   2.907   7.234 -1.0950  0.6165 -0.3340
  191SLPC  H11X22159   4.736   3.005   7.182 -2.5741  2.0956  2.1516
  191SLPC  H11Y22160   4.830   2.854   7.238 -1.2627  0.3486  0.4182
  191SLPC  C31222161   4.690   2.966   7.376  0.0558  0.0056  0.0801
  191SLPC  H12X22162   4.761   3.044   7.409  0.3909 -0.5226  0.6484
  191SLPC  H12Y22163   4.698   2.884   7.451 -0.0485  0.0856  0.1789
  191SLPC  C31322164   4.548   3.023   7.384  0.7260  0.0870 -0.3866
  191SLPC  H13X22165   4.472   2.942   7.375 -0.4161  0.8639  1.5485
  191SLPC  H13Y22166   4.533   3.076   7.288  0.0878  0.0771 -0.2965
  191SLPC  C31422167   4.513   3.111   7.508  0.0797  0.2142  0.2735
  191SLPC  H14X22168   4.528   3.049   7.599 -0.2543 -0.0266  0.1666
  191SLPC  H14Y22169   4.403   3.124   7.510  0.3379  3.1536  0.5538
  191SLPC  C31522170   4.592   3.247   7.521  0.3057  0.4088  0.1431
  191SLPC  H15X22171   4.537   3.311   7.448 -1.3853  0.6569  1.5688
  191SLPC  H15Y22172   4.696   3.229   7.488  1.3642  0.3136  3.2284
  191SLPC  C31622173   4.579   3.293   7.661 -0.1335 -0.0122 -0.6682
  191SLPC  H16X22174   4.664   3.363   7.676  2.0594 -2.9282  1.5687
  191SLPC  H16Y22175   4.592   3.204   7.726  1.9402  0.4257 -0.4264
  191SLPC  C31722176   4.447   3.358   7.700  0.3394 -0.3456  0.0278
  191SLPC  H17X22177   4.444   3.380   7.808  0.8118 -0.7764  0.1318
  191SLPC  H17Y22178   4.368   3.285   7.670 -1.6936  1.9433 -0.6030
  191SLPC  C31822179   4.420   3.489   7.618 -0.1781 -0.2555 -0.1465
  191SLPC  H18X22180   4.504   3.561   7.618  0.0882 -0.5557  0.4380
  191SLPC  H18Y22181   4.323   3.540   7.635 -0.5773 -0.1607 -2.4506
  191SLPC  H18Z22182   4.424   3.459   7.511  0.7937 -2.4335  0.4239
  192SLPC     N22183   4.333   3.158   6.018 -0.0393 -0.3183  0.2560
  192SLPC   C1322184   4.283   3.296   5.991  0.4901 -0.0357  0.3955
  192SLPC  H13A22185   4.188   3.309   6.040 -0.3931 -1.4237 -0.8491
  192SLPC  H13B22186   4.350   3.367   6.039  1.5723 -0.3461 -0.6169
  192SLPC  H13C22187   4.277   3.322   5.887  1.3584  0.9581  0.5668
  192SLPC   C1422188   4.451   3.126   5.932 -0.7810  0.4882 -0.3098
  192SLPC  H14A22189   4.482   3.022   5.937 -0.1658  0.4949 -2.7768
  192SLPC  H14B22190   4.429   3.144   5.828  1.4879  3.3762 -0.4000
  192SLPC  H14C22191   4.539   3.183   5.957  0.6517 -1.6383 -0.1922
  192SLPC   C1522192   4.236   3.055   5.966 -0.5468 -0.4928  0.2665
  192SLPC  H15A22193   4.284   2.959   5.981  2.0110  0.5244 -0.8105
  192SLPC  H15B22194   4.139   3.061   6.013 -0.1884  0.6430  0.9151
  192SLPC  H15C22195   4.229   3.067   5.859 -0.2721  0.3700  0.3388
  192SLPC   C1222196   4.365   3.143   6.166  0.3216  0.2612  0.4534
  192SLPC  H12A22197   4.418   3.230   6.201 -0.3383  1.3415 -1.1177
  192SLPC  H12B22198   4.440   3.068   6.184  0.2444  0.0458 -0.1092
  192SLPC   C1122199   4.245   3.107   6.260  0.1425 -0.4498  0.7444
  192SLPC  H11A22200   4.286   3.069   6.356  2.0203 -0.3368  0.0456
  192SLPC  H11B22201   4.203   3.011   6.222 -0.7641  0.2401 -0.0401
  192SLPC     P22202   4.160   3.346   6.343  0.4876 -0.2025 -0.0239
  192SLPC   O1322203   4.290   3.390   6.305 -0.2046  0.2712 -0.2993
  192SLPC   O1422204   4.030   3.422   6.322  0.1136  0.1092 -0.2201
  192SLPC   O1222205   4.137   3.210   6.263 -1.0066  0.3496  0.7689
  192SLPC   O1122206   4.165   3.294   6.491 -0.1669  0.1289 -0.2032
  192SLPC    C122207   4.134   3.377   6.606 -0.1079 -0.0814  0.2537
  192SLPC    HA22208   4.026   3.400   6.612 -0.3189 -1.1421  0.8807
  192SLPC    HB22209   4.163   3.312   6.692  0.0510 -1.0414 -0.5036
  192SLPC    C222210   4.218   3.506   6.637 -0.7955  0.2910 -0.5313
  192SLPC    HS22211   4.173   3.583   6.571  0.7167  0.8366 -0.9892
  192SLPC   O2122212   4.364   3.484   6.608 -0.5212 -0.0337  0.1626
  192SLPC   C2122213   4.440   3.575   6.553  0.1118 -1.0239  0.7149
  192SLPC   O2222214   4.395   3.691   6.543  0.4831 -0.4277 -0.0901
  192SLPC   C2222215   4.576   3.533   6.531 -0.4756 -0.4315 -0.2848
  192SLPC   H2R22216   4.585   3.476   6.436 -0.2283 -1.1363  0.1497
  192SLPC   H2S22217   4.638   3.624   6.514  1.1953 -0.8800  2.7652
  192SLPC    C322218   4.196   3.565   6.778 -0.4977  0.0165  0.8873
  192SLPC    HX22219   4.211   3.485   6.853 -1.3750 -0.0654  0.9935
  192SLPC    HY22220   4.093   3.599   6.802 -0.1721  1.3906  0.4007
  192SLPC   O3122221   4.290   3.669   6.817 -0.0858 -0.8509 -0.1672
  192SLPC   C3122222   4.255   3.791   6.778  1.1177  0.3581 -0.0575
  192SLPC   O3222223   4.157   3.816   6.706 -0.3886  0.4170 -0.2536
  192SLPC   C3222224   4.351   3.888   6.842  0.1848 -0.5237  0.3503
  192SLPC   H2X22225   4.439   3.893   6.774  0.6429 -0.9284  0.9092
  192SLPC   H2Y22226   4.381   3.842   6.938  0.0674 -0.3328  0.4785
  192SLPC   C2322227   4.639   3.463   6.657  0.3756 -0.2885  0.0800
  192SLPC   H3R22228   4.602   3.359   6.670 -2.6903  0.2777 -2.8034
  192SLPC   H3S22229   4.595   3.524   6.739  1.4299  0.8321 -0.1671
  192SLPC   C2422230   4.792   3.460   6.670 -0.0089  0.5772  0.4538
  192SLPC   H4R22231   4.840   3.546   6.619  2.6700  0.2583  2.2435
  192SLPC   H4S22232   4.829   3.366   6.623 -0.8529  0.0456  0.8185
  192SLPC   C2522233   4.830   3.443   6.813  0.0131  0.0009 -0.1687
  192SLPC   H5R22234   4.772   3.358   6.855  0.3329 -0.4855 -0.6969
  192SLPC   H5S22235   4.795   3.523   6.882 -1.3646  0.7326 -1.6458
  192SLPC   C2622236   4.983   3.437   6.828  0.2212 -0.3741  0.0690
  192SLPC   H6R22237   5.022   3.519   6.765  0.6352  2.3036  3.5024
  192SLPC   H6S22238   5.015   3.336   6.797 -0.2291 -0.6776  0.5656
  192SLPC   C2722239   5.040   3.460   6.965  1.1277 -0.4746 -0.9568
  192SLPC   H7R22240   4.995   3.386   7.035  0.8396 -0.4133 -1.0750
  192SLPC   H7S22241   5.007   3.554   7.014  1.8893 -0.1690 -1.0200
  192SLPC   C2822242   5.185   3.464   6.964  0.0151  0.8227 -0.3283
  192SLPC   H8R22243   5.216   3.541   6.889 -0.3202  0.7657 -0.5280
  192SLPC   H8S22244   5.224   3.366   6.930  1.6790  0.4887  2.2918
  192SLPC   C2922245   5.251   3.495   7.092  0.0058 -0.5914 -0.4249
  192SLPC   H9R22246   5.235   3.413   7.164  2.5980 -0.0178  0.9239
  192SLPC  C21022247   5.319   3.611   7.125  0.0337  0.0486  0.3320
  192SLPC  H10R22248   5.360   3.614   7.227  0.2977 -1.0172  0.2682
  192SLPC  C21122249   5.343   3.726   7.033 -0.5743 -0.4513  0.9840
  192SLPC  H11R22250   5.240   3.757   7.004 -0.5819 -0.2599  1.2100
  192SLPC  H11S22251   5.392   3.692   6.939  1.0233 -0.2250  1.7141
  192SLPC  C21222252   5.416   3.838   7.101  0.0511 -0.2410  0.1475
  192SLPC  H12R22253   5.364   3.920   7.154 -2.0541 -0.9390 -0.7026
  192SLPC  C21322254   5.544   3.874   7.077 -0.1270  0.4101 -0.2737
  192SLPC  H13R22255   5.587   3.965   7.121  0.1131 -0.0111  0.3697
  192SLPC  C21422256   5.636   3.797   6.985 -0.0329  0.5715 -0.3851
  192SLPC  H14R22257   5.596   3.694   6.970  0.7746  0.5342 -2.5883
  192SLPC  H14S22258   5.733   3.784   7.036 -0.4778  0.3491  0.4293
  192SLPC  C21522259   5.655   3.870   6.847 -0.4017 -0.2345  0.4426
  192SLPC  H15R22260   5.704   3.965   6.878  0.7634 -0.1554 -1.5307
  192SLPC  H15S22261   5.557   3.880   6.795  0.5414  2.7660 -0.9683
  192SLPC  C21622262   5.760   3.814   6.747  0.0161  0.3698  0.0748
  192SLPC  H16R22263   5.748   3.705   6.730  0.3712 -0.0236  2.0229
  192SLPC  H16S22264   5.859   3.818   6.799  0.2184  0.7307 -0.3354
  192SLPC  C21722265   5.776   3.899   6.613 -0.6204 -0.1798 -0.1602
  192SLPC  H17R22266   5.852   3.842   6.556 -1.0939  0.1800 -1.1810
  192SLPC  H17S22267   5.683   3.902   6.553 -0.3261  0.0797 -0.6013
  192SLPC  C21822268   5.828   4.045   6.631  0.2348  0.4512  0.6718
  192SLPC  H18R22269   5.821   4.090   6.530  0.5721 -1.7896 -0.4133
  192SLPC  H18S22270   5.931   4.054   6.672 -0.4312 -2.0824  3.2334
  192SLPC  H18T22271   5.757   4.091   6.703 -1.7437  1.2593 -1.6870
  192SLPC   C3322272   4.289   4.026   6.866 -0.8528  0.6660 -0.3678
  192SLPC   H3X22273   4.240   4.073   6.779  1.4557  0.7676 -1.6919
  192SLPC   H3Y22274   4.375   4.096   6.876  0.6881 -0.9801 -1.4588
  192SLPC   C3422275   4.214   4.032   7.002 -1.0694  0.2438 -0.3638
  192SLPC   H4X22276   4.205   4.133   7.046 -2.6177 -0.3040  0.6948
  192SLPC   H4Y22277   4.263   3.968   7.079  0.3638  0.9269 -0.6872
  192SLPC   C3522278   4.074   3.971   7.001 -0.4065  0.2947 -0.2876
  192SLPC   H5X22279   4.075   3.860   6.992 -0.4335  0.1859  0.8356
  192SLPC   H5Y22280   4.020   3.997   6.908 -1.1074 -0.5216 -0.1190
  192SLPC   C3622281   3.988   4.012   7.121 -0.2476 -0.5600 -0.3989
  192SLPC   H6X22282   3.963   4.118   7.099  0.0396 -0.2354  0.7793
  192SLPC   H6Y22283   4.048   3.995   7.213  1.3098 -3.7578 -1.8659
  192SLPC   C3722284   3.858   3.934   7.139 -0.3488 -0.6859  0.4493
  192SLPC   H7X22285   3.877   3.824   7.133  0.6738 -0.4689 -0.7422
  192SLPC   H7Y22286   3.799   3.956   7.048 -2.5238 -0.8370  1.7413
  192SLPC   C3822287   3.774   3.975   7.256 -0.3982 -0.1005  0.8549
  192SLPC   H8X22288   3.669   3.940   7.250 -0.7453  1.1228 -2.8466
  192SLPC   H8Y22289   3.771   4.086   7.258  1.8924  0.0749 -0.6822
  192SLPC   C3922290   3.838   3.936   7.393  0.6986  0.8585 -0.6163
  192SLPC   H9X22291   3.938   3.981   7.406  1.4374 -0.4548 -1.5029
  192SLPC   H9Y22292   3.845   3.825   7.392 -4.3054  0.2829 -1.6995
  192SLPC  C31022293   3.750   3.961   7.527  0.3174 -0.0953  1.0137
  192SLPC  H10X22294   3.814   3.924   7.610  0.5756  0.1379  0.9232
  192SLPC  H10Y22295   3.660   3.897   7.514  1.2874 -1.3622  0.3256
  192SLPC  C31122296   3.717   4.110   7.550 -0.2546  0.8349  0.5489
  192SLPC  H11X22297   3.663   4.145   7.459 -2.9445  2.1258  2.4973
  192SLPC  H11Y22298   3.816   4.160   7.552  1.0746 -1.5398 -1.2493
  192SLPC  C31222299   3.617   4.152   7.666  0.2932 -0.4732  0.0772
  192SLPC  H12X22300   3.514   4.120   7.638  0.0374  0.7240 -0.3760
  192SLPC  H12Y22301   3.619   4.263   7.661 -0.1280 -0.4933 -0.5655
  192SLPC  C31322302   3.648   4.105   7.805 -0.5343 -0.2529 -0.5351
  192SLPC  H13X22303   3.758   4.109   7.822 -0.5172 -0.2427 -0.6445
  192SLPC  H13Y22304   3.629   3.996   7.814  0.8209 -0.4686  0.1444
  192SLPC  C31422305   3.573   4.174   7.921 -1.6720  0.5336  0.2609
  192SLPC  H14X22306   3.465   4.161   7.895 -1.9183  1.3909  0.8168
  192SLPC  H14Y22307   3.596   4.282   7.931  0.5469  0.1875 -0.4867
  192SLPC  C31522308   3.594   4.115   8.065 -0.1279 -0.6370  0.0704
  192SLPC  H15X22309   3.588   4.005   8.054 -0.9799 -0.5312 -0.6569
  192SLPC  H15Y22310   3.508   4.157   8.123  0.0622  0.5333 -0.4585
  192SLPC  C31622311   3.728   4.144   8.129  0.2150 -0.7501  0.4419
  192SLPC  H16X22312   3.757   4.250   8.110 -0.1930 -0.4880  1.2181
  192SLPC  H16Y22313   3.794   4.075   8.073  0.4648  0.8324 -1.3572
  192SLPC  C31722314   3.724   4.114   8.275 -0.2988 -0.6834 -0.1875
  192SLPC  H17X22315   3.702   4.006   8.290 -0.5785 -1.0393 -2.6760
  192SLPC  H17Y22316   3.642   4.163   8.332  0.1887 -1.4028  1.1714
  192SLPC  C31822317   3.850   4.160   8.348 -0.0139 -0.0144  0.6702
  192SLPC  H18X22318   3.849   4.266   8.381 -1.3448 -0.0020  0.6477
  192SLPC  H18Y22319   3.942   4.137   8.290 -0.4170  1.7052 -0.7459
  192SLPC  H18Z22320   3.860   4.111   8.448  3.3109  0.2986  0.6088
  193SOD    SOD22321   6.510   4.239   3.063 -0.1729 -0.0602 -0.1322
  194SOD    SOD22322   3.418   4.738  16.376 -0.0049  0.0012  0.3423
  195SOD    SOD22323   4.089   6.127   3.906 -0.7156 -0.0626 -0.5040
  196SOD    SOD22324   0.095   6.666  12.490  0.4137  0.0142  0.3522
  197SOD    SOD22325   4.286   5.182   3.556 -0.0415 -0.0657 -0.3671
  198SOD    SOD22326   2.320   3.718  13.887 -0.2074  0.4193  0.4610
  199SOD    SOD22327   6.428   6.510  14.724  0.2950  0.0895  0.2655
  200SOD    SOD22328   6.693   3.361  13.731 -0.3229 -0.0431  0.0285
  201SOD    SOD22329   1.671   0.616   2.507 -0.0304  0.2055  0.2528
  202SOD    SOD22330   2.006   0.414   5.209 -0.3673 -0.2746  0.2848
  203SOD    SOD22331   1.441   1.020  14.139 -0.3755 -0.5031  0.4604
  204SOD    SOD22332   2.378   4.920   0.774 -0.0380 -0.5706  0.1633
  205SOD    SOD22333   2.637   2.312   6.014 -0.0643  0.3141  0.1565
  206SOD    SOD22334   2.635   4.976  14.293  0.1961  0.1150  0.1598
  207SOD    SOD22335   2.064   1.717  13.445 -0.0758  0.1419 -0.5688
  208SOD    SOD22336   3.452   4.259  10.664  0.0097  0.9056  0.3678
  209SOD    SOD22337   4.704   4.599   5.386  0.2226 -0.0354 -0.0368
  210SOD    SOD22338   6.447   1.451  11.448 -0.0199 -0.4234 -0.3566
  211SOD    SOD22339   2.315   2.421  14.650 -0.2670  0.3967 -0.0256
  212SOD    SOD22340   4.819   5.141  14.429 -0.1684  0.0492  0.3359
  213SOD    SOD22341   3.921   2.339  13.264  0.3047 -0.2848  0.2555
  214SOD    SOD22342   0.275   2.484  10.850 -0.5147  0.2718  0.4137
  215SOD    SOD22343   0.003   1.728   0.867  0.0928 -0.0904  0.4369
  216SOD    SOD22344   3.582   2.895  13.805 -0.4743  0.0620  0.1445
  217SOD    SOD22345   3.138   0.648   6.127 -0.0313 -0.1049 -0.3968
  218SOD    SOD22346   2.943   3.552   5.067  0.0137  0.4753 -0.0031
  219SOD    SOD22347   6.581   5.504   0.979  0.0719  0.2781 -0.3029
  220SOD    SOD22348   1.268   5.311   2.176 -0.0767 -0.0598 -0.1224
  221SOD    SOD22349   2.203   1.113  17.119 -0.1529  0.3036 -0.1870
  222SOD    SOD22350   4.775   6.298  10.497  0.1726 -0.0156 -0.1115
  223SOD    SOD22351   5.046   1.299   0.063 -0.4153 -0.1597  0.1781
  224SOD    SOD22352   0.351   3.349   1.210 -0.2905  0.3355 -0.1877
  225SOD    SOD22353   1.013   2.090   6.251  0.2496  0.0649 -0.6366
  226SOD    SOD22354   5.884   0.367   4.919  0.1812 -0.0563 -0.0871
  227SOD    SOD22355   5.169   0.208   3.284  0.1038 -0.1121  0.0300
  228SOD    SOD22356   3.207   4.179  12.101  0.0850  0.3439 -0.0676
  229SOD    SOD22357   2.798   0.452  14.616 -0.0837 -0.4224  0.3040
  230SOD    SOD22358   1.436   0.741  11.794 -0.1172  0.0904  0.2236
  231SOD    SOD22359   1.298   4.708   3.374 -0.0408 -0.2904  0.5408
  232SOD    SOD22360   5.545   3.016  16.935 -0.1582 -0.2335  0.3750
  233SOD    SOD22361   6.800   2.428  11.189  0.2921  0.0478  0.5283
  234SOD    SOD22362   2.758   0.755  16.069 -0.0014  0.8014  0.2739
  235SOD    SOD22363   3.293   1.222   0.476  0.2559 -0.1250  0.2712
  236SOD    SOD22364   0.623   1.190  15.447 -0.3038 -0.7346  0.2263
  237SOD    SOD22365   0.459   1.339   4.233 -0.4960  0.1623 -0.0342
  238SOD    SOD22366   2.728   6.357  14.730  0.8713 -0.2775  0.0216
  239SOD    SOD22367   6.805   1.844   2.395 -0.3303 -0.4026 -0.1595
  240SOD    SOD22368   3.611   2.062  15.992  0.0596  0.0772  0.0763
  241SOD    SOD22369   1.965   1.184   1.075 -0.8249  0.2635  0.0665
  242SOD    SOD22370   3.468   3.085  14.662 -0.0126  0.0915 -0.0022
  243SOD    SOD22371   6.375   6.221  10.885 -0.0310  0.2768 -0.1625
  244SOD    SOD22372   2.221   0.824  12.875 -0.2390  0.0557  0.0592
  245SOD    SOD22373   2.419   6.496  11.246  0.2957 -0.0367 -0.4198
  246SOD    SOD22374   3.876   4.370   6.549 -0.3220  0.1997  0.2992
  247SOD    SOD22375   4.096   3.462  14.955  0.4875 -0.3209 -0.0908
  248SOD    SOD22376   5.913   5.564   2.595  0.2234 -0.0738  0.0240
  249SOD    SOD22377   6.584   6.697   6.536 -0.4225 -0.2412  0.2736
  250SOD    SOD22378   2.066   1.672   3.788  0.0073  0.1269  0.6581
  251SOD    SOD22379   5.653   0.823  11.738  0.1904 -0.5666  0.0117
  252SOD    SOD22380   1.857   5.000   3.663  0.0507 -0.5873 -0.8269
  253SOD    SOD22381   1.437   3.685  14.942 -0.4005  0.0387 -0.4433
  254SOD    SOD22382   0.265   6.334  11.329  0.0693 -0.0681  0.1807
  255SOD    SOD22383   3.040   3.059   6.197  0.0581 -0.1621 -0.1005
  256SOD    SOD22384   4.316   6.104   1.391 -1.0919  0.1610  0.6227
  257SOD    SOD22385   0.756   3.023  11.239 -0.6085 -0.0380 -0.0314
  258SOD    SOD22386   5.567   5.294  15.836 -0.3344  0.1869  0.4227
  259SOD    SOD22387   4.979   5.095   6.006  0.5108 -0.1662 -0.0197
  260SOD    SOD22388   0.233   2.640  12.782 -0.1291  0.2071  0.4170
  261SOD    SOD22389   6.068   2.759  11.664  0.6318  0.3237  0.3741
  262SOD    SOD22390   4.465   0.650   5.198 -0.2898 -0.2519 -0.2947
  263SOD    SOD22391   4.289   4.559   2.022 -0.3130 -0.0558 -0.1388
  264SOD    SOD22392   2.124   6.294  15.080 -0.3728 -0.0387  0.1665
  265SOD    SOD22393   2.812   6.542  11.863  0.7620  0.2046 -0.2356
  266CLA    CLA22394   1.624   0.311  15.254 -0.4176  0.3448  0.3748
  267CLA    CLA22395   5.608   3.526  17.097 -0.5070  0.3958  0.2714
  268CLA    CLA22396   1.861   0.595  15.606  0.1928 -0.2940 -0.0801
  269CLA    CLA22397   1.913   2.405  14.100 -0.6218 -0.3063  0.2714
  270CLA    CLA22398   2.012   0.904  13.308 -0.1357  0.0448  0.3348
  271CLA    CLA22399   5.405   6.640   3.792 -0.2337  0.4133 -0.3070
  272CLA    CLA22400   6.780   6.396  15.805 -0.1491  0.0204 -0.6326
  273CLA    CLA22401   2.716   2.722  12.534  0.0548 -0.0213  0.1434
  274CLA    CLA22402   1.786   4.664  12.150  0.0129 -0.0416 -0.5889
  275CLA    CLA22403   3.502   0.235   3.124  0.7247  0.0162  0.0336
  276CLA    CLA22404   0.596   6.686  11.467 -0.2819  0.1979 -0.1692
  277CLA    CLA22405   6.279   5.192  13.104 -0.1973 -0.1369 -0.0934
  278CLA    CLA22406   2.593   2.329   4.580  0.1206  0.2705  0.3846
  279CLA    CLA22407   6.101   3.405   0.473 -0.0510 -0.3728 -0.5149
  280CLA    CLA22408   5.378   1.396  15.726  0.0344 -0.3277 -0.1666
  281CLA    CLA22409   3.710   0.956  13.604 -0.4088 -0.0614  0.1188
  282CLA    CLA22410   6.774   2.743  12.385  0.1845 -0.0790 -0.0368
  283CLA    CLA22411   2.227   2.739   1.461  0.2793  0.1716 -0.1506
  284CLA    CLA22412   0.153   2.353  13.202 -0.0970 -0.2146 -0.1278
  285CLA    CLA22413   4.719   6.065   5.471 -0.2977  0.0475 -1.0248
  286CLA    CLA22414   5.822   3.091   6.161 -0.1524  0.4190 -0.4884
  287CLA    CLA22415   0.785   5.952   1.784  0.0296  0.1205 -0.0004
  288CLA    CLA22416   3.098   0.875   0.222  0.1102  0.4624 -0.2860
  289CLA    CLA22417   3.509   6.707  14.574 -0.3755 -0.3924  0.1812
  290CLA    CLA22418   6.202   3.761  12.382  0.3857 -0.0872  0.2065
  291CLA    CLA22419   0.926   6.424   3.612  0.1318  0.0661 -0.0114
  292CLA    CLA22420   2.418   5.455  16.403  0.4992 -0.0285  0.0238
  293CLA    CLA22421   2.293   1.665  13.021 -0.1930 -0.0902  0.4308
  294CLA    CLA22422   1.949   3.204  16.262  0.2579  0.6504  0.0997
  295CLA    CLA22423   1.060   1.663   2.803 -0.0833  0.3735 -0.1115
  296CLA    CLA22424   4.648   6.764   5.547 -0.5085  0.1524 -0.3950
  297CLA    CLA22425   6.582   6.628  10.759  0.6408  0.2877 -0.0987
  298CLA    CLA22426   1.426   6.051  14.240  0.1356 -0.2201 -0.2168
  299CLA    CLA22427   2.653   2.082  14.636  0.3442 -0.0640 -0.0383
  300CLA    CLA22428   1.962   5.341  16.622  0.0259 -0.3775 -0.1533
  301CLA    CLA22429   2.155   2.749  15.195  0.0139  0.0839  0.4341
  302CLA    CLA22430   5.670   1.224  11.552  0.1283 -0.1679 -0.0304
  303CLA    CLA22431   1.494   5.014  16.023 -0.1298  0.0323 -0.1831
  304CLA    CLA22432   4.513   5.336   1.323 -0.2123  0.0608 -0.3260
  305CLA    CLA22433   1.814   5.951   0.901  0.0417 -0.1233  0.0891
  306CLA    CLA22434   2.669   5.008  11.992 -0.1204  0.0492 -0.3170
  307CLA    CLA22435   4.528   6.749  16.844 -0.0207  0.1932  0.2771
  308CLA    CLA22436   6.390   2.008   3.991  0.1284  0.1507 -0.1936
  309CLA    CLA22437   3.399   3.703   3.915  0.4192 -0.1654 -0.1587
  310CLA    CLA22438   6.052   4.912   3.906 -0.1893 -0.2861 -0.1707
  311CLA    CLA22439   3.242   0.924   5.295  0.1900  0.2181 -0.1618
  312CLA    CLA22440   5.732   5.091  14.740 -0.1580  0.5896 -0.2107
  313CLA    CLA22441   0.789   0.841   3.921  0.2217 -0.1071 -0.1638
  314CLA    CLA22442   0.059   3.680  14.868  0.0920 -0.0376  0.1099
  315CLA    CLA22443   6.051   3.277   3.636 -0.5088 -0.0258  0.0431
  316CLA    CLA22444   0.424   5.846  12.903 -0.0260  0.1132  0.0165
  317CLA    CLA22445   0.618   4.173   1.632 -0.0995  0.2822 -0.2230
  318CLA    CLA22446   4.528   4.543  14.896  0.3395  0.3211  0.1649
  319TIP3   OH222447   0.096   1.436   4.584 -0.2690  0.0129 -0.0456
  319TIP3    H122448   0.182   1.458   4.620  0.3195 -3.4905  1.0101
  319TIP3    H222449   0.047   1.401   4.658 -0.8718 -2.5001 -1.4984
  320TIP3   OH222450   6.177   2.129   1.548 -0.2759  0.1304  0.1438
  320TIP3    H122451   6.230   2.204   1.577  0.6340 -0.1653 -0.7115
  320TIP3    H222452   6.220   2.099   1.468 -1.2719 -0.6377 -0.1142
  321TIP3   OH222453   3.148   2.748  14.680  0.0321 -0.2779 -0.0680
  321TIP3    H122454   3.073   2.694  14.705 -0.2939 -0.0858 -0.6240
  321TIP3    H222455   3.224   2.693  14.698 -0.2507 -0.5555  0.2863
  322TIP3   OH222456   6.413   0.586  13.096  0.5421  0.5958  0.7684
  322TIP3    H122457   6.383   0.591  13.187  0.3214  0.1667  0.7223
  322TIP3    H222458   6.339   0.619  13.045 -0.0167 -0.8248  0.6266
  323TIP3   OH222459   6.168   3.559  16.673  0.6671  0.1259 -1.3196
  323TIP3    H122460   6.163   3.551  16.769 -0.3727 -2.6582 -1.5081
  323TIP3    H222461   6.235   3.626  16.658  1.0109  0.5045  1.3364
  324TIP3   OH222462   6.345   4.588  11.305 -0.0575  0.0345  0.3799
  324TIP3    H122463   6.430   4.579  11.348 -0.5796 -2.1900  1.0940
  324TIP3    H222464   6.349   4.528  11.231 -0.5665  0.8894 -0.3556
  325TIP3   OH222465   2.059   6.001  13.136  0.1931 -0.2241 -0.1246
  325TIP3    H122466   2.049   5.907  13.124 -1.9391 -0.1012  0.3070
  325TIP3    H222467   2.020   6.040  13.058 -2.2847  0.3130  1.2912
  326TIP3   OH222468   1.555   1.370   3.320  0.7018  0.0714  0.0711
  326TIP3    H122469   1.605   1.329   3.391 -0.2602 -1.2623  0.0206
  326TIP3    H222470   1.621   1.419   3.271  1.6048  0.0165  1.1606
  327TIP3   OH222471   0.462   6.185   2.204 -0.0943  0.1562 -0.3430
  327TIP3    H122472   0.371   6.211   2.194 -1.0884 -3.3488 -1.9936
  327TIP3    H222473   0.463   6.092   2.183  3.7566 -0.1740  0.5057
  328TIP3   OH222474   5.378   4.192  13.688 -0.0567 -0.3521  0.6927
  328TIP3    H122475   5.312   4.208  13.755  0.8386 -0.9806  1.7635
  328TIP3    H222476   5.459   4.229  13.724  0.9862 -2.7711  1.0889
  329TIP3   OH222477   2.942   5.531  17.016 -0.0915 -0.4703 -0.3415
  329TIP3    H122478   2.854   5.558  16.988 -0.8870 -1.0240  1.4764
  329TIP3    H222479   2.944   5.548  17.110  2.5501  1.5381 -0.6348
  330TIP3   OH222480   5.677   4.418   4.711 -0.4914  0.2708  0.4257
  330TIP3    H122481   5.652   4.340   4.759  0.6458  0.2948  1.0960
  330TIP3    H222482   5.749   4.389   4.655  0.0418  0.8677  0.7966
  331TIP3   OH222483   5.951   4.216   1.817 -0.4054  0.2189 -0.0742
  331TIP3    H122484   5.911   4.303   1.816 -1.1169 -0.1032 -0.3635
  331TIP3    H222485   5.953   4.190   1.725  0.2020  0.1014 -0.0322
  332TIP3   OH222486   1.125   3.801  16.668 -0.0672 -0.1576  0.0404
  332TIP3    H122487   1.197   3.755  16.623  0.2794  1.4111 -1.0845
  332TIP3    H222488   1.049   3.744  16.656  0.4650 -0.7063 -0.8463
  333TIP3   OH222489   2.520   1.279   2.203 -0.2288  0.4359  0.1697
  333TIP3    H122490   2.573   1.291   2.125  0.2495 -1.8702  0.0621
  333TIP3    H222491   2.470   1.360   2.212  2.9833  2.6131  0.0663
  334TIP3   OH222492   1.161   2.500  16.326  0.3997  0.2769  0.1683
  334TIP3    H122493   1.195   2.531  16.242  1.0241  0.6589  0.5576
  334TIP3    H222494   1.180   2.406  16.326  1.2853  0.4475  0.2935
  335TIP3   OH222495   2.461   0.987   6.667 -0.1788 -0.1301  0.8550
  335TIP3    H122496   2.431   1.073   6.639 -4.1084 -1.0524  1.5923
  335TIP3    H222497   2.556   0.995   6.674 -0.2938  3.7929 -0.0602
  336TIP3   OH222498   2.364   3.133  14.891 -0.1074  0.1954  0.6263
  336TIP3    H122499   2.281   3.086  14.902  1.0058 -1.9796  0.3368
  336TIP3    H222500   2.422   3.095  14.958  0.6701  1.7111  0.8613
  337TIP3   OH222501   2.227   2.681  14.302 -0.3445 -0.7236  0.1524
  337TIP3    H122502   2.164   2.734  14.352  0.0790  1.5096 -1.5122
  337TIP3    H222503   2.185   2.667  14.217 -0.1068 -2.4865  0.2856
  338TIP3   OH222504   2.734   0.986   6.558 -0.3196 -0.3107 -0.2102
  338TIP3    H122505   2.795   1.002   6.486 -1.4046 -0.6274 -1.2114
  338TIP3    H222506   2.752   1.056   6.620 -0.6775  1.1065 -1.6612
  339TIP3   OH222507   5.067   0.700  14.994  0.3884  0.7266 -0.5778
  339TIP3    H122508   4.987   0.716  14.944 -0.3522 -1.1479 -0.1037
  339TIP3    H222509   5.036   0.657  15.074  1.8985 -0.6987 -0.7039
  340TIP3   OH222510   3.911   3.377   0.349  0.0410 -0.2468  0.2066
  340TIP3    H122511   4.006   3.365   0.356 -0.1206 -1.3055  0.8513
  340TIP3    H222512   3.901   3.456   0.296  1.2765 -0.6355 -0.6588
  341TIP3   OH222513   1.209   5.472   0.398  0.3712 -0.4553  0.2807
  341TIP3    H122514   1.141   5.431   0.345 -0.6499  0.5505  0.7851
  341TIP3    H222515   1.218   5.560   0.363  2.4526 -0.9942 -0.6985
  342TIP3   OH222516   6.371   5.418  11.860 -0.2551  0.3132  0.1452
  342TIP3    H122517   6.342   5.328  11.877  0.2263  0.1355  0.0481
  342TIP3    H222518   6.424   5.411  11.781  2.4551  0.1124  1.8611
  343TIP3   OH222519   0.764   3.744  16.916 -0.1983  0.2881  1.1296
  343TIP3    H122520   0.673   3.745  16.885 -0.6594  1.3416  2.4514
  343TIP3    H222521   0.796   3.832  16.899  1.1109 -0.4689 -0.6986
  344TIP3   OH222522   2.680   1.095  15.264  0.4208 -0.4896 -0.1456
  344TIP3    H122523   2.699   1.122  15.175  0.6013  0.7631  0.2608
  344TIP3    H222524   2.755   1.042  15.290 -0.0994 -1.7473 -1.0658
  345TIP3   OH222525   0.043   4.784   2.760  0.2862  0.2045  0.1909
  345TIP3    H122526  -0.042   4.740   2.765  0.4225 -0.0918 -0.0436
  345TIP3    H222527   0.099   4.722   2.712 -0.0428  1.4597 -1.9655
  346TIP3   OH222528   1.116   1.921   0.619 -0.5918 -0.2620 -0.1885
  346TIP3    H122529   1.133   1.998   0.672 -1.9565  0.3688 -0.6200
  346TIP3    H222530   1.195   1.911   0.565  0.6986 -0.7566  1.6946
  347TIP3   OH222531   6.493   1.577  13.547  0.0718  0.3516 -0.0732
  347TIP3    H122532   6.557   1.515  13.511  2.4862  0.7227  3.0944
  347TIP3    H222533   6.465   1.629  13.472  1.4404 -1.6043 -2.0687
  348TIP3   OH222534   6.270   4.252  13.433  0.3618 -0.6361  0.1259
  348TIP3    H122535   6.261   4.158  13.423  2.0005 -0.6971 -1.5095
  348TIP3    H222536   6.235   4.288  13.352  0.5458  0.0820  0.3559
  349TIP3   OH222537   0.403   5.338   5.521 -0.3063 -0.4188  0.2317
  349TIP3    H122538   0.438   5.394   5.590  1.3045 -4.3280  2.9816
  349TIP3    H222539   0.469   5.343   5.451 -0.6727  1.6433 -0.0375
  350TIP3   OH222540   0.871   0.142  13.110  0.8610  0.1511  0.1457
  350TIP3    H122541   0.802   0.076  13.104  0.5289  0.5036 -0.0227
  350TIP3    H222542   0.828   0.223  13.083  1.7875  0.0749 -1.7113
  351TIP3   OH222543   1.151   4.953   3.007  0.2591 -0.5750  0.0299
  351TIP3    H122544   1.087   4.889   2.974  0.1315 -0.0388 -0.8135
  351TIP3    H222545   1.116   4.981   3.092 -0.2614 -0.8112 -0.1028
  352TIP3   OH222546   5.795   3.068  14.751  0.4309 -0.2030  0.0949
  352TIP3    H122547   5.829   3.082  14.839 -0.6860 -1.2921  0.7196
  352TIP3    H222548   5.770   3.155  14.721  0.6810  0.1574  0.9082
  353TIP3   OH222549   0.800   5.434  15.194 -0.0262 -0.4882 -0.1012
  353TIP3    H122550   0.785   5.507  15.133  0.7721  0.3622  0.6802
  353TIP3    H222551   0.752   5.360  15.155 -0.9811  0.4776 -0.8409
  354TIP3   OH222552   0.339   0.855  13.850  0.1938 -0.2739 -0.4931
  354TIP3    H122553   0.421   0.811  13.827  0.2016  0.7806 -2.7855
  354TIP3    H222554   0.355   0.895  13.935  1.7696 -0.7766 -0.5327
  355TIP3   OH222555   2.359   3.219   1.505  0.4783 -0.0068  0.1172
  355TIP3    H122556   2.272   3.243   1.539  0.1482 -0.3242 -0.4812
  355TIP3    H222557   2.342   3.145   1.448  1.2249 -0.3884  0.3871
  356TIP3   OH222558   4.401   5.499   2.471 -0.5261  0.3234 -0.3821
  356TIP3    H122559   4.386   5.579   2.522  0.9083  1.2584 -1.3513
  356TIP3    H222560   4.313   5.470   2.445 -1.2556  0.0826  2.1522
  357TIP3   OH222561   4.029   2.728  15.358  0.1945 -0.0522  0.0112
  357TIP3    H122562   4.107   2.707  15.407  0.8717  0.0984 -0.9681
  357TIP3    H222563   4.060   2.779  15.283 -0.9047  0.5829 -0.0466
  358TIP3   OH222564   4.233   1.951   5.643 -0.3892  0.6918 -0.5345
  358TIP3    H122565   4.157   1.923   5.592 -0.8508  0.6739  0.1646
  358TIP3    H222566   4.198   1.980   5.726  0.4365  0.0120  0.0713
  359TIP3   OH222567   5.165   5.391   4.657  0.6380  0.0571  0.2619
  359TIP3    H122568   5.213   5.358   4.733 -0.5215  0.1270  1.0556
  359TIP3    H222569   5.073   5.392   4.686  0.1961  0.2067 -1.1035
  360TIP3   OH222570   2.682   3.136   2.064  0.0030 -0.4916 -0.3636
  360TIP3    H122571   2.608   3.088   2.028 -0.4195 -1.3265  1.4781
  360TIP3    H222572   2.650   3.169   2.148  1.4110  0.0175 -0.0002
  361TIP3   OH222573   0.777   4.022  16.914 -0.3144 -0.5726  0.5229
  361TIP3    H122574   0.712   4.033  16.983 -0.3198 -0.6738  0.5343
  361TIP3    H222575   0.810   4.110  16.898  1.8336 -0.8406  2.7631
  362TIP3   OH222576   3.136   4.038   1.035 -0.1115  0.2943 -0.1573
  362TIP3    H122577   3.050   3.998   1.044 -0.0946  0.0080 -1.2170
  362TIP3    H222578   3.186   4.005   1.110 -0.8834  0.3747  0.4004
  363TIP3   OH222579   5.787   2.617   3.863  0.0356 -0.0586  0.0491
  363TIP3    H122580   5.824   2.605   3.950 -0.7337 -0.9165  0.2723
  363TIP3    H222581   5.845   2.569   3.805  0.2859  0.1225  0.1481
  364TIP3   OH222582   1.453   5.183   2.160 -0.3875 -0.1532  0.4253
  364TIP3    H122583   1.537   5.150   2.127 -0.8152  0.8940 -1.8415
  364TIP3    H222584   1.440   5.136   2.242  1.5062 -1.7387 -0.1131
  365TIP3   OH222585   2.806   2.410  13.267 -0.5143 -0.0506  0.2646
  365TIP3    H122586   2.835   2.437  13.180 -0.7483 -0.5545  0.0250
  365TIP3    H222587   2.735   2.471  13.288  2.2901  2.9726  1.9935
  366TIP3   OH222588   0.488   2.453   6.296  0.2901 -0.2778  0.5011
  366TIP3    H122589   0.552   2.496   6.353  0.7008 -0.4404  0.1660
  366TIP3    H222590   0.462   2.375   6.345 -0.3467  0.2602  1.0453
  367TIP3   OH222591   4.095   2.402   4.235  0.2272 -0.3450  0.2818
  367TIP3    H122592   4.028   2.411   4.167  1.8926 -0.3435 -1.4581
  367TIP3    H222593   4.096   2.486   4.280  1.8048  1.2167 -2.4193
  368TIP3   OH222594   3.004   6.209   1.826 -0.0647 -0.2631 -0.0373
  368TIP3    H122595   2.974   6.199   1.736 -0.9443 -1.7574  0.3736
  368TIP3    H222596   2.931   6.176   1.879  1.4070 -1.8754  1.0951
  369TIP3   OH222597   4.664   3.089  10.865  0.1298  0.1604 -0.8403
  369TIP3    H122598   4.718   3.168  10.859  1.0969 -0.3642  0.4433
  369TIP3    H222599   4.576   3.122  10.885  0.4283  0.9295 -0.7662
  370TIP3   OH222600   6.174   5.862   5.761 -0.1473 -0.0866 -0.5646
  370TIP3    H122601   6.134   5.943   5.791  1.4273  0.9536 -1.1469
  370TIP3    H222602   6.133   5.845   5.676 -1.1487 -0.4300 -0.0263
  371TIP3   OH222603   1.775   6.348  16.887 -0.6840  0.5595 -0.1601
  371TIP3    H122604   1.802   6.435  16.919  0.8459  0.4807 -1.1081
  371TIP3    H222605   1.787   6.353  16.792 -0.7848 -0.6267 -0.2452
  372TIP3   OH222606   2.404   0.043   0.796 -0.2419 -0.5825 -0.0023
  372TIP3    H122607   2.396   0.113   0.731  0.7225 -0.4920 -0.0379
  372TIP3    H222608   2.405  -0.038   0.744 -1.3178 -0.6361  0.0366
  373TIP3   OH222609   3.591   6.662  11.792  0.1261  0.1497  0.1124
  373TIP3    H122610   3.541   6.584  11.767  0.0322 -0.0528  0.8946
  373TIP3    H222611   3.658   6.671  11.725 -0.3394 -0.1617 -0.4000
  374TIP3   OH222612   3.224   4.850  14.996 -0.0661  0.4285 -0.2238
  374TIP3    H122613   3.276   4.850  15.076 -0.0941 -0.4970 -0.1886
  374TIP3    H222614   3.285   4.872  14.926  0.7261 -1.9642 -0.3695
  375TIP3   OH222615   0.276   0.574  16.085 -0.0063  0.1470  0.0087
  375TIP3    H122616   0.305   0.648  16.031 -1.4979  1.5711  1.0711
  375TIP3    H222617   0.186   0.595  16.108 -0.6051 -2.2129  0.0581
  376TIP3   OH222618   6.664   3.202   2.328  0.2704  0.3815 -0.4070
  376TIP3    H122619   6.603   3.139   2.289  2.2527 -0.9465 -1.5130
  376TIP3    H222620   6.659   3.279   2.271 -1.1669  0.7734  0.1853
  377TIP3   OH222621   4.204   2.397  13.875  0.0056 -1.1018  0.4398
  377TIP3    H122622   4.280   2.348  13.840  0.0893  0.5338 -1.9326
  377TIP3    H222623   4.130   2.362  13.827 -0.4723 -1.3231  1.3238
  378TIP3   OH222624   2.399   4.734  16.785 -0.2966  0.0479 -0.1785
  378TIP3    H122625   2.327   4.691  16.738 -0.8495 -0.5918  1.1943
  378TIP3    H222626   2.386   4.828  16.769 -2.0463  0.0166  0.8451
  379TIP3   OH222627   2.794   4.511  13.131 -0.1504  0.5613  0.5614
  379TIP3    H122628   2.727   4.504  13.199 -0.2061  1.1455  0.5722
  379TIP3    H222629   2.826   4.601  13.137  0.8514  0.2064  0.7505
  380TIP3   OH222630   5.564   2.606   5.563 -0.1441  0.7697  0.5363
  380TIP3    H122631   5.498   2.650   5.616 -0.8880  0.7221 -0.3348
  380TIP3    H222632   5.515   2.545   5.508  0.6704  0.3747  0.2232
  381TIP3   OH222633   1.960   3.007   1.713 -0.0342 -0.0742 -0.2193
  381TIP3    H122634   1.976   2.986   1.804 -2.0739  0.6569  0.3650
  381TIP3    H222635   1.952   2.922   1.669  0.7360 -0.4225  0.2986
  382TIP3   OH222636   0.720   0.369   6.507 -0.0822 -0.3920 -0.2274
  382TIP3    H122637   0.735   0.277   6.528  0.7989  0.1233  1.6597
  382TIP3    H222638   0.627   0.382   6.523 -0.0256 -0.7573  0.4630
  383TIP3   OH222639   1.759   2.928   5.207  0.6511 -0.1327  0.7041
  383TIP3    H122640   1.664   2.937   5.212  0.7585  0.2791  2.1191
  383TIP3    H222641   1.772   2.862   5.139 -0.6600 -0.4959  0.7760
  384TIP3   OH222642   1.792   3.185  13.493  0.2216 -0.5179 -0.2933
  384TIP3    H122643   1.712   3.132  13.506  0.4111 -0.4141  1.4872
  384TIP3    H222644   1.806   3.182  13.398 -1.8199 -0.6525 -0.6577
  385TIP3   OH222645   2.496   5.476  16.687 -0.1409 -0.0628 -0.7410
  385TIP3    H122646   2.584   5.502  16.660  0.0488  1.2220  1.0058
  385TIP3    H222647   2.446   5.477  16.605  1.2786 -0.1612 -1.6621
  386TIP3   OH222648   5.331   1.894   2.194 -0.2794  0.3631  0.3339
  386TIP3    H122649   5.345   1.886   2.100 -0.6635  0.2824  0.2827
  386TIP3    H222650   5.418   1.915   2.230 -0.0445 -0.0433  0.0136
  387TIP3   OH222651   3.094   6.631   3.124  0.2551  0.3671 -0.8223
  387TIP3    H122652   3.042   6.627   3.044 -0.6558  2.0943 -0.3790
  387TIP3    H222653   3.177   6.669   3.096 -0.0564  0.9547 -0.9750
  388TIP3   OH222654   0.520   5.118  15.358 -0.2699  0.4975  0.1955
  388TIP3    H122655   0.485   5.039  15.317 -1.0925  1.1414 -0.3742
  388TIP3    H222656   0.606   5.129  15.319  1.5308 -2.1409  2.9349
  389TIP3   OH222657   5.490   4.522  11.072 -0.4365  0.5751 -0.1933
  389TIP3    H122658   5.449   4.456  11.016 -1.4426  1.5349 -0.6501
  389TIP3    H222659   5.584   4.510  11.060 -0.6126 -0.5326 -0.5313
  390TIP3   OH222660   0.300   0.529   4.776  0.0150 -0.1101 -0.3801
  390TIP3    H122661   0.294   0.539   4.871 -0.6900 -0.9290 -0.3349
  390TIP3    H222662   0.245   0.454   4.755 -0.3825  0.4718 -1.5200
  391TIP3   OH222663   4.811   4.213   4.075 -0.2152  0.9520  0.4472
  391TIP3    H122664   4.842   4.155   4.144 -0.6706  0.8840  0.5910
  391TIP3    H222665   4.889   4.263   4.050  0.0557  0.6559  0.6892
  392TIP3   OH222666   4.922   2.687  11.061 -0.0323 -0.3720  0.2209
  392TIP3    H122667   5.015   2.702  11.047  0.4274 -1.7101  1.5970
  392TIP3    H222668   4.880   2.715  10.979  1.5305  0.5084 -0.3063
  393TIP3   OH222669   0.568   0.248   1.763  0.4219 -0.4538 -0.2498
  393TIP3    H122670   0.492   0.306   1.770  1.2644  0.5287  1.2629
  393TIP3    H222671   0.541   0.181   1.700 -1.2914  0.4770 -0.5672
  394TIP3   OH222672   1.887   6.289  13.258 -0.2861 -0.0311 -0.0477
  394TIP3    H122673   1.959   6.270  13.318 -0.5935 -0.0906  0.3045
  394TIP3    H222674   1.821   6.222  13.278 -1.0744  0.9341  0.6972
  395TIP3   OH222675   4.167   1.540  12.488  0.2893 -0.0031  0.4292
  395TIP3    H122676   4.122   1.513  12.408 -1.9350  3.4467  0.2972
  395TIP3    H222677   4.116   1.502  12.559 -0.5954  0.7320  0.2116
  396TIP3   OH222678   0.106   0.746   5.687 -0.0045 -0.7926 -0.1257
  396TIP3    H122679   0.021   0.786   5.670 -0.3277 -0.2022  2.4137
  396TIP3    H222680   0.099   0.712   5.777  2.3583 -0.9309  0.0695
  397TIP3   OH222681   4.448   5.351  11.936  0.2346 -0.0590 -0.3270
  397TIP3    H122682   4.354   5.349  11.953  0.5269  0.3439  1.5359
  397TIP3    H222683   4.459   5.419  11.869 -0.7222  0.4905  0.0579
  398TIP3   OH222684   5.129   1.701   4.484 -0.4650 -0.4167 -0.7151
  398TIP3    H122685   5.140   1.795   4.494  0.9323 -0.6810  0.5481
  398TIP3    H222686   5.045   1.682   4.524 -0.7201  0.2743 -0.9120
  399TIP3   OH222687   6.633   0.694  12.713  0.0439 -0.2026  0.2786
  399TIP3    H122688   6.636   0.790  12.707 -0.5245 -0.1435  0.9516
  399TIP3    H222689   6.681   0.665  12.635 -1.3324  0.6156 -0.9135
  400TIP3   OH222690   1.266   6.429   5.416  0.4383  0.4978 -0.0278
  400TIP3    H122691   1.192   6.382   5.454  1.2019 -3.0517 -2.5052
  400TIP3    H222692   1.236   6.520   5.412 -2.1218 -0.0547  2.8050
  401TIP3   OH222693   4.692   3.569   1.867 -0.0654 -0.0344 -0.0345
  401TIP3    H122694   4.720   3.635   1.804  0.1218 -0.4476 -0.3881
  401TIP3    H222695   4.622   3.520   1.821 -2.3753  1.8232  1.2835
  402TIP3   OH222696   6.633   0.332   5.401 -0.1893  0.2513  0.1644
  402TIP3    H122697   6.658   0.239   5.401  1.3565  0.6413  0.0172
  402TIP3    H222698   6.606   0.349   5.311 -0.2931  0.0057  0.1462
  403TIP3   OH222699   2.514   1.517  12.148  0.3592 -0.2694  0.0688
  403TIP3    H122700   2.528   1.610  12.130  0.6727 -0.5887 -1.4662
  403TIP3    H222701   2.428   1.513  12.190  0.0624  0.6549 -0.4166
  404TIP3   OH222702   1.701   1.024   1.861  0.0948  0.1055 -0.1785
  404TIP3    H122703   1.670   0.965   1.792 -1.3818  0.0689  0.4887
  404TIP3    H222704   1.633   1.021   1.928  0.1079  2.3648  0.0113
  405TIP3   OH222705   3.645   5.328   3.608 -0.3735 -0.1103 -0.0887
  405TIP3    H122706   3.665   5.331   3.514  2.0295  0.5895  0.3794
  405TIP3    H222707   3.550   5.312   3.612 -0.7788  1.2082 -2.6277
  406TIP3   OH222708   3.489   5.945  10.615 -0.3043  0.0236  0.4566
  406TIP3    H122709   3.421   5.943  10.548  1.5785  0.6779 -1.6024
  406TIP3    H222710   3.547   5.871  10.593 -0.3519 -0.6036  2.2268
  407TIP3   OH222711   0.990   2.636  12.866  0.2422  0.4864 -0.8241
  407TIP3    H122712   0.982   2.544  12.888  1.0556  0.9700  1.8409
  407TIP3    H222713   1.002   2.637  12.771  0.9884 -2.1926 -0.8370
  408TIP3   OH222714   1.865   3.715   4.468  0.2609 -0.6368 -0.3684
  408TIP3    H122715   1.886   3.710   4.561 -1.1063  0.0179  0.0045
  408TIP3    H222716   1.896   3.801   4.441 -3.6309  1.3922  0.7495
  409TIP3   OH222717   0.224   4.523   1.976 -0.1169  0.2025  0.3677
  409TIP3    H122718   0.137   4.483   1.970 -0.0936  0.2881 -0.7656
  409TIP3    H222719   0.283   4.456   1.942  0.0130  0.8969 -0.8156
  410TIP3   OH222720   5.374   4.011  15.745  0.0151  0.0797  0.3410
  410TIP3    H122721   5.390   3.938  15.805  0.0447  0.5831  0.9481
  410TIP3    H222722   5.459   4.026  15.703 -0.2874 -1.0752 -0.7580
  411TIP3   OH222723   3.525   2.905   2.249 -0.6563 -0.8801 -0.1729
  411TIP3    H122724   3.535   2.997   2.225 -2.0646  0.6900  4.2185
  411TIP3    H222725   3.612   2.866   2.234  1.1259  2.1817  1.1535
  412TIP3   OH222726   4.726   4.924   3.666 -0.1072 -0.4430  0.0023
  412TIP3    H122727   4.729   4.966   3.580  2.9585  0.5297  0.4359
  412TIP3    H222728   4.726   4.830   3.647 -3.8217 -0.3711 -0.9750
  413TIP3   OH222729   3.081   4.509   1.025 -0.0588 -0.3442  0.0698
  413TIP3    H122730   3.060   4.476   1.113  1.2957 -0.1232  0.4921
  413TIP3    H222731   3.111   4.432   0.977  0.5367 -0.2164  0.2332
  414TIP3   OH222732   5.086   4.166  11.412 -0.4064  0.3201  0.2909
  414TIP3    H122733   4.998   4.138  11.437 -1.5477  1.5438 -2.0424
  414TIP3    H222734   5.087   4.260  11.431  0.6620  0.1809  0.9659
  415TIP3   OH222735   4.375   4.285   5.612  0.0379 -0.5389 -0.0250
  415TIP3    H122736   4.425   4.251   5.686  0.0563 -0.9593 -0.2237
  415TIP3    H222737   4.284   4.264   5.633  0.0376 -0.6069 -0.0917
  416TIP3   OH222738   4.980   6.391   3.392  0.1332  0.6101 -0.2482
  416TIP3    H122739   4.918   6.390   3.465 -1.0857 -2.2841 -1.1670
  416TIP3    H222740   4.926   6.408   3.315  1.0271  1.2559 -0.7493
  417TIP3   OH222741   0.400   5.775   5.313 -0.4646  0.2442 -0.3206
  417TIP3    H122742   0.352   5.850   5.347  1.2133  0.8155  0.9125
  417TIP3    H222743   0.396   5.710   5.383  2.9177  1.3883  1.1394
  418TIP3   OH222744   4.650   2.209  13.062  0.2248 -0.0063  0.3919
  418TIP3    H122745   4.626   2.119  13.083 -1.5710 -0.3499 -2.5367
  418TIP3    H222746   4.585   2.262  13.109  0.4921 -0.2941  1.0971
  419TIP3   OH222747   1.431   6.161   2.178 -0.4637  0.3666 -0.1543
  419TIP3    H122748   1.380   6.220   2.122  0.0825 -0.4523 -1.5816
  419TIP3    H222749   1.488   6.219   2.228 -1.3616  1.1609 -0.0224
  420TIP3   OH222750   5.858   2.888  15.076  0.9424  0.0630  0.0141
  420TIP3    H122751   5.938   2.870  15.028  0.3629  1.0046 -1.3595
  420TIP3    H222752   5.825   2.801  15.100  0.7923 -0.5156 -2.0898
  421TIP3   OH222753   4.165   6.363   6.619  0.1869 -0.3920  0.4319
  421TIP3    H122754   4.230   6.414   6.668  0.0434  1.4190 -1.1790
  421TIP3    H222755   4.215   6.324   6.547 -0.4523  0.9094 -0.7448
  422TIP3   OH222756   4.090   4.944  16.233  0.6043  0.3212  0.3672
  422TIP3    H122757   4.140   5.026  16.231  0.3923  0.4448  0.0980
  422TIP3    H222758   4.060   4.936  16.323  0.1133  0.8484  0.2515
  423TIP3   OH222759   5.525   3.588   3.123  0.0946 -0.0608 -0.4462
  423TIP3    H122760   5.459   3.542   3.072 -0.6245  0.2535  0.1918
  423TIP3    H222761   5.478   3.622   3.199  1.4792 -1.9455  1.3427
  424TIP3   OH222762   6.494   5.455  10.747 -0.2904  0.0694 -0.2256
  424TIP3    H122763   6.573   5.504  10.770 -0.6386  0.3842  0.3354
  424TIP3    H222764   6.444   5.515  10.693 -0.1071 -0.1643 -0.6583
  425TIP3   OH222765   6.624   4.228  16.609 -0.5426 -0.0856 -0.2464
  425TIP3    H122766   6.706   4.242  16.656  0.9597 -1.6575 -2.1809
  425TIP3    H222767   6.611   4.308  16.558  1.1797 -0.7108 -1.7724
  426TIP3   OH222768   2.695   5.155  17.221 -0.1940 -0.3366 -0.4954
  426TIP3    H122769   2.756   5.085  17.197 -1.3537 -1.4476 -0.3116
  426TIP3    H222770   2.641   5.167  17.143  1.3238  1.8850 -1.2970
  427TIP3   OH222771   0.935   6.761   4.437 -0.2041 -0.1648  0.3069
  427TIP3    H122772   0.933   6.818   4.360 -0.2357  0.1999  0.5731
  427TIP3    H222773   0.882   6.685   4.412 -1.5098  0.6537  0.5105
  428TIP3   OH222774   2.652   5.656  16.375  0.5164 -0.0023  0.3599
  428TIP3    H122775   2.675   5.677  16.466 -0.2458 -0.4840  0.6822
  428TIP3    H222776   2.582   5.590  16.383  0.3314  0.0639 -0.5761
  429TIP3   OH222777   6.382   2.238   2.104 -0.1794  0.1596 -0.2646
  429TIP3    H122778   6.477   2.253   2.098 -0.2867  0.3548 -2.0006
  429TIP3    H222779   6.346   2.286   2.030 -1.6504  0.0535  0.3547
  430TIP3   OH222780   3.752   6.715   3.572  0.1280 -0.7942 -0.1092
  430TIP3    H122781   3.685   6.769   3.613 -0.8820 -3.0695  1.4513
  430TIP3    H222782   3.835   6.755   3.598 -0.5540 -0.6991  2.0592
  431TIP3   OH222783   5.673   2.387  14.905  0.5269 -0.1601  0.4343
  431TIP3    H122784   5.580   2.368  14.896  0.9887 -1.8826 -1.5809
  431TIP3    H222785   5.701   2.333  14.980  0.1648 -0.7428  0.1601
  432TIP3   OH222786   5.482   5.223   4.888 -0.0985 -0.4974 -0.7272
  432TIP3    H122787   5.477   5.182   4.802 -1.3337  1.7502 -1.8383
  432TIP3    H222788   5.546   5.294   4.876 -1.2770  0.6806 -0.2271
  433TIP3   OH222789   5.415   1.545  16.202  0.5424  0.0492  0.2913
  433TIP3    H122790   5.410   1.449  16.206  0.5584  0.0472  0.2567
  433TIP3    H222791   5.482   1.563  16.137  0.2706  0.0865  0.0165
  434TIP3   OH222792   3.905   3.138   6.164 -0.1131  0.5309  0.2486
  434TIP3    H122793   3.982   3.193   6.176  0.2181 -0.0737  0.9750
  434TIP3    H222794   3.918   3.098   6.078  0.6275  0.0787  0.5588
  435TIP3   OH222795   4.344   0.934   1.597  0.0041 -0.0788  0.0360
  435TIP3    H122796   4.329   0.845   1.566  0.6746 -0.2290  0.1349
  435TIP3    H222797   4.321   0.932   1.690  1.4213 -0.5259  0.3986
  436TIP3   OH222798   1.878   6.367  12.113  0.1289  0.4567  0.1642
  436TIP3    H122799   1.914   6.455  12.104  0.1374  0.3197 -1.2636
  436TIP3    H222800   1.937   6.311  12.063 -0.6893 -0.1347 -0.1725
  437TIP3   OH222801   4.147   4.635  16.465 -0.4097  0.2693 -0.4817
  437TIP3    H122802   4.221   4.615  16.522 -1.0025 -0.9860 -0.1311
  437TIP3    H222803   4.186   4.680  16.390  0.7428 -0.6491 -0.4484
  438TIP3   OH222804   3.085   0.253  12.831  0.3857 -0.0509 -0.3153
  438TIP3    H122805   3.004   0.272  12.785  0.6038  0.8168 -0.3586
  438TIP3    H222806   3.092   0.158  12.829 -0.7494 -0.1501 -0.0982
  439TIP3   OH222807   1.704   3.350  15.312  0.1377  0.1631  0.6436
  439TIP3    H122808   1.773   3.288  15.336  2.0684  1.9545  0.0066
  439TIP3    H222809   1.713   3.359  15.217 -0.7765  0.6661  0.5977
  440TIP3   OH222810   5.466   1.913   0.831 -0.0466  0.1901 -0.2689
  440TIP3    H122811   5.547   1.945   0.792  0.4267 -0.4435  0.1889
  440TIP3    H222812   5.474   1.933   0.924  0.4590 -1.6204  0.1077
  441TIP3   OH222813   5.552   1.525   6.188  0.0611  0.6089  0.2330
  441TIP3    H122814   5.567   1.513   6.281  0.3740  0.2847  0.1402
  441TIP3    H222815   5.457   1.534   6.180  0.1307  1.9253  0.7259
  442TIP3   OH222816   4.541   1.479   1.016  0.0315 -0.3344  0.0277
  442TIP3    H122817   4.488   1.557   1.001  1.2879  0.7517  0.9247
  442TIP3    H222818   4.478   1.409   1.030 -1.1691  0.9029  1.0782
  443TIP3   OH222819   6.506   5.916  12.939  0.0431  0.6497  0.0430
  443TIP3    H122820   6.458   5.843  12.978  0.9090 -0.6898 -1.2623
  443TIP3    H222821   6.583   5.928  12.996  1.1648 -1.1193 -0.9930
  444TIP3   OH222822   3.515   0.355  17.003 -0.4295 -0.4539  0.3392
  444TIP3    H122823   3.436   0.383  16.957  0.1745 -0.6681 -0.8642
  444TIP3    H222824   3.544   0.433  17.051 -1.2833 -0.3371  0.6793
  445TIP3   OH222825   0.280   2.493   5.907 -0.1158 -0.3218  0.3294
  445TIP3    H122826   0.251   2.404   5.888 -0.9259  0.2150 -1.1179
  445TIP3    H222827   0.342   2.515   5.837 -1.5418  0.9593 -0.6107
  446TIP3   OH222828   5.022   3.190  13.049 -0.1073  0.2232 -0.0099
  446TIP3    H122829   4.928   3.199  13.032  0.0485  0.5709 -0.7471
  446TIP3    H222830   5.028   3.122  13.117 -0.9284  0.7224  0.5822
  447TIP3   OH222831   6.534   2.851  13.535  0.3406 -0.2481  0.3276
  447TIP3    H122832   6.604   2.917  13.540 -0.4135  0.5598  0.5118
  447TIP3    H222833   6.512   2.847  13.442 -0.5978  0.8527  0.4727
  448TIP3   OH222834   0.468   0.272   1.130 -0.4477  1.2532 -0.1205
  448TIP3    H122835   0.551   0.268   1.082 -0.2334  1.4519  0.2308
  448TIP3    H222836   0.404   0.233   1.070  0.0418  0.3604 -0.0848
  449TIP3   OH222837   0.358   3.931   4.894 -0.0642 -0.0950 -0.1946
  449TIP3    H122838   0.337   4.014   4.936  0.0637 -0.1770  0.0355
  449TIP3    H222839   0.445   3.909   4.928 -0.2054 -0.4472 -0.0630
  450TIP3   OH222840   3.932   2.165   0.540  0.2742 -0.4823 -0.0740
  450TIP3    H122841   3.990   2.103   0.584 -0.8379 -0.0422  2.1313
  450TIP3    H222842   3.848   2.120   0.534 -0.0327  0.0974 -0.2299
  451TIP3   OH222843   4.582   5.938  14.403  0.1030 -0.0474 -0.1607
  451TIP3    H122844   4.541   5.852  14.398  1.6082 -0.8176  0.3029
  451TIP3    H222845   4.614   5.945  14.493  1.6464  0.1860 -0.6926
  452TIP3   OH222846   5.800   4.613  15.592 -0.1013  0.5902 -0.2907
  452TIP3    H122847   5.799   4.601  15.497  0.7196  0.1201 -0.2456
  452TIP3    H222848   5.763   4.701  15.605  1.1491  1.2696 -1.1446
  453TIP3   OH222849   2.996   4.219   0.368 -0.2398 -0.1748 -0.0361
  453TIP3    H122850   3.011   4.295   0.312  2.0024 -2.0777 -2.2447
  453TIP3    H222851   2.974   4.149   0.308  0.1366 -1.8554  1.6990
  454TIP3   OH222852   6.796   0.083  12.481  0.5556  0.3438  0.5341
  454TIP3    H122853   6.745   0.125  12.413  1.8275 -0.1457 -0.7701
  454TIP3    H222854   6.846   0.154  12.521  1.3853  0.3484 -0.4808
  455TIP3   OH222855   2.366   0.668  12.014 -0.3733 -0.0125  0.3235
  455TIP3    H122856   2.292   0.614  11.985  0.7576 -1.6847  0.4081
  455TIP3    H222857   2.432   0.658  11.944  0.6447 -0.4237  1.3196
  456TIP3   OH222858   0.291   3.827   4.421  0.1480 -0.1062  0.0679
  456TIP3    H122859   0.277   3.889   4.493  1.5773  1.0188 -0.5632
  456TIP3    H222860   0.216   3.840   4.363  0.1816  0.7039  0.1946
  457TIP3   OH222861   5.832   2.071  14.110 -0.5647  0.3587 -0.1562
  457TIP3    H122862   5.858   2.124  14.185 -2.5798  1.1665  0.0369
  457TIP3    H222863   5.778   2.001  14.148  1.6467 -1.6139 -0.4629
  458TIP3   OH222864   0.255   0.369   5.915 -0.3428 -0.8383 -0.0052
  458TIP3    H122865   0.349   0.357   5.927  0.1802 -1.4065 -3.5087
  458TIP3    H222866   0.219   0.281   5.918 -0.8714 -0.5895  1.7188
  459TIP3   OH222867   3.708   2.811   1.520  0.4484 -0.1522  0.5390
  459TIP3    H122868   3.709   2.716   1.519 -1.0534 -0.2079  1.3633
  459TIP3    H222869   3.748   2.835   1.604  2.0204  0.0152 -0.2226
  460TIP3   OH222870   2.215   6.678   0.336 -0.2631  0.7651 -0.2682
  460TIP3    H122871   2.259   6.620   0.274  1.0357 -0.1768  1.4501
  460TIP3    H222872   2.250   6.765   0.318  1.3992  0.2268  0.2415
  461TIP3   OH222873   2.683   4.458  14.431  0.0806 -0.8133  0.3123
  461TIP3    H122874   2.732   4.414  14.500  1.3312 -1.1135 -0.7299
  461TIP3    H222875   2.749   4.508  14.383 -0.8787 -0.0502 -0.2414
  462TIP3   OH222876   0.442   0.257  10.422  0.3485 -0.0498  0.2723
  462TIP3    H122877   0.504   0.207  10.369 -0.1717  0.2616 -0.6454
  462TIP3    H222878   0.441   0.212  10.507  0.0743 -1.4496 -0.4423
  463TIP3   OH222879   4.588   2.365   3.656  0.0402 -0.2008 -0.2497
  463TIP3    H122880   4.595   2.326   3.569  1.7517  1.8611 -1.1358
  463TIP3    H222881   4.594   2.460   3.641 -0.0307  0.2493  2.0871
  464TIP3   OH222882   5.652   5.053  12.571 -0.4345  0.3392 -0.1218
  464TIP3    H122883   5.735   5.098  12.588  0.4494  0.2984 -3.6022
  464TIP3    H222884   5.589   5.124  12.559 -0.6563  0.3950  1.1763
  465TIP3   OH222885   4.324   3.697   2.855 -0.0434  0.3175  0.3144
  465TIP3    H122886   4.293   3.683   2.945 -1.0973  0.2274 -0.0485
  465TIP3    H222887   4.293   3.785   2.832 -1.8408 -0.5380 -0.7523
  466TIP3   OH222888   6.753   0.217   3.142  0.9031 -0.5981 -0.4323
  466TIP3    H122889   6.721   0.227   3.231  0.0490 -1.7071 -0.5985
  466TIP3    H222890   6.689   0.265   3.088  0.3473 -1.5360 -0.6206
  467TIP3   OH222891   1.141   5.577   0.956  0.0515 -0.5747 -0.6317
  467TIP3    H122892   1.064   5.531   0.990  0.6240 -0.3488  1.1156
  467TIP3    H222893   1.106   5.647   0.902 -1.0325  0.0084  0.7611
  468TIP3   OH222894   5.911   3.828   3.564  0.6107 -0.0606 -0.4534
  468TIP3    H122895   5.892   3.805   3.473  1.5792 -0.2598 -0.6235
  468TIP3    H222896   5.840   3.789   3.614  0.7685 -1.1081 -1.0035
  469TIP3   OH222897   0.876   4.596  15.006  0.4703 -0.0194 -0.3885
  469TIP3    H122898   0.848   4.688  15.015 -1.2049 -0.3967 -1.2556
  469TIP3    H222899   0.916   4.593  14.919 -1.6789 -0.5462 -1.4493
  470TIP3   OH222900   6.159   0.306  13.657  0.7440 -0.2229  0.1056
  470TIP3    H122901   6.180   0.386  13.705 -0.2821  0.1471 -0.0314
  470TIP3    H222902   6.063   0.309  13.646  0.8019 -0.9877 -0.7392
  471TIP3   OH222903   5.028   3.125   2.229  0.0802  0.0400  0.1756
  471TIP3    H122904   5.013   3.147   2.137  0.2938  0.1980  0.1778
  471TIP3    H222905   4.989   3.038   2.240  2.0903 -1.0303 -0.6537
  472TIP3   OH222906   0.862   3.980  13.541  0.1639 -0.0725  0.0775
  472TIP3    H122907   0.811   4.058  13.562 -0.6052 -0.9552  1.6413
  472TIP3    H222908   0.947   4.015  13.513  0.3423  1.3410  2.1144
  473TIP3   OH222909   3.434   4.120  13.690 -0.0896 -0.5377 -0.1663
  473TIP3    H122910   3.476   4.182  13.631 -0.7438  0.2055  0.1390
  473TIP3    H222911   3.483   4.038  13.677  1.6516  0.3528  0.3682
  474TIP3   OH222912   1.109   1.919  12.265 -0.1029  0.3583  0.4280
  474TIP3    H122913   1.041   1.983  12.245  0.7600  0.9576 -0.7435
  474TIP3    H222914   1.163   1.960  12.332  0.2461  0.7349 -0.0728
  475TIP3   OH222915   4.229   5.021   3.735  0.0599 -0.3283  0.2144
  475TIP3    H122916   4.295   5.039   3.801  2.9617 -2.8511 -1.7581
  475TIP3    H222917   4.155   4.986   3.784  1.4334 -0.5167  2.2610
  476TIP3   OH222918   0.632   4.699   6.393  0.1644 -0.0747  0.1521
  476TIP3    H122919   0.552   4.747   6.372 -0.3781 -1.3639 -0.9303
  476TIP3    H222920   0.703   4.758   6.368 -0.4742  0.3111 -0.8267
  477TIP3   OH222921   5.287   6.572  16.832  0.0109  0.0189  0.0031
  477TIP3    H122922   5.275   6.667  16.834 -1.9722 -0.1854  0.0541
  477TIP3    H222923   5.280   6.545  16.924 -0.9990 -0.3057 -0.1539
  478TIP3   OH222924   2.063   2.766  11.497 -0.0155 -0.5310 -0.2761
  478TIP3    H122925   2.117   2.689  11.480  0.6421 -0.0810 -0.3061
  478TIP3    H222926   2.126   2.833  11.526 -0.0623  0.9083 -3.0792
  479TIP3   OH222927   3.345   3.188  15.252 -0.9736  0.6478 -0.2684
  479TIP3    H122928   3.267   3.196  15.196 -0.6674  0.4735 -0.7308
  479TIP3    H222929   3.365   3.278  15.278  0.4901  1.1144 -2.7059
  480TIP3   OH222930   3.550   0.510   4.182  0.2036 -0.3908 -0.1326
  480TIP3    H122931   3.511   0.595   4.164 -1.9937 -1.5424 -1.2347
  480TIP3    H222932   3.622   0.502   4.120 -1.9154 -0.7716 -2.7558
  481TIP3   OH222933   0.217   0.538   6.213 -0.5162  0.0975  0.1102
  481TIP3    H122934   0.208   0.632   6.201 -1.5027 -0.0794 -0.7132
  481TIP3    H222935   0.185   0.500   6.131 -2.0327 -1.0127  1.1683
  482TIP3   OH222936   4.126   4.823   0.488  0.4211 -0.3046  0.2242
  482TIP3    H122937   4.083   4.739   0.506  0.7742 -0.5141  0.0843
  482TIP3    H222938   4.196   4.802   0.428  1.0502 -0.0358  0.8515
  483TIP3   OH222939   5.579   4.365   1.865 -0.3732 -0.1169 -0.6586
  483TIP3    H122940   5.488   4.356   1.839  0.3771 -0.7170 -3.3857
  483TIP3    H222941   5.620   4.416   1.795  1.2192  1.0167  0.9862
  484TIP3   OH222942   1.732   4.948  14.101 -0.4142 -0.3266  0.7184
  484TIP3    H122943   1.639   4.958  14.123 -0.2606 -0.0795  1.2525
  484TIP3    H222944   1.750   5.022  14.042 -1.2359 -1.8881 -1.6563
  485TIP3   OH222945   2.233   0.010  12.837 -0.0413  0.0600  0.0385
  485TIP3    H122946   2.252   0.009  12.930 -3.1647 -0.1946  0.7853
  485TIP3    H222947   2.268  -0.072  12.803 -0.4080 -0.6599  1.3654
  486TIP3   OH222948   3.465   0.335  12.209  0.9203  0.2072 -0.2487
  486TIP3    H122949   3.395   0.299  12.153 -1.3609  1.0664  1.8728
  486TIP3    H222950   3.546   0.304  12.168 -0.6924 -1.7202 -2.2768
  487TIP3   OH222951   2.630   2.435   3.496  0.0389 -0.3346  0.4426
  487TIP3    H122952   2.618   2.528   3.478  0.4979 -0.4965 -0.7930
  487TIP3    H222953   2.708   2.410   3.447  0.8985 -1.0267  2.0601
  488TIP3   OH222954   0.970   4.642   0.004 -0.7687 -0.0450 -0.1211
  488TIP3    H122955   1.014   4.726  -0.007  0.6928 -0.6261  0.9258
  488TIP3    H222956   1.039   4.583   0.037 -1.7228 -1.6771 -0.8966
  489TIP3   OH222957   5.324   1.189   2.402 -0.2821 -0.0003  0.0690
  489TIP3    H122958   5.354   1.169   2.314 -0.5151  2.8126 -0.7513
  489TIP3    H222959   5.404   1.193   2.455  0.2472  1.5715 -0.7897
  490TIP3   OH222960   2.521   5.092  14.142  0.6891 -0.2617  0.0876
  490TIP3    H122961   2.481   5.175  14.167 -1.2282 -0.8063 -0.9392
  490TIP3    H222962   2.547   5.104  14.051 -1.5921 -1.3649 -0.8087
  491TIP3   OH222963   2.953   6.094   0.562  0.5296  0.2373  0.1341
  491TIP3    H122964   3.017   6.117   0.630  1.1547 -1.3532  0.1355
  491TIP3    H222965   3.006   6.058   0.491 -0.3720 -2.0107  0.5160
  492TIP3   OH222966   1.215   1.594  16.082 -0.0538 -0.3531 -0.1401
  492TIP3    H122967   1.137   1.648  16.071 -1.4022 -2.1517  0.1079
  492TIP3    H222968   1.271   1.644  16.141 -1.5476  0.4716  0.6210
  493TIP3   OH222969   0.151   5.757   1.847 -0.4918 -0.6457  0.5217
  493TIP3    H122970   0.186   5.735   1.933 -1.8845  0.2649  1.3599
  493TIP3    H222971   0.063   5.720   1.847 -1.3698  1.3185  0.4251
  494TIP3   OH222972   0.164   2.973  15.990  0.1946  0.0565  0.0052
  494TIP3    H122973   0.193   2.914  15.921 -0.4970  1.0933 -1.2254
  494TIP3    H222974   0.245   3.000  16.034  0.9793  1.2789 -2.0140
  495TIP3   OH222975   0.434   5.906  16.674  0.6060 -0.1558  0.1611
  495TIP3    H122976   0.359   5.847  16.664 -0.0689  0.9155 -1.4748
  495TIP3    H222977   0.403   5.990  16.640  2.2073  0.6041  0.4975
  496TIP3   OH222978   0.286   3.770  13.333  0.4033  0.5887  0.0698
  496TIP3    H122979   0.213   3.710  13.348  0.8106  0.5744  2.3896
  496TIP3    H222980   0.312   3.798  13.421  2.3114  1.6511 -0.7784
  497TIP3   OH222981   2.214   2.967   5.197  0.1631 -0.2357  0.2429
  497TIP3    H122982   2.305   2.995   5.204 -0.2112  1.1436 -0.1535
  497TIP3    H222983   2.165   3.048   5.181 -1.1297 -0.9586  0.4255
  498TIP3   OH222984   2.133   6.684   3.390 -0.0385 -0.6656 -0.0637
  498TIP3    H122985   2.198   6.648   3.451 -0.5369 -1.7348 -0.1258
  498TIP3    H222986   2.060   6.621   3.393 -0.3484 -0.3952 -1.2639
  499TIP3   OH222987   2.700   2.817   4.783  0.6124  0.4533  0.6440
  499TIP3    H122988   2.729   2.742   4.731  0.2411  0.2851  0.6739
  499TIP3    H222989   2.625   2.851   4.734  1.0597  1.0849  0.3876
  500TIP3   OH222990   3.827   3.882   5.897 -0.2636 -0.4313 -0.2473
  500TIP3    H122991   3.919   3.874   5.921 -0.2037  0.6477 -0.1124
  500TIP3    H222992   3.786   3.801   5.930 -0.0330  0.5657  2.7119
  501TIP3   OH222993   1.651   2.301   0.459  0.0021  0.4118  0.0393
  501TIP3    H122994   1.631   2.387   0.495  0.9115 -0.2808  2.4059
  501TIP3    H222995   1.744   2.288   0.478 -0.3443 -1.4819  0.6952
  502TIP3   OH222996   2.295   3.020  16.510 -0.0923 -0.2084 -0.4636
  502TIP3    H122997   2.296   3.031  16.415  2.4959 -1.5222 -0.6894
  502TIP3    H222998   2.388   3.014  16.534 -0.5913  1.4234  2.3562
  503TIP3   OH222999   0.828   0.694  15.149 -0.1332  0.3796 -0.3350
  503TIP3    H123000   0.734   0.713  15.146 -0.3467 -0.1042  1.5308
  503TIP3    H223001   0.865   0.741  15.075 -1.9076  0.1750 -1.4065
  504TIP3   OH223002   3.944   0.053   3.715  0.0230 -0.7848  0.2200
  504TIP3    H123003   3.989   0.059   3.799 -2.4031  1.0505  1.4958
  504TIP3    H223004   3.876   0.120   3.719 -2.0892 -2.6094 -2.0220
  505TIP3   OH223005   5.156   4.086  14.995  0.3710 -0.3796 -0.8257
  505TIP3    H123006   5.142   4.157  14.931 -0.9245  0.2828  0.1522
  505TIP3    H223007   5.235   4.112  15.042  1.2394 -0.7836 -2.0137
  506TIP3   OH223008   2.559   0.187   2.598  0.5583 -0.5541 -0.2398
  506TIP3    H123009   2.502   0.227   2.664  2.4316  0.4890  0.8403
  506TIP3    H223010   2.499   0.160   2.528 -1.3890 -0.7292  1.3834
  507TIP3   OH223011   5.683   1.599  14.284  0.5018 -0.1153  0.5959
  507TIP3    H123012   5.774   1.579  14.306  0.1869 -0.1316  2.0171
  507TIP3    H223013   5.632   1.531  14.328 -0.2903  1.0359  1.5306
  508TIP3   OH223014   0.965   5.716  15.271 -1.1134  1.1385  0.0447
  508TIP3    H123015   0.946   5.646  15.333  0.4342 -1.5506 -2.2772
  508TIP3    H223016   1.045   5.757  15.304 -0.8459  0.3865  0.3523
  509TIP3   OH223017   3.724   5.102  15.548  0.5568 -0.4197  0.3781
  509TIP3    H123018   3.789   5.152  15.498  1.1025 -1.2726  0.2199
  509TIP3    H223019   3.776   5.045  15.604 -0.0557 -0.0831  1.3153
  510TIP3   OH223020   3.020   4.625   1.355  0.5172  0.0845  0.2666
  510TIP3    H123021   3.104   4.643   1.315  0.6135  0.1018  0.4742
  510TIP3    H223022   3.033   4.645   1.448  0.2776  0.1144  0.2943
  511TIP3   OH223023   0.784   0.463  13.946 -0.0767  0.5316 -0.2676
  511TIP3    H123024   0.847   0.439  13.878  0.5487 -0.5741  0.6597
  511TIP3    H223025   0.833   0.454  14.028 -1.0622  0.9705  0.3884
  512TIP3   OH223026   3.338   5.027  10.736  0.5349  0.4165  0.2114
  512TIP3    H123027   3.247   5.053  10.751  0.0957  0.0450 -1.5873
  512TIP3    H223028   3.389   5.105  10.755 -0.0941  0.4722  1.7705
  513TIP3   OH223029   1.187   4.890  12.669 -0.1253  0.1832 -0.0844
  513TIP3    H123030   1.133   4.965  12.691 -1.2836 -0.5263 -0.4129
  513TIP3    H223031   1.264   4.928  12.626 -1.6509  1.1149 -2.1713
  514TIP3   OH223032   2.932   4.944   0.686 -0.1956 -0.3395 -0.2268
  514TIP3    H123033   3.013   4.920   0.643 -0.1145  1.8323 -1.4219
  514TIP3    H223034   2.940   4.908   0.774  2.0441 -0.2351 -0.3308
  515TIP3   OH223035   0.478   6.677   5.141  0.4349 -0.1765 -0.1195
  515TIP3    H123036   0.526   6.760   5.146 -2.1820  1.4540  0.7171
  515TIP3    H223037   0.405   6.696   5.082 -0.6064 -1.6525  0.6320
  516TIP3   OH223038   1.721   5.507   3.692 -0.3634  1.1074  0.4990
  516TIP3    H123039   1.655   5.443   3.663  0.2668 -0.0116  1.4585
  516TIP3    H223040   1.727   5.569   3.619  0.6518 -1.1819 -1.5231
  517TIP3   OH223041   5.900   5.747  12.212 -0.2580 -0.1959  0.8281
  517TIP3    H123042   5.941   5.713  12.291  0.8840 -1.8761 -0.4072
  517TIP3    H223043   5.821   5.694  12.200  0.0614 -0.5719  0.3603
  518TIP3   OH223044   2.166   5.926   2.537 -0.0950 -0.1110  0.4674
  518TIP3    H123045   2.256   5.891   2.531 -0.0903 -0.0404  0.0716
  518TIP3    H223046   2.112   5.849   2.552 -0.0236 -0.2239  0.1597
  519TIP3   OH223047   3.240   6.293  12.057  0.3131  0.0088  0.1770
  519TIP3    H123048   3.208   6.310  12.145  0.7101  0.2546  0.2777
  519TIP3    H223049   3.182   6.343  12.000  1.9488  2.4877  0.5213
  520TIP3   OH223050   4.143   2.641  14.638  0.1666  0.6540 -0.0083
  520TIP3    H123051   4.061   2.690  14.629 -0.6321 -0.3119  1.5491
  520TIP3    H223052   4.116   2.549  14.643  0.8465  0.4815  4.5428
  521TIP3   OH223053   3.781   2.765   3.601 -0.0378 -0.1857  0.2141
  521TIP3    H123054   3.819   2.708   3.534 -0.2444 -0.2782  0.1756
  521TIP3    H223055   3.856   2.812   3.637 -0.1238  1.3176 -1.4451
  522TIP3   OH223056   2.242   5.004  15.509  0.1588 -0.1547  0.8126
  522TIP3    H123057   2.292   5.003  15.428  0.7637 -0.3901  1.1762
  522TIP3    H223058   2.239   5.096  15.535  0.1456 -0.1056  0.6328
  523TIP3   OH223059   3.188   6.419   1.441  0.3083 -0.0707  0.5460
  523TIP3    H123060   3.150   6.340   1.401  0.8872 -0.7749  1.3674
  523TIP3    H223061   3.252   6.450   1.377 -0.1506 -0.0664  0.0771
  524TIP3   OH223062   0.633   2.063   2.794  0.7418  0.1407  0.4152
  524TIP3    H123063   0.695   2.070   2.721  1.6584 -1.2735  1.0024
  524TIP3    H223064   0.637   1.970   2.820 -0.6726  0.2913  1.3125
  525TIP3   OH223065   2.888   1.075   5.478  0.8348  0.3680  0.0524
  525TIP3    H123066   2.829   1.030   5.418 -0.3341  0.3938  1.1259
  525TIP3    H223067   2.924   1.147   5.428 -0.7219  0.8693 -0.4162
  526TIP3   OH223068   1.456   3.702  12.061  0.5405 -0.1671  0.0137
  526TIP3    H123069   1.490   3.760  11.992  2.1545  1.0279  1.7200
  526TIP3    H223070   1.531   3.650  12.088 -0.3453 -1.4265  0.1350
  527TIP3   OH223071   6.720   6.149  15.632 -0.0137 -0.4321  0.4627
  527TIP3    H123072   6.633   6.162  15.595  0.4564  0.5810 -0.3221
  527TIP3    H223073   6.730   6.220  15.695 -0.7877 -2.1034  2.6124
  528TIP3   OH223074   0.229   4.922   5.841 -0.0087 -0.4261 -0.3887
  528TIP3    H123075   0.261   4.969   5.764 -1.2455 -0.1057 -0.7200
  528TIP3    H223076   0.143   4.890   5.816 -2.1871  2.8799  2.0087
  529TIP3   OH223077   0.674   2.823  15.217  0.0436 -0.0356  0.2769
  529TIP3    H123078   0.579   2.825  15.226  0.0947  0.5014  0.8663
  529TIP3    H223079   0.705   2.793  15.303  0.3746 -1.3791 -0.2857
  530TIP3   OH223080   5.786   2.111  15.358  0.3777 -0.3177  0.2370
  530TIP3    H123081   5.706   2.061  15.374 -0.2147 -0.1607 -1.8847
  530TIP3    H223082   5.857   2.052  15.382 -0.3366 -1.4662 -0.3833
  531TIP3   OH223083   4.594   5.310  10.446  0.8623  1.1685  0.4672
  531TIP3    H123084   4.514   5.362  10.458 -0.0837 -0.2535  0.4532
  531TIP3    H223085   4.639   5.352  10.373 -0.1370  1.6720  0.1218
  532TIP3   OH223086   2.566   4.017  11.366  0.5445  0.2535 -0.1410
  532TIP3    H123087   2.528   4.030  11.453 -0.6978 -0.8457 -0.4966
  532TIP3    H223088   2.588   3.924  11.363 -1.4740 -0.2360 -1.7659
  533TIP3   OH223089   5.412   2.774   4.818 -0.2214 -0.6931 -0.4401
  533TIP3    H123090   5.418   2.847   4.880 -0.8984 -1.2885  0.3594
  533TIP3    H223091   5.497   2.731   4.822 -0.5285 -1.2457  0.7780
  534TIP3   OH223092   3.873   6.583   1.903  0.1464  0.7744  0.7941
  534TIP3    H123093   3.874   6.537   1.987 -0.3058  3.2528  2.2555
  534TIP3    H223094   3.822   6.662   1.920  2.2120  2.6451 -1.0887
  535TIP3   OH223095   4.021   3.498  11.867  0.1186  0.5104  0.5360
  535TIP3    H123096   4.109   3.513  11.833  1.1666  0.4549  2.9734
  535TIP3    H223097   3.967   3.566  11.825  1.2216  0.3648 -1.2128
  536TIP3   OH223098   2.071   1.307  12.798  0.2326  0.2601 -0.6815
  536TIP3    H123099   2.090   1.295  12.705 -0.8953  0.8474 -1.0041
  536TIP3    H223100   2.006   1.377  12.801  0.5774  0.5645  0.5868
  537TIP3   OH223101   1.123   0.416   0.134 -0.3089  0.2737 -0.1357
  537TIP3    H123102   1.108   0.397   0.041 -2.6064  2.0045 -0.2044
  537TIP3    H223103   1.177   0.495   0.134  0.1027 -0.0010  0.0402
  538TIP3   OH223104   6.251   5.809   3.022 -0.2121  0.6191 -0.4332
  538TIP3    H123105   6.256   5.747   3.095 -2.6061 -0.0924 -0.7864
  538TIP3    H223106   6.323   5.784   2.964 -0.2943 -0.9770  0.1113
  539TIP3   OH223107   0.048   3.076   4.499 -0.2055  0.2384 -0.0250
  539TIP3    H123108   0.036   3.074   4.404 -1.5889  0.5114  0.1258
  539TIP3    H223109  -0.029   3.121   4.532  0.6155  0.7886  1.1890
  540TIP3   OH223110   2.037   3.120  16.556 -0.0698  0.1875 -0.3437
  540TIP3    H123111   2.019   3.139  16.464 -2.0721 -0.6464 -0.1666
  540TIP3    H223112   2.127   3.088  16.557 -0.0697  0.0805 -2.0282
  541TIP3   OH223113   4.460   1.720  12.863 -0.1956  0.1717  0.4888
  541TIP3    H123114   4.553   1.695  12.860 -0.6196 -2.0640  2.5325
  541TIP3    H223115   4.461   1.815  12.855  2.2293  0.1796 -0.1040
  542TIP3   OH223116   3.490   6.071  10.864  0.0251 -0.2484 -0.3553
  542TIP3    H123117   3.497   6.003  10.797  2.4500 -0.3450 -0.1039
  542TIP3    H223118   3.552   6.139  10.835 -1.9276  1.6688 -0.3263
  543TIP3   OH223119   1.859   1.326   4.488  0.0161 -0.4216  0.1074
  543TIP3    H123120   1.953   1.313   4.479 -0.1069 -2.6844  1.2232
  543TIP3    H223121   1.847   1.355   4.578 -0.4047 -1.5738  0.4499
  544TIP3   OH223122   5.377   2.660  14.262 -0.1389 -0.1651 -0.2396
  544TIP3    H123123   5.384   2.643  14.356 -1.2465 -0.2818 -0.1664
  544TIP3    H223124   5.399   2.753  14.253 -1.8313  0.3411  0.4059
  545TIP3   OH223125   1.236   5.625  15.803 -0.1403  0.4293  0.0129
  545TIP3    H123126   1.261   5.535  15.780 -0.1052  0.4968 -0.2167
  545TIP3    H223127   1.304   5.654  15.863  0.2023  0.5266 -0.4193
  546TIP3   OH223128   3.134   0.438  12.020 -0.1437 -0.6512  0.2948
  546TIP3    H123129   3.215   0.488  12.023 -0.9358  0.6542  0.4707
  546TIP3    H223130   3.116   0.426  11.927 -0.6760  0.6290  0.2184
  547TIP3   OH223131   5.211   2.034   0.760  0.4000  0.3093 -0.5122
  547TIP3    H123132   5.228   2.105   0.698 -1.5156  0.0814 -1.4031
  547TIP3    H223133   5.297   2.002   0.786  1.3762  3.5289  0.6614
  548TIP3   OH223134   6.449   6.531  13.993  0.4664  0.2241  0.2747
  548TIP3    H123135   6.370   6.514  14.044  1.3726 -1.9264  1.0797
  548TIP3    H223136   6.458   6.626  13.994 -1.5943  0.4766  0.9157
  549TIP3   OH223137   0.151   3.679   3.242 -0.1285  0.4863 -0.0161
  549TIP3    H123138   0.090   3.715   3.306  2.2650  1.9451  1.6032
  549TIP3    H223139   0.202   3.754   3.212  1.4377 -0.7418 -0.6183
  550TIP3   OH223140   0.605   2.956  10.830 -0.1321 -0.3630  0.1072
  550TIP3    H123141   0.574   2.910  10.752 -0.4752  0.3955 -0.2110
  550TIP3    H223142   0.700   2.963  10.818  0.0521 -1.7214  0.5667
  551TIP3   OH223143   6.651   2.136  15.371 -0.2753 -0.2065 -0.0566
  551TIP3    H123144   6.720   2.197  15.344  1.1461 -2.1201 -1.0336
  551TIP3    H223145   6.685   2.049  15.346 -2.9016 -1.2751 -0.2507
  552TIP3   OH223146   5.086   4.947  13.519 -0.3943 -0.1931  0.1439
  552TIP3    H123147   5.074   4.938  13.424  2.3600 -1.7744 -0.1639
  552TIP3    H223148   5.116   4.861  13.547  0.8378  0.8083  2.0856
  553TIP3   OH223149   2.925   5.750  14.696 -0.1256  0.2559  0.2828
  553TIP3    H123150   2.995   5.726  14.634 -0.2370  2.3277 -0.7198
  553TIP3    H223151   2.930   5.845  14.703 -1.6442  0.2789  1.6796
  554TIP3   OH223152   5.055   1.782  16.665  0.2253 -0.0484 -0.1055
  554TIP3    H123153   5.077   1.689  16.665 -1.5147 -0.4991  0.8259
  554TIP3    H223154   5.138   1.827  16.648  1.6870 -1.6345  2.2993
  555TIP3   OH223155   3.770   0.316   1.424 -0.7900  0.3973 -0.6422
  555TIP3    H123156   3.807   0.339   1.339 -1.7254  1.4692 -0.7750
  555TIP3    H223157   3.797   0.387   1.482 -1.7059  0.6284 -0.4852
  556TIP3   OH223158   6.035   3.655   5.071 -0.2869 -0.1602  0.2103
  556TIP3    H123159   5.963   3.702   5.030 -0.1639  0.2358  0.4399
  556TIP3    H223160   6.001   3.628   5.156  0.0998  0.7707  0.6768
  557TIP3   OH223161   2.517   1.271  12.026  0.1680 -0.7503 -0.2944
  557TIP3    H123162   2.601   1.259  11.980 -0.0908  0.1938 -1.0552
  557TIP3    H223163   2.528   1.353  12.074  0.0338 -1.1587  0.4490
  558TIP3   OH223164   0.557   0.135   2.962  0.0993  0.0528 -0.0581
  558TIP3    H123165   0.578   0.182   2.881 -0.3973 -0.0001 -0.2274
  558TIP3    H223166   0.567   0.043   2.939  2.3276  0.0677  0.6324
  559TIP3   OH223167   0.983   4.549   0.535  0.0269 -0.6719 -0.3527
  559TIP3    H123168   0.993   4.501   0.617 -0.2254  0.9752  0.6681
  559TIP3    H223169   1.064   4.598   0.525 -1.0324  1.3091  0.3968
  560TIP3   OH223170   3.614   5.222  16.632  0.3113  0.7048  0.0412
  560TIP3    H123171   3.632   5.247  16.541  2.8725  1.2345  0.6263
  560TIP3    H223172   3.557   5.145  16.625  1.9013 -0.3855 -2.0836
  561TIP3   OH223173   2.373   2.291  15.309  0.0116 -0.3382  0.4640
  561TIP3    H123174   2.405   2.203  15.289 -2.5660 -1.6680  1.7536
  561TIP3    H223175   2.339   2.324  15.226  0.8553 -0.5926  0.0078
  562TIP3   OH223176   5.513   3.385  14.438  0.4576 -0.5430 -0.3583
  562TIP3    H123177   5.503   3.294  14.413  0.3653 -0.8502  0.7366
  562TIP3    H223178   5.534   3.430  14.356 -1.2426 -1.2395 -1.2367
  563TIP3   OH223179   3.653   6.523   1.340 -0.1234 -0.1910  0.1346
  563TIP3    H123180   3.636   6.511   1.433  1.0055 -2.0306  0.1532
  563TIP3    H223181   3.740   6.561   1.335 -0.2073 -0.0319 -0.1657
  564TIP3   OH223182   0.539   1.452   2.168  0.0153  0.5356  0.4304
  564TIP3    H123183   0.524   1.546   2.162 -0.0313  0.4908 -0.2386
  564TIP3    H223184   0.516   1.418   2.082 -2.0933 -0.4064  1.2895
  565TIP3   OH223185   0.681   1.310   2.359 -0.2260 -0.1585  0.2180
  565TIP3    H123186   0.655   1.372   2.290  1.2184 -0.6874 -0.8522
  565TIP3    H223187   0.659   1.224   2.324  0.3127 -0.4179  0.4982
  566TIP3   OH223188   3.813   1.770  12.662  0.4965 -0.5177 -0.2324
  566TIP3    H123189   3.780   1.701  12.718 -0.3091  1.5575  2.0112
  566TIP3    H223190   3.814   1.848  12.717  2.3091  1.0874 -2.3352
  567TIP3   OH223191   5.808   4.792   5.292  0.0511 -0.7157 -0.2281
  567TIP3    H123192   5.892   4.813   5.334  0.8232 -2.9981 -0.4926
  567TIP3    H223193   5.779   4.711   5.335 -2.1032  0.0548 -0.0857
  568TIP3   OH223194   3.477   3.376  15.740 -0.5537 -0.3067  0.0119
  568TIP3    H123195   3.528   3.424  15.675  0.7632  0.4844  1.5638
  568TIP3    H223196   3.466   3.289  15.702 -0.7393  0.4233 -1.7110
  569TIP3   OH223197   1.541   2.483  13.417  0.2337 -0.6997  0.0612
  569TIP3    H123198   1.609   2.525  13.469 -0.7757 -0.1922  1.0057
  569TIP3    H223199   1.561   2.509  13.327  1.6584 -1.1059  0.2322
  570TIP3   OH223200   4.248   0.618  13.742 -0.0991 -0.0653  0.0223
  570TIP3    H123201   4.286   0.588  13.659  1.9625 -0.1598  0.9332
  570TIP3    H223202   4.256   0.714  13.738 -2.0335  0.0945 -0.7742
  571TIP3   OH223203   2.244   0.224   4.844 -0.3952  0.2231 -0.2346
  571TIP3    H123204   2.311   0.194   4.782 -2.0575  1.3409 -2.7211
  571TIP3    H223205   2.294   0.268   4.913  1.5024 -0.2998 -1.1860
  572TIP3   OH223206   2.166   1.772   3.183  0.3256 -0.2477 -0.1302
  572TIP3    H123207   2.201   1.725   3.259  0.1331 -0.2157 -0.0181
  572TIP3    H223208   2.166   1.864   3.210  0.3200 -0.2292 -0.1941
  573TIP3   OH223209   2.998   3.221  16.305 -1.0129 -0.3379  0.3340
  573TIP3    H123210   3.045   3.303  16.287 -0.0180 -0.9254  0.1998
  573TIP3    H223211   3.002   3.172  16.223 -2.7006 -0.0175  0.0178
  574TIP3   OH223212   6.774   5.010  14.997  0.2802 -0.3685  0.2285
  574TIP3    H123213   6.719   5.087  14.979  0.3409 -0.6683 -1.3698
  574TIP3    H223214   6.839   5.042  15.060  0.5139  0.9965 -0.6474
  575TIP3   OH223215   5.764   3.130   1.890  0.2677  0.2140 -0.0210
  575TIP3    H123216   5.748   3.035   1.886 -0.3493  0.3506 -3.1939
  575TIP3    H223217   5.677   3.168   1.893  0.5206  0.7318  1.4914
  576TIP3   OH223218   6.348   1.857   0.475  0.1907 -0.4140 -0.0436
  576TIP3    H123219   6.274   1.915   0.459  0.4764 -0.5851 -2.3451
  576TIP3    H223220   6.338   1.829   0.566 -1.1729  1.4838  0.4452
  577TIP3   OH223221   5.930   3.395  15.538  0.3947  0.3253 -0.6150
  577TIP3    H123222   5.905   3.441  15.458  0.7545 -0.0188 -0.9243
  577TIP3    H223223   6.025   3.382  15.530  0.1192 -1.6260 -1.1442
  578TIP3   OH223224   4.255   3.330  14.367 -0.3042  0.1629 -0.0726
  578TIP3    H123225   4.323   3.280  14.323 -2.3591 -1.5408 -1.5273
  578TIP3    H223226   4.301   3.384  14.432  2.2368 -1.8687 -0.0808
  579TIP3   OH223227   0.361   3.845  11.272 -0.2639 -0.1802  0.1082
  579TIP3    H123228   0.320   3.877  11.191  1.0971 -1.4111 -1.1429
  579TIP3    H223229   0.330   3.755  11.281  1.5741 -0.9201 -0.5227
  580TIP3   OH223230   3.592   4.023  15.387 -0.2658  0.1921  0.4154
  580TIP3    H123231   3.585   4.105  15.435  0.7837  0.6516 -0.1865
  580TIP3    H223232   3.505   3.983  15.395 -0.8084  1.3858  0.6589
  581TIP3   OH223233   1.259   3.734  15.742  0.7901  0.3558 -0.0183
  581TIP3    H123234   1.353   3.721  15.753  0.8474  1.3194  0.8381
  581TIP3    H223235   1.223   3.646  15.736  1.8505 -0.0278 -1.4766
  582TIP3   OH223236   4.402   3.332  10.670 -0.2505  0.2828 -0.1621
  582TIP3    H123237   4.450   3.266  10.620  0.3734  0.9357 -0.4275
  582TIP3    H223238   4.423   3.313  10.761 -0.9178 -0.5412 -0.1712
  583TIP3   OH223239   2.492   6.038  14.561 -0.5970 -0.5109 -0.0599
  583TIP3    H123240   2.537   6.061  14.479 -0.9309  0.8687  0.1317
  583TIP3    H223241   2.414   5.991  14.532 -0.5460 -0.3242 -0.5136
  584TIP3   OH223242   4.536   5.565  11.771  0.1024  0.1875 -0.3286
  584TIP3    H123243   4.532   5.659  11.786  0.2168  0.2293 -0.5591
  584TIP3    H223244   4.513   5.554  11.679  0.7947  0.0535 -0.4876
  585TIP3   OH223245   4.938   1.976  13.657 -0.6750  0.3955 -0.9406
  585TIP3    H123246   4.944   2.015  13.569 -2.4738  0.5489 -1.0169
  585TIP3    H223247   4.889   2.039  13.708 -3.5079 -1.5659 -1.0167
  586TIP3   OH223248   2.301   2.539   4.540  0.2218 -0.8207  0.3506
  586TIP3    H123249   2.210   2.538   4.570  0.0972  0.9560  0.1133
  586TIP3    H223250   2.349   2.580   4.611  0.4620  0.3143 -0.4468
  587TIP3   OH223251   4.361   5.565   6.125  0.4957  0.2316 -0.4279
  587TIP3    H123252   4.306   5.495   6.092 -1.0284  1.5577 -0.8141
  587TIP3    H223253   4.409   5.525   6.198 -0.8597 -1.0220 -0.1683
  588TIP3   OH223254   3.536   5.728   0.237  0.6613  0.1876  0.6111
  588TIP3    H123255   3.464   5.671   0.264 -1.3061  1.4928 -1.4392
  588TIP3    H223256   3.584   5.746   0.317 -0.7519 -1.4943  1.9188
  589TIP3   OH223257   0.025   5.367  15.301 -0.8828  0.6386  0.0425
  589TIP3    H123258   0.048   5.440  15.358 -1.3552  1.9669 -1.4023
  589TIP3    H223259   0.100   5.357  15.243 -0.2456 -0.9447  1.0775
  590TIP3   OH223260   2.314   1.479  14.689 -0.3883  0.5342 -1.0049
  590TIP3    H123261   2.286   1.560  14.731  1.8911  0.6646  0.4553
  590TIP3    H223262   2.343   1.423  14.761  1.8202 -0.0189 -2.2167
  591TIP3   OH223263   1.597   3.425   3.694 -0.0087  0.0735 -0.0516
  591TIP3    H123264   1.685   3.431   3.730  0.7002 -0.5547 -1.6051
  591TIP3    H223265   1.551   3.366   3.755  0.7690  0.0464  0.5256
  592TIP3   OH223266   0.699   1.664   6.128  0.2054 -0.5813 -0.0897
  592TIP3    H123267   0.664   1.750   6.105 -2.1716 -1.6844 -0.8914
  592TIP3    H223268   0.644   1.634   6.200  1.2050 -1.3424  0.3930
  593TIP3   OH223269   6.085   0.666   0.735 -0.2269  0.6556  0.3132
  593TIP3    H123270   6.173   0.701   0.739  0.2891 -0.1060 -2.5102
  593TIP3    H223271   6.040   0.720   0.670 -2.1330  1.4701  2.1761
  594TIP3   OH223272   5.941   5.752  13.739  0.4711  0.1911 -0.2837
  594TIP3    H123273   5.891   5.749  13.820 -0.1466 -1.2538 -0.6880
  594TIP3    H223274   5.930   5.665  13.700  1.3513  0.6129 -1.5571
  595TIP3   OH223275   6.406   4.685   4.058  0.6205 -0.0973  0.3937
  595TIP3    H123276   6.373   4.764   4.013  1.4415 -0.0811 -0.2029
  595TIP3    H223277   6.352   4.679   4.137 -1.0342 -0.2519 -0.6841
  596TIP3   OH223278   3.817   4.495  16.173  0.0562  0.0036 -0.4589
  596TIP3    H123279   3.807   4.401  16.184 -2.7214  0.3108  0.6372
  596TIP3    H223280   3.855   4.525  16.256  0.7533 -0.1086 -0.7316
  597TIP3   OH223281   6.758   0.569  12.506  0.6625 -0.3826  0.0379
  597TIP3    H123282   6.689   0.534  12.449 -0.0680  0.0216  0.6453
  597TIP3    H223283   6.787   0.649  12.461 -0.2012  0.1598  0.4149
  598TIP3   OH223284   1.666   6.131  13.297  0.4126 -0.1014 -0.0665
  598TIP3    H123285   1.572   6.132  13.281  0.7467 -0.0575 -2.3596
  598TIP3    H223286   1.679   6.061  13.362 -1.4301  1.8072  2.5348
  599TIP3   OH223287   2.207   2.376  14.225  0.6758  0.3040 -0.4838
  599TIP3    H123288   2.259   2.371  14.146 -0.3655 -2.1174 -1.1264
  599TIP3    H223289   2.126   2.420  14.198  0.7976  0.5345 -0.4728
  600TIP3   OH223290   4.839   4.410  12.944 -0.0168  0.5189  0.5703
  600TIP3    H123291   4.744   4.397  12.939 -0.0222  0.7340  0.0334
  600TIP3    H223292   4.849   4.502  12.970  0.0434  0.4689  0.7231
  601TIP3   OH223293   5.985   5.641  13.230  0.2121  0.6152 -0.1342
  601TIP3    H123294   6.050   5.699  13.270  2.3535 -0.7484 -1.4460
  601TIP3    H223295   5.978   5.672  13.140 -2.1032  1.6094  0.3124
  602TIP3   OH223296   5.009   4.097   4.228 -0.2480  0.4068 -0.0043
  602TIP3    H123297   5.080   4.063   4.174  1.0209 -0.2207  1.9365
  602TIP3    H223298   5.053   4.149   4.295 -1.8173  1.8357 -0.0070
  603TIP3   OH223299   5.148   1.394  15.930 -0.1501  0.2596  0.4772
  603TIP3    H123300   5.222   1.420  15.875  0.4837  0.2908  1.3229
  603TIP3    H223301   5.124   1.307  15.897  0.0996  0.3556  0.0336
  604TIP3   OH223302   1.463   0.326  17.158 -0.0004  0.5795  0.3924
  604TIP3    H123303   1.531   0.264  17.132 -0.9393 -0.3776  0.1474
  604TIP3    H223304   1.429   0.291  17.240 -0.0207  1.1996  0.6551
  605TIP3   OH223305   3.364   5.279   6.023 -0.7560  0.4189  0.0653
  605TIP3    H123306   3.298   5.348   6.011 -0.1808  0.6292 -2.4611
  605TIP3    H223307   3.416   5.282   5.943  0.9161 -1.2591  1.0215
  606TIP3   OH223308   0.339   1.194   4.085  0.3328 -0.0221  0.4789
  606TIP3    H123309   0.398   1.177   4.011 -1.4648 -0.5701 -0.9023
  606TIP3    H223310   0.318   1.107   4.120 -0.7539  0.0234  0.0061
  607TIP3   OH223311   2.808   0.842  16.480  0.2981 -0.2058  0.1164
  607TIP3    H123312   2.854   0.777  16.533 -0.8207  0.9073  2.6211
  607TIP3    H223313   2.820   0.924  16.526 -0.7945  0.8540 -1.3615
  608TIP3   OH223314   2.317   0.737   4.284  0.3571  0.2631 -0.5320
  608TIP3    H123315   2.359   0.799   4.224  0.4719  0.4037 -0.3093
  608TIP3    H223316   2.234   0.714   4.242  0.1117  0.9106 -0.4034
  609TIP3   OH223317   4.486   0.892   4.059 -0.1457 -0.2086  0.3642
  609TIP3    H123318   4.553   0.853   4.116  0.6290  1.5500  0.7002
  609TIP3    H223319   4.535   0.947   3.999 -1.2316  0.4040  0.0280
  610TIP3   OH223320   2.618   4.791  11.586  0.6612 -0.4089  0.1189
  610TIP3    H123321   2.617   4.850  11.510  0.4462  0.4879  0.8022
  610TIP3    H223322   2.595   4.705  11.550 -0.3657  0.1852 -0.6920
  611TIP3   OH223323   4.387   3.372  11.152 -0.4362 -0.0181  0.1025
  611TIP3    H123324   4.319   3.436  11.133  0.1125  0.2423 -1.0672
  611TIP3    H223325   4.438   3.412  11.223  0.1984  1.0921 -0.9486
  612TIP3   OH223326   2.081   0.606   1.282 -0.1955  0.8232 -0.3532
  612TIP3    H123327   2.133   0.637   1.356 -0.9440  1.4776 -0.0804
  612TIP3    H223328   2.086   0.678   1.218 -0.2770  0.6340 -0.5752
  613TIP3   OH223329   4.139   5.557   3.213 -0.1368 -0.6670  0.2038
  613TIP3    H123330   4.181   5.483   3.169 -0.7858 -1.1710  0.4089
  613TIP3    H223331   4.145   5.536   3.306  0.6538  0.0801  0.3291
  614TIP3   OH223332   6.140   5.366   1.535  0.1286  0.3384 -0.2419
  614TIP3    H123333   6.118   5.282   1.495  1.5142  0.2394 -0.8609
  614TIP3    H223334   6.072   5.426   1.503 -1.7898 -0.8296  1.4620
  615TIP3   OH223335   3.638   6.793  14.304 -0.0782 -0.3092  0.1275
  615TIP3    H123336   3.639   6.768  14.397 -0.9704  0.5292  0.3840
  615TIP3    H223337   3.617   6.712  14.258  2.3114 -1.1941  0.4617
  616TIP3   OH223338   2.389   0.512  15.714 -0.4065 -0.1439  0.0329
  616TIP3    H123339   2.389   0.426  15.673  1.0608 -0.0806 -0.1235
  616TIP3    H223340   2.305   0.516  15.760 -1.6857 -0.6039 -2.1186
  617TIP3   OH223341   3.951   2.563   1.570 -0.5659  0.1969  0.2282
  617TIP3    H123342   3.960   2.481   1.619 -1.6588 -0.4058 -0.5399
  617TIP3    H223343   3.924   2.536   1.482 -1.3408  1.3985  0.0696
  618TIP3   OH223344   3.598   2.282  14.875  0.0220 -0.4512  0.1185
  618TIP3    H123345   3.616   2.359  14.928 -0.4871 -1.1544  1.3342
  618TIP3    H223346   3.668   2.220  14.897  0.3386 -0.4162 -0.7312
  619TIP3   OH223347   4.431   3.768  13.417 -0.1645  0.4547 -0.7455
  619TIP3    H123348   4.406   3.739  13.330 -0.3701  0.9804 -0.8650
  619TIP3    H223349   4.526   3.778  13.413  0.0867 -1.3263 -0.3546
  620TIP3   OH223350   5.345   3.401  11.941  0.4577 -0.0590  0.5517
  620TIP3    H123351   5.363   3.349  12.018  1.4499  0.1237  0.4646
  620TIP3    H223352   5.269   3.360  11.900 -1.6739  1.2652  2.8932
  621TIP3   OH223353   0.460   5.164   0.655  0.0649 -0.3191  0.1898
  621TIP3    H123354   0.417   5.226   0.714  1.4134 -1.0198  2.0300
  621TIP3    H223355   0.497   5.218   0.586 -1.6961  0.5237 -0.1332
  622TIP3   OH223356   2.269   0.175  15.044 -0.1805 -0.0028  0.1315
  622TIP3    H123357   2.284   0.101  14.986 -1.1651  0.5799 -0.9104
  622TIP3    H223358   2.230   0.242  14.988  2.4294  2.0638  0.5853
  623TIP3   OH223359   4.348   4.533  14.637 -0.7250  0.2495  0.4401
  623TIP3    H123360   4.422   4.513  14.694  0.3504 -3.0663 -1.8801
  623TIP3    H223361   4.378   4.607  14.584 -0.3273  0.9067  1.5394
  624TIP3   OH223362   1.220   6.162   4.536  1.0114 -0.5483  0.1901
  624TIP3    H123363   1.203   6.139   4.627  0.8411 -0.3524  0.2063
  624TIP3    H223364   1.187   6.088   4.486  1.7192 -0.9669  0.3250
  625TIP3   OH223365   2.456   3.936   0.509 -0.2723  0.1116  0.1421
  625TIP3    H123366   2.530   3.989   0.479  0.2330 -0.2132  0.7987
  625TIP3    H223367   2.379   3.978   0.469  0.2221  0.6977 -0.2134
  626TIP3   OH223368   4.999   5.368  13.616 -0.0196 -0.7952  0.3101
  626TIP3    H123369   5.047   5.401  13.540  0.2844 -1.5618  0.1658
  626TIP3    H223370   5.015   5.433  13.684 -0.1701 -0.1778 -0.2338
  627TIP3   OH223371   4.987   1.113  11.512 -0.2429 -0.2108  0.1551
  627TIP3    H123372   4.991   1.205  11.537  0.4511  0.5566 -2.5018
  627TIP3    H223373   5.077   1.082  11.518  0.4139  0.6306 -3.2017
  628TIP3   OH223374   0.813   4.038  15.505 -0.2656  0.1686 -0.2376
  628TIP3    H123375   0.799   4.046  15.599  0.7477  0.9258 -0.1403
  628TIP3    H223376   0.859   4.118  15.480 -1.2167  0.3472 -1.5248
  629TIP3   OH223377   0.101   2.550  15.619  0.0678 -0.0694 -0.0531
  629TIP3    H123378   0.172   2.498  15.581  2.2568  0.6259  2.7246
  629TIP3    H223379   0.055   2.490  15.678 -0.5067 -0.0452 -0.4681
  630TIP3   OH223380   3.200   0.078   4.878  0.1104  0.3434  0.3091
  630TIP3    H123381   3.130   0.033   4.925 -0.7023  2.7298  1.5138
  630TIP3    H223382   3.280   0.054   4.926  0.2396 -2.3288 -1.0287
  631TIP3   OH223383   5.334   1.096  15.745 -0.3300 -0.1800  0.2017
  631TIP3    H123384   5.262   1.112  15.684  0.1503 -1.8156 -0.8526
  631TIP3    H223385   5.377   1.182  15.753  0.1716 -0.0736 -2.5582
  632TIP3   OH223386   4.911   2.202  13.146  0.1189 -0.1967  0.3814
  632TIP3    H123387   4.936   2.278  13.198  0.2945  0.6172 -0.8577
  632TIP3    H223388   4.823   2.223  13.114  0.5487 -0.0585 -0.7609
  633TIP3   OH223389   1.297   6.280   1.980  0.5266  0.1772  0.1978
  633TIP3    H123390   1.279   6.368   1.946 -0.8916  0.2635  1.0547
  633TIP3    H223391   1.346   6.237   1.911  0.5263  1.3811 -0.5849
  634TIP3   OH223392   4.854   2.147   4.690 -0.5966  0.5313 -0.4115
  634TIP3    H123393   4.802   2.144   4.770  0.1219  2.4557  0.1923
  634TIP3    H223394   4.805   2.093   4.628 -1.2573 -0.8757  1.2470
  635TIP3   OH223395   0.333   4.810   2.943  0.1604 -0.7171 -0.3678
  635TIP3    H123396   0.259   4.851   2.987 -0.9168 -0.8484 -1.9762
  635TIP3    H223397   0.304   4.721   2.923  1.1155 -1.0926 -0.1688
  636TIP3   OH223398   2.231   5.295  17.087  0.5227 -0.0774  0.2403
  636TIP3    H123399   2.147   5.277  17.130  0.2647 -4.1089 -1.4864
  636TIP3    H223400   2.260   5.378  17.124 -3.5044  0.7720  1.9939
  637TIP3   OH223401   3.628   5.103   3.997  0.0462 -0.2185  0.4878
  637TIP3    H123402   3.662   5.188   3.972 -0.0622 -0.2593  0.1974
  637TIP3    H223403   3.657   5.091   4.087  2.3999 -1.0678 -0.3083
  638TIP3   OH223404   1.620   4.291   3.333 -0.3411  0.2708  0.1327
  638TIP3    H123405   1.565   4.299   3.410 -1.8001 -3.9217 -0.2362
  638TIP3    H223406   1.710   4.295   3.367 -0.9145  0.2966  1.7351
  639TIP3   OH223407   2.267   0.940   6.413 -0.2594 -0.1909  0.1074
  639TIP3    H123408   2.255   1.030   6.444 -2.4666 -0.1750 -0.6007
  639TIP3    H223409   2.361   0.926   6.415  0.0331  1.6401  1.6009
  640TIP3   OH223410   0.011   1.237   0.455 -0.0095  0.1830 -0.1413
  640TIP3    H123411   0.059   1.295   0.514 -1.0773  0.7786  0.1806
  640TIP3    H223412   0.040   1.263   0.368 -1.7020  2.4726 -0.1213
  641TIP3   OH223413   6.530   0.102  14.778 -0.3488  0.3124  0.5146
  641TIP3    H123414   6.457   0.095  14.716  0.9028  1.7339 -1.2184
  641TIP3    H223415   6.516   0.185  14.823 -0.7294 -0.2556  1.4652
  642TIP3   OH223416   1.467   4.568   3.467  0.8266  0.4099  0.0112
  642TIP3    H123417   1.539   4.610   3.516  0.4415 -0.8635  1.7817
  642TIP3    H223418   1.470   4.477   3.495  0.2290 -0.2867 -2.0310
  643TIP3   OH223419   5.178   0.383   1.924 -0.0066  0.2615 -0.3159
  643TIP3    H123420   5.109   0.423   1.872  0.1390  0.4616 -0.3553
  643TIP3    H223421   5.260   0.409   1.882  0.1293  0.7739  0.2546
  644TIP3   OH223422   1.658   0.058  15.938 -0.1812 -0.7735  0.0759
  644TIP3    H123423   1.676   0.112  15.862  3.0816 -2.1788 -0.3249
  644TIP3    H223424   1.608  -0.016  15.904  1.1077 -1.3017 -0.7475
  645TIP3   OH223425   1.650   2.546  16.012  0.0069  0.9031  0.3613
  645TIP3    H123426   1.559   2.572  16.027 -0.3163  0.9945 -1.4902
  645TIP3    H223427   1.701   2.601  16.072 -0.9718  2.8563 -0.4921
  646TIP3   OH223428   2.115   3.431  11.382 -0.4449 -0.6126 -0.2336
  646TIP3    H123429   2.205   3.462  11.366  0.0658 -0.1795  2.8620
  646TIP3    H223430   2.061   3.509  11.371 -0.2390 -0.5147 -0.5836
  647TIP3   OH223431   5.437   2.945   1.486 -0.2711  0.1768 -0.1840
  647TIP3    H123432   5.468   3.026   1.444  0.0271 -0.4067 -1.1220
  647TIP3    H223433   5.343   2.943   1.465 -0.2339  0.1637 -0.3512
  648TIP3   OH223434   6.428   1.353   3.017 -0.2346  0.0249  0.0716
  648TIP3    H123435   6.421   1.311   3.102  0.0629  0.4204  0.2966
  648TIP3    H223436   6.339   1.355   2.983 -0.4657  0.4950  0.6836
  649TIP3   OH223437   6.093   2.273   3.543 -0.2820 -0.4165 -0.3615
  649TIP3    H123438   6.028   2.224   3.592 -0.0644  0.3735  0.7549
  649TIP3    H223439   6.164   2.288   3.605 -0.0613  0.7386 -0.8607
  650TIP3   OH223440   4.626   4.588  11.084 -0.0043  0.3395  0.0883
  650TIP3    H123441   4.549   4.541  11.115  1.1517 -1.1279  0.9096
  650TIP3    H223442   4.653   4.541  11.005  1.8155 -1.2406  1.5288
  651TIP3   OH223443   2.095   6.257  14.103 -0.1465 -0.2060 -0.3403
  651TIP3    H123444   2.098   6.175  14.153  1.7932  0.0511  0.0369
  651TIP3    H223445   2.168   6.308  14.137 -1.7240  2.0225 -0.0457
  652TIP3   OH223446   6.393   3.230  15.801  0.8252  0.3495  0.2616
  652TIP3    H123447   6.356   3.230  15.889  0.8647 -1.1064  0.2911
  652TIP3    H223448   6.484   3.254  15.813  0.5318  1.4516  0.4521
  653TIP3   OH223449   6.354   3.990   0.322 -0.6126 -0.3899  0.0154
  653TIP3    H123450   6.314   3.972   0.407  2.1653  0.7134  1.6956
  653TIP3    H223451   6.390   4.078   0.330  0.2848 -0.4955 -2.0934
  654TIP3   OH223452   1.348   3.828  13.812  0.1234  0.4970 -0.0170
  654TIP3    H123453   1.400   3.900  13.850  0.5273  0.2313 -0.0603
  654TIP3    H223454   1.341   3.850  13.719 -2.2731  2.0145  0.4382
  655TIP3   OH223455   2.115   6.047   0.243 -0.3909 -0.1438  0.1457
  655TIP3    H123456   2.129   5.991   0.320  0.5634  0.3219  0.3205
  655TIP3    H223457   2.156   6.130   0.266  0.4987 -0.2073 -1.1164
  656TIP3   OH223458   0.171   0.945   4.393 -0.1930  0.6186 -0.3497
  656TIP3    H123459   0.225   0.881   4.441 -1.0903  0.3913  0.3878
  656TIP3    H223460   0.204   0.941   4.303  1.0928  0.5702  0.0959
  657TIP3   OH223461   0.835   6.430   1.077  0.1698  0.3286  0.4588
  657TIP3    H123462   0.842   6.349   1.127 -0.5307  0.4731  0.8019
  657TIP3    H223463   0.883   6.495   1.128 -0.6685  0.5116  1.0396
  658TIP3   OH223464   4.614   2.347   0.485 -0.1004  0.4437 -0.6038
  658TIP3    H123465   4.527   2.383   0.501  0.8935  1.9958  2.0467
  658TIP3    H223466   4.660   2.415   0.436  0.2567  0.6325 -0.0237
  659TIP3   OH223467   0.556   2.744   4.404  0.1713  0.3329  0.1624
  659TIP3    H123468   0.511   2.800   4.467  0.5838  0.7884  0.0592
  659TIP3    H223469   0.626   2.799   4.369 -0.5095  0.3311 -1.2409
  660TIP3   OH223470   3.695   2.508   4.328 -0.6381 -0.5046  0.5684
  660TIP3    H123471   3.685   2.542   4.417 -1.0446 -0.0802  0.3662
  660TIP3    H223472   3.729   2.419   4.339  0.2000 -0.1221  1.1100
  661TIP3   OH223473   6.196   6.650   4.727 -0.2228 -0.2703  0.6737
  661TIP3    H123474   6.273   6.702   4.706 -0.5604  0.1021  0.3605
  661TIP3    H223475   6.125   6.713   4.733 -0.3139 -0.4699  2.0398
  662TIP3   OH223476   3.915   0.922  15.924  0.1225  0.4153  0.3388
  662TIP3    H123477   3.880   1.010  15.908 -1.4534 -0.0578  1.0299
  662TIP3    H223478   3.870   0.893  16.003 -0.9690 -1.8541 -1.0402
  663TIP3   OH223479   5.048   5.051  14.508  0.2322 -0.7656 -0.2255
  663TIP3    H123480   5.088   5.022  14.589  0.8387  1.0822  0.1998
  663TIP3    H223481   5.098   5.130  14.484  0.5412 -1.6497 -2.7711
  664TIP3   OH223482   5.414   2.833  11.365 -0.0683 -0.1890  0.4009
  664TIP3    H123483   5.324   2.812  11.341  0.6685 -2.3877 -0.7216
  664TIP3    H223484   5.419   2.811  11.458 -0.7951  0.3979  0.5881
  665TIP3   OH223485   1.827   2.898   4.214 -0.4447 -0.4757 -0.1556
  665TIP3    H123486   1.882   2.826   4.184  0.8292  0.0291  0.8647
  665TIP3    H223487   1.788   2.933   4.134  0.2078 -1.2614 -0.8369
  666TIP3   OH223488   2.917   0.515  13.304  0.0631 -0.1033  0.7852
  666TIP3    H123489   2.924   0.446  13.238  0.9488  1.6328 -1.0673
  666TIP3    H223490   2.997   0.506  13.356 -0.2185 -0.9624  1.0787
  667TIP3   OH223491   0.688   2.312  16.229 -0.3727  0.3664 -0.6313
  667TIP3    H123492   0.714   2.283  16.142 -0.3274  1.0382 -0.8438
  667TIP3    H223493   0.647   2.235  16.269 -2.4514  0.6667 -2.0730
  668TIP3   OH223494   4.796   2.108   5.227  0.3903 -0.4557 -0.5105
  668TIP3    H123495   4.771   2.024   5.266  1.7629 -0.6184  0.0929
  668TIP3    H223496   4.761   2.173   5.288  1.2145 -0.6681  0.2127
  669TIP3   OH223497   2.186   1.615  14.882  0.2183 -0.4409  0.7484
  669TIP3    H123498   2.191   1.655  14.968  0.9223 -1.7972  1.3652
  669TIP3    H223499   2.127   1.672  14.832  1.1778  1.3551  1.5563
  670TIP3   OH223500   0.428   1.700  11.846  0.2092  0.5288 -0.3320
  670TIP3    H123501   0.349   1.710  11.900 -0.0603 -3.0253  0.1526
  670TIP3    H223502   0.407   1.744  11.764 -2.6050 -0.8311 -0.4462
  671TIP3   OH223503   6.560   6.612   0.360 -0.4854 -0.1565 -0.1632
  671TIP3    H123504   6.644   6.655   0.370  0.1982 -1.3368 -0.5457
  671TIP3    H223505   6.498   6.666   0.409  0.7901 -0.1618  1.5145
  672TIP3   OH223506   5.866   4.709   0.184  0.3494  0.0285 -0.0551
  672TIP3    H123507   5.905   4.663   0.110 -0.2431 -0.9350  0.2063
  672TIP3    H223508   5.924   4.783   0.200  1.7298 -1.0210 -0.0512
  673TIP3   OH223509   3.772   6.161   4.925 -0.2385 -0.2597 -0.1484
  673TIP3    H123510   3.734   6.243   4.895  0.6755  0.1423 -0.2191
  673TIP3    H223511   3.768   6.166   5.021  0.2950  0.1034 -0.1403
  674TIP3   OH223512   4.021   6.568  16.920 -0.0330 -0.4563 -0.0796
  674TIP3    H123513   4.035   6.660  16.896 -0.8892 -0.1169  0.6631
  674TIP3    H223514   4.060   6.518  16.849 -0.9468  0.4943 -1.2829
  675TIP3   OH223515   4.393   0.557   0.998 -0.2561  0.5508 -0.0732
  675TIP3    H123516   4.382   0.652   0.989  1.3744  0.9098  1.2747
  675TIP3    H223517   4.487   0.543   0.987 -0.6582 -1.1645 -1.9871
  676TIP3   OH223518   0.019   1.920   0.729  0.1176  0.4476 -0.3118
  676TIP3    H123519  -0.058   1.969   0.699  0.3612  0.4748 -0.9119
  676TIP3    H223520   0.079   1.924   0.655  0.5018  0.0130 -0.0224
  677TIP3   OH223521   5.279   6.586  12.556 -0.0276  0.1578  0.0567
  677TIP3    H123522   5.213   6.522  12.532 -0.0875 -0.4005  1.6204
  677TIP3    H223523   5.360   6.552  12.519 -0.4570  0.4805 -1.2458
  678TIP3   OH223524   6.548   1.429  12.583 -0.4374  0.8008 -0.1130
  678TIP3    H123525   6.453   1.436  12.580 -0.3333  2.6422 -0.9361
  678TIP3    H223526   6.575   1.432  12.491  0.3618 -1.9086 -0.0532
  679TIP3   OH223527   5.327   4.535  17.092  0.2275 -0.0806  0.1211
  679TIP3    H123528   5.264   4.463  17.083 -0.1556  0.1197  1.0229
  679TIP3    H223529   5.405   4.505  17.045 -0.5464 -0.3171 -1.0575
  680TIP3   OH223530   1.751   2.259  15.705 -0.2584 -0.1094  0.2733
  680TIP3    H123531   1.792   2.342  15.729 -1.8610  0.1376  2.3964
  680TIP3    H223532   1.821   2.209  15.663  1.5877  1.1475  1.7027
  681TIP3   OH223533   5.728   4.651   5.980 -0.0009 -0.3236 -0.5216
  681TIP3    H123534   5.766   4.710   6.046  0.9155 -3.2473  1.7769
  681TIP3    H223535   5.784   4.663   5.903  0.2373  1.6413 -0.1105
  682TIP3   OH223536   1.861   6.652  15.419 -0.3007  0.3535 -0.3722
  682TIP3    H123537   1.857   6.747  15.417  1.0738  0.4361 -0.2109
  682TIP3    H223538   1.883   6.630  15.509 -0.1981 -0.0934 -0.5018
  683TIP3   OH223539   1.754   4.413   3.907 -0.0930  0.0293  0.4133
  683TIP3    H123540   1.742   4.501   3.943 -0.5393 -1.6157  5.0102
  683TIP3    H223541   1.843   4.389   3.932 -0.5523 -1.3866  0.7707
  684TIP3   OH223542   1.216   0.162  10.972  0.1639  0.3734  0.0266
  684TIP3    H123543   1.199   0.248  10.933  0.4928  0.6421  0.4771
  684TIP3    H223544   1.129   0.132  10.999  0.0898  0.7116  0.1747
  685TIP3   OH223545   0.855   4.075   5.979  0.0557 -0.0375 -0.3012
  685TIP3    H123546   0.780   4.023   5.951 -0.7922  1.2361 -0.4675
  685TIP3    H223547   0.912   4.013   6.024 -1.5546 -0.8337  0.7018
  686TIP3   OH223548   3.035   3.391  14.261  0.1091  0.0215 -0.6203
  686TIP3    H123549   2.995   3.407  14.175 -0.5997 -0.2749 -0.3557
  686TIP3    H223550   3.127   3.416  14.250 -0.5147  2.4980 -0.7572
  687TIP3   OH223551   0.516   0.835  16.698  0.2550 -0.5293 -0.3680
  687TIP3    H123552   0.545   0.876  16.780  0.6124 -1.3190 -0.0887
  687TIP3    H223553   0.512   0.907  16.636  0.2015  0.0459  0.2855
  688TIP3   OH223554   4.702   0.735   2.883  0.2360 -0.3836 -0.0947
  688TIP3    H123555   4.709   0.807   2.945  1.4664 -0.3056 -0.3082
  688TIP3    H223556   4.621   0.690   2.908 -1.0384  1.5621 -0.5199
  689TIP3   OH223557   1.469   2.300   1.173 -0.1473 -0.5845 -0.7142
  689TIP3    H123558   1.432   2.386   1.191  0.3124 -0.0317 -2.2501
  689TIP3    H223559   1.540   2.290   1.236 -0.8127 -0.2505  0.0946
  690TIP3   OH223560   2.028   4.076  15.574  0.2571 -0.2509 -0.4812
  690TIP3    H123561   1.980   4.003  15.534 -0.3515 -0.1685  0.0913
  690TIP3    H223562   2.041   4.049  15.665  0.6617  0.0476 -0.4486
  691TIP3   OH223563   4.544   2.272  16.649  0.4395  0.0828 -0.0923
  691TIP3    H123564   4.548   2.327  16.727  3.4657 -1.1009  0.7364
  691TIP3    H223565   4.514   2.187  16.681 -1.7112  0.4823 -0.9104
  692TIP3   OH223566   6.260   5.675   5.395  0.2117  0.4838  0.4049
  692TIP3    H123567   6.186   5.707   5.446 -1.4520 -1.9085 -0.3262
  692TIP3    H223568   6.292   5.599   5.443  1.3286  0.6517 -0.0259
  693TIP3   OH223569   2.227   4.651   6.563  0.0706 -0.3616 -0.3612
  693TIP3    H123570   2.226   4.702   6.483 -0.6729  0.6675  0.2831
  693TIP3    H223571   2.251   4.713   6.631 -1.1341 -0.7825  0.4851
  694TIP3   OH223572   1.846   3.241  10.943 -0.0609 -0.2097 -0.6721
  694TIP3    H123573   1.926   3.194  10.967 -0.4032  0.0063  1.0631
  694TIP3    H223574   1.802   3.184  10.881  0.1459 -1.6062  0.4215
  695TIP3   OH223575   6.147   0.054  13.336  0.1451 -0.8796  0.0046
  695TIP3    H123576   6.205   0.066  13.411 -0.4320  0.4848  0.2642
  695TIP3    H223577   6.059   0.056  13.373 -0.1699  0.3771 -0.7550
  696TIP3   OH223578   3.866   2.663  17.104  0.5558  0.2906  0.1265
  696TIP3    H123579   3.883   2.755  17.084 -0.1785  0.3636 -0.1961
  696TIP3    H223580   3.770   2.657  17.108  0.5892 -0.5452 -0.2601
  697TIP3   OH223581   2.378   5.776   2.455 -0.1787  0.6900 -0.4388
  697TIP3    H123582   2.327   5.725   2.392  0.2721  0.0637 -0.3035
  697TIP3    H223583   2.365   5.730   2.538  0.0109  0.9522 -0.2649
  698TIP3   OH223584   6.517   4.479   5.207 -0.1202  0.1114  0.3088
  698TIP3    H123585   6.567   4.557   5.230 -0.3114  0.1726  0.5153
  698TIP3    H223586   6.575   4.406   5.227  0.5336  0.2311 -1.0228
  699TIP3   OH223587   6.593   2.287  12.590  0.2497 -0.4890 -0.1315
  699TIP3    H123588   6.670   2.303  12.536 -0.1157 -1.9717 -1.1651
  699TIP3    H223589   6.519   2.294  12.530 -0.2004 -1.7053  0.2513
  700TIP3   OH223590   1.066   4.734   4.124 -0.2368 -0.4493  0.0332
  700TIP3    H123591   1.005   4.792   4.170 -0.0174  0.5670 -0.9224
  700TIP3    H223592   1.018   4.652   4.114 -1.6782  0.4816 -1.1460
  701TIP3   OH223593   5.002   0.879   4.861 -0.4078 -0.2048 -0.1214
  701TIP3    H123594   5.019   0.827   4.940 -1.4759 -0.0656  0.2127
  701TIP3    H223595   5.014   0.817   4.789  0.5570 -0.3401  0.1425
  702TIP3   OH223596   0.855   6.398  15.556 -0.1300  0.1525  0.0672
  702TIP3    H123597   0.817   6.460  15.617 -0.6325  0.4251 -0.5111
  702TIP3    H223598   0.780   6.354  15.516  0.1725  0.1892 -0.5634
  703TIP3   OH223599   0.408   5.686  12.652  0.0072  0.1493 -0.6281
  703TIP3    H123600   0.386   5.727  12.736 -1.9674  0.8381 -1.4087
  703TIP3    H223601   0.454   5.754  12.603 -1.3179  0.7542 -1.0983
  704TIP3   OH223602   0.139   3.970  13.624 -0.4408  0.1270  0.1851
  704TIP3    H123603   0.104   4.050  13.664 -0.9308 -0.8485  1.7861
  704TIP3    H223604   0.075   3.948  13.556 -1.4823 -0.0744  1.1965
  705TIP3   OH223605   5.556   2.039  15.513 -0.1153  0.3956 -0.2708
  705TIP3    H123606   5.484   2.001  15.563 -0.9751  1.4191 -0.6942
  705TIP3    H223607   5.577   2.120  15.559  0.7759  0.1050 -0.1543
  706TIP3   OH223608   6.685   3.279  16.391 -0.4428 -0.2719 -0.1975
  706TIP3    H123609   6.714   3.290  16.300 -0.5383 -2.2100 -0.4941
  706TIP3    H223610   6.705   3.364  16.432  3.1311 -0.5246 -1.0583
  707TIP3   OH223611   3.701   1.233  10.352 -0.1178 -0.5866 -0.1700
  707TIP3    H123612   3.680   1.140  10.343 -0.9784 -0.4278  0.0863
  707TIP3    H223613   3.648   1.262  10.426 -1.0967  0.4648 -1.2482
  708TIP3   OH223614   1.634   0.699   0.372  0.0694 -0.2552  0.0470
  708TIP3    H123615   1.612   0.761   0.442 -1.5062 -0.3713 -0.3096
  708TIP3    H223616   1.637   0.614   0.415 -1.0886 -0.3512 -0.0478
  709TIP3   OH223617   5.937   3.978  14.556 -0.3405 -0.3063  0.6633
  709TIP3    H123618   5.915   4.017  14.471 -0.9244  1.0504  1.4106
  709TIP3    H223619   5.873   4.014  14.617  0.4402 -0.7798  1.8030
  710TIP3   OH223620   4.663   2.553   0.844 -0.2613 -0.1716 -0.0211
  710TIP3    H123621   4.617   2.474   0.818  0.1913 -0.3287 -0.3691
  710TIP3    H223622   4.737   2.559   0.783  0.0502  0.1910  0.3819
  711TIP3   OH223623   1.239   5.938  11.093 -0.3071 -0.6498 -0.5052
  711TIP3    H123624   1.281   5.876  11.154 -0.9534  0.1479  0.8090
  711TIP3    H223625   1.174   5.885  11.047 -0.8284 -0.9973  0.5805
  712TIP3   OH223626   2.014   3.920  16.727  0.3820  0.0869 -0.1786
  712TIP3    H123627   1.981   3.968  16.651 -0.7060 -0.1301  0.1497
  712TIP3    H223628   2.016   3.985  16.797  1.4181  0.2958 -0.3784
  713TIP3   OH223629   3.241   4.158  16.835  0.6804  0.5827 -0.4231
  713TIP3    H123630   3.254   4.232  16.894  0.3427  0.5995 -0.3644
  713TIP3    H223631   3.312   4.097  16.855  0.3271  0.4025  0.2894
  714TIP3   OH223632   4.575   4.174   4.887  0.0304  0.1182 -0.7965
  714TIP3    H123633   4.604   4.132   4.807  1.3859  0.3625 -0.4658
  714TIP3    H223634   4.621   4.258   4.888 -1.0200  0.7164 -0.4274
  715TIP3   OH223635   4.370   2.395  15.089  0.3867  0.3512 -0.3699
  715TIP3    H123636   4.327   2.318  15.051 -2.0812  0.1805  2.3934
  715TIP3    H223637   4.317   2.469  15.060  1.7844  0.8811 -1.6768
  716TIP3   OH223638   6.381   4.360   0.977  0.1077 -0.9123 -0.3650
  716TIP3    H123639   6.427   4.408   1.046 -0.6333  1.1969 -1.2541
  716TIP3    H223640   6.450   4.320   0.925  0.8602  0.4431 -0.4492
  717TIP3   OH223641   6.105   5.800  10.903 -0.0220 -0.1851 -0.2763
  717TIP3    H123642   6.059   5.807  10.987  1.1614 -1.0790  0.4705
  717TIP3    H223643   6.162   5.724  10.913  2.0325  1.1780 -0.9491
  718TIP3   OH223644   3.004   4.836  12.885  0.0912  0.1018  0.2525
  718TIP3    H123645   3.092   4.871  12.897  0.4242 -0.5753 -0.2323
  718TIP3    H223646   2.952   4.912  12.859  0.9591  0.1394 -1.5020
  719TIP3   OH223647   5.732   3.735   2.470 -0.7439 -0.4186 -0.4562
  719TIP3    H123648   5.682   3.816   2.469 -2.4756 -1.4386 -1.0911
  719TIP3    H223649   5.685   3.678   2.530 -0.3026 -1.3735 -0.9932
  720TIP3   OH223650   1.062   3.184  12.200 -0.4051 -0.2363 -0.4325
  720TIP3    H123651   0.995   3.118  12.215  0.5091 -0.5839  2.9180
  720TIP3    H223652   1.057   3.242  12.276  2.9353 -0.2095 -0.0656
  721TIP3   OH223653   3.328   1.914  13.361 -0.2964 -0.7755 -0.3727
  721TIP3    H123654   3.360   1.849  13.424  0.3317  0.4828  0.6448
  721TIP3    H223655   3.234   1.898  13.356 -0.6708  0.1696  2.2292
  722TIP3   OH223656   2.667   3.244   1.577  0.0985  0.2310  0.0086
  722TIP3    H123657   2.582   3.231   1.534  0.2026 -1.7856  0.2892
  722TIP3    H223658   2.726   3.185   1.529  0.6075 -0.7309  1.7482
  723TIP3   OH223659   3.678   5.316   2.038  0.1463  0.1806  0.8349
  723TIP3    H123660   3.685   5.405   2.073 -0.8283  0.1479  1.1409
  723TIP3    H223661   3.673   5.329   1.943 -1.6268  0.5905  0.9494
  724TIP3   OH223662   1.030   2.007   3.295 -0.2213 -0.6002  0.1468
  724TIP3    H123663   1.102   2.052   3.250 -1.8042  0.0502 -1.9087
  724TIP3    H223664   1.014   2.060   3.373  0.9836 -0.2865  0.1994
  725TIP3   OH223665   6.261   2.416   0.210 -0.0921  0.3786  0.2150
  725TIP3    H123666   6.179   2.398   0.257  0.8342 -0.9164  1.4215
  725TIP3    H223667   6.235   2.422   0.118 -1.5078 -0.3520  0.5374
  726TIP3   OH223668   1.912   2.379   5.003 -0.0779 -0.6479  0.2961
  726TIP3    H123669   1.869   2.419   5.079 -0.4283 -1.0885  0.3325
  726TIP3    H223670   1.980   2.324   5.041  0.8872  0.4590  0.2205
  727TIP3   OH223671   3.443   3.843   1.114 -0.2802  0.4920  0.5156
  727TIP3    H123672   3.367   3.859   1.169  1.3703 -0.4361  3.2781
  727TIP3    H223673   3.464   3.751   1.128  1.2839  0.6915 -0.2550
  728TIP3   OH223674   6.404   3.921  12.564  0.7819  0.9124 -0.4324
  728TIP3    H123675   6.369   3.849  12.512  0.8729  0.1453  0.5512
  728TIP3    H223676   6.427   3.988  12.499  3.4862 -1.0851 -1.7203
  729TIP3   OH223677   5.848   5.380   2.696 -0.1900  0.6538  0.4141
  729TIP3    H123678   5.855   5.417   2.784 -1.5606  0.7637  0.5062
  729TIP3    H223679   5.837   5.286   2.711  2.6409  0.2025  0.2039
  730TIP3   OH223680   0.447   6.296   0.395 -0.0113  0.2285 -0.2993
  730TIP3    H123681   0.526   6.300   0.342  0.3867 -1.9266  0.0301
  730TIP3    H223682   0.377   6.323   0.336  0.9941  3.1192 -0.3306
  731TIP3   OH223683   5.848   3.117  12.848 -0.0930 -0.4176 -0.1293
  731TIP3    H123684   5.808   3.110  12.762  0.1503  3.1405 -0.6692
  731TIP3    H223685   5.774   3.132  12.907 -0.0826 -0.5661 -0.0787
  732TIP3   OH223686   1.781   6.137   0.640  0.1689 -0.0922  0.4116
  732TIP3    H123687   1.737   6.110   0.720  0.5966  0.2261  0.7604
  732TIP3    H223688   1.786   6.058   0.587 -2.2021  0.1567 -0.3302
  733TIP3   OH223689   3.654   0.282   0.401 -0.4717  0.2882  0.4348
  733TIP3    H123690   3.573   0.310   0.360  0.0312 -0.6823 -1.3479
  733TIP3    H223691   3.655   0.187   0.391  1.2287  0.3363 -0.3538
  734TIP3   OH223692   1.351   6.524   6.698  0.0620  0.7593 -0.0710
  734TIP3    H123693   1.310   6.472   6.629  0.6873  1.9464 -1.3899
  734TIP3    H223694   1.441   6.538   6.668 -0.0196  2.3810  0.3456
  735TIP3   OH223695   2.791   5.226  13.995 -0.4523  0.8107  0.3592
  735TIP3    H123696   2.805   5.302  14.052  2.3131  1.0592 -0.5079
  735TIP3    H223697   2.812   5.257  13.907  3.8249 -1.5455  0.2988
  736TIP3   OH223698   2.334   0.556   5.553 -0.0470  0.2121 -0.7129
  736TIP3    H123699   2.246   0.590   5.572 -0.4243 -1.3688  0.5217
  736TIP3    H223700   2.323   0.461   5.550  2.2201 -0.3705  3.3193
  737TIP3   OH223701   2.028   2.787  16.563 -0.2858  0.0162 -0.6726
  737TIP3    H123702   2.090   2.849  16.601 -0.9785  0.2983  0.0093
  737TIP3    H223703   2.025   2.811  16.470 -2.0008  2.3247 -0.1090
  738TIP3   OH223704   4.150   0.181   1.572 -0.0356  0.3438 -0.4359
  738TIP3    H123705   4.168   0.262   1.524 -0.6708  1.1432  0.6100
  738TIP3    H223706   4.231   0.130   1.566  0.0080  0.5589 -2.0388
  739TIP3   OH223707   4.304   5.826  11.734 -0.1157 -0.1553 -0.4583
  739TIP3    H123708   4.268   5.756  11.788 -1.0990 -0.9523 -2.0611
  739TIP3    H223709   4.243   5.899  11.746 -1.2082 -0.8473 -1.6493
  740TIP3   OH223710   6.391   4.443   2.308 -0.7227  0.0389  0.6815
  740TIP3    H123711   6.399   4.451   2.403  0.2917 -0.3944  0.6474
  740TIP3    H223712   6.454   4.375   2.285 -0.0304  1.0215 -0.4342
  741TIP3   OH223713   5.125   1.817  17.216 -0.2568 -0.0478 -0.0322
  741TIP3    H123714   5.168   1.802  17.132 -1.5898 -1.6949 -0.4680
  741TIP3    H223715   5.063   1.887  17.199  0.2082  0.3470 -0.1328
  742TIP3   OH223716   0.675   5.350  17.122  0.7375 -0.1344  0.8630
  742TIP3    H123717   0.624   5.283  17.076 -2.1801  2.2764  0.3323
  742TIP3    H223718   0.763   5.342  17.085 -0.1629 -1.9203 -1.0960
  743TIP3   OH223719   2.550   6.059   4.051  0.0738  0.2327 -0.2983
  743TIP3    H123720   2.605   6.096   3.982 -0.1450 -1.4580 -1.4358
  743TIP3    H223721   2.466   6.043   4.008 -0.3526 -0.0140  0.6090
  744TIP3   OH223722   0.374   6.458  11.721 -0.0973 -0.3007 -0.2083
  744TIP3    H123723   0.338   6.534  11.766  0.3399  0.2141 -0.7194
  744TIP3    H223724   0.349   6.383  11.776  0.7348  0.3437  1.0838
  745TIP3   OH223725   6.205   1.344   2.872  0.4246 -0.5183 -0.1353
  745TIP3    H123726   6.112   1.323   2.872 -0.1128  1.5561  1.1975
  745TIP3    H223727   6.222   1.379   2.785  0.2149 -1.7822 -0.7068
  746TIP3   OH223728   4.824   2.076   4.322 -0.2098  0.2463  0.1918
  746TIP3    H123729   4.857   2.017   4.390 -0.3146 -1.7607 -1.3789
  746TIP3    H223730   4.745   2.033   4.290  0.0836  0.8618 -1.4896
  747TIP3   OH223731   3.676   1.167   5.864 -0.4573 -0.5337 -0.4496
  747TIP3    H123732   3.742   1.209   5.809 -0.4769  0.1673  0.0495
  747TIP3    H223733   3.724   1.099   5.912 -0.3623 -0.8806 -1.0222
  748TIP3   OH223734   3.324   6.596  15.022 -0.5261  0.2010  0.0084
  748TIP3    H123735   3.309   6.661  15.091 -0.4855  1.3619 -1.0390
  748TIP3    H223736   3.250   6.536  15.029 -1.6085  1.4656 -0.2126
  749TIP3   OH223737   4.952   3.836  16.272  0.9638 -0.3439 -0.3528
  749TIP3    H123738   5.024   3.852  16.210 -0.1789  0.6285 -1.4788
  749TIP3    H223739   4.889   3.905  16.253  0.1926 -0.5325  1.3524
  750TIP3   OH223740   1.265   3.713   2.160 -0.7594  0.5381 -0.4238
  750TIP3    H123741   1.308   3.658   2.094  0.1914 -0.7660  1.2207
  750TIP3    H223742   1.222   3.782   2.108  3.1087  1.8748 -2.2737
  751TIP3   OH223743   6.546   1.201  14.226  0.0123  0.6878 -0.9494
  751TIP3    H123744   6.519   1.121  14.271  1.0369  1.3637  0.9539
  751TIP3    H223745   6.483   1.210  14.154 -1.2596 -0.8222 -0.0911
  752TIP3   OH223746   1.240   2.843   4.847  0.6904  0.1501  0.3597
  752TIP3    H123747   1.307   2.801   4.793  0.3385  0.3348 -0.2293
  752TIP3    H223748   1.173   2.871   4.784  0.2178  0.2585  0.9078
  753TIP3   OH223749   5.640   3.090  16.206 -0.6017  0.8559  0.6014
  753TIP3    H123750   5.634   3.001  16.170  0.7539  1.0904 -0.2766
  753TIP3    H223751   5.662   3.078  16.298  0.6389  0.2690  0.2478
  754TIP3   OH223752   4.130   6.371  12.456  0.3313 -0.2366 -0.2484
  754TIP3    H123753   4.218   6.342  12.480  0.7186  0.2908 -1.0257
  754TIP3    H223754   4.134   6.385  12.362 -1.0483 -1.8264 -0.6000
  755TIP3   OH223755   4.183   1.553   0.652 -0.0785  0.2073  0.0416
  755TIP3    H123756   4.278   1.560   0.655  0.0645 -0.0781 -2.1236
  755TIP3    H223757   4.154   1.632   0.606 -0.8087 -0.1336 -0.1076
  756TIP3   OH223758   1.977   3.861   2.462  0.3538  0.5571  0.2074
  756TIP3    H123759   1.978   3.766   2.475  2.1662  0.4750 -0.3317
  756TIP3    H223760   1.932   3.895   2.539 -0.6426 -0.7494  0.2330
  757TIP3   OH223761   2.235   4.875   4.980 -0.4096  0.2691  0.1406
  757TIP3    H123762   2.309   4.815   4.985  0.5672  1.4306  0.0333
  757TIP3    H223763   2.269   4.958   5.013 -2.4009  0.2035  2.7867
  758TIP3   OH223764   0.802   6.279  13.324  0.2206  0.3431 -0.4867
  758TIP3    H123765   0.820   6.199  13.372 -0.4016  0.7067  0.3743
  758TIP3    H223766   0.885   6.299  13.280  1.2679  0.7325  1.5318
  759TIP3   OH223767   5.951   5.883   4.879  0.7965 -0.1429  0.6474
  759TIP3    H123768   5.883   5.817   4.866  2.9421 -2.3043 -0.3061
  759TIP3    H223769   6.024   5.835   4.919  2.8178  1.3830 -0.9712
  760TIP3   OH223770   2.135   5.002   3.711 -0.2134  0.0122 -0.0645
  760TIP3    H123771   2.162   5.094   3.704 -0.4425  0.3970  2.7097
  760TIP3    H223772   2.210   4.952   3.678 -0.1235  1.1774 -1.6994
  761TIP3   OH223773   5.804   4.300  14.358 -0.1987  0.1163 -0.1152
  761TIP3    H123774   5.834   4.234  14.296 -0.9956  0.6865 -1.1364
  761TIP3    H223775   5.861   4.376  14.342 -1.0422  0.6060 -0.8610
  762TIP3   OH223776   5.114   3.228  12.622  0.0647 -0.3205 -0.0882
  762TIP3    H123777   5.025   3.202  12.598  0.2286 -0.1325 -0.9503
  762TIP3    H223778   5.135   3.299  12.561  0.6824 -0.1297  0.3343
  763TIP3   OH223779   6.193   2.000  11.351  0.0085  0.3753  0.4899
  763TIP3    H123780   6.189   1.960  11.264  0.0331 -0.1449  0.7213
  763TIP3    H223781   6.108   2.042  11.362 -0.7291 -1.1464  0.9457
  764TIP3   OH223782   6.678   3.873   2.784  0.1652  0.9170 -0.2611
  764TIP3    H123783   6.585   3.857   2.768  0.1007  1.4198 -0.3961
  764TIP3    H223784   6.707   3.796   2.833 -0.4833  1.0776  0.3871
  765TIP3   OH223785   4.070   2.167  15.971  0.0112 -0.3081  0.2066
  765TIP3    H123786   4.136   2.129  15.913  1.6558  0.3467  1.5703
  765TIP3    H223787   4.051   2.253  15.934 -0.0686 -0.4883 -0.1753
  766TIP3   OH223788   4.806   2.541  13.806  0.1442 -0.3290  0.4698
  766TIP3    H123789   4.873   2.516  13.869  0.7032 -0.3601 -0.1334
  766TIP3    H223790   4.768   2.622  13.841 -0.1812 -0.8293  1.3119
  767TIP3   OH223791   2.824   0.309  16.030 -0.1315  0.2186 -0.0187
  767TIP3    H123792   2.876   0.331  15.954 -0.5428  0.2865 -0.2859
  767TIP3    H223793   2.740   0.354  16.016 -0.1311  0.4201  0.5792
  768TIP3   OH223794   2.182   1.200  14.096 -0.8518  0.2261 -0.4402
  768TIP3    H123795   2.231   1.281  14.112 -2.4154  0.8359  1.8169
  768TIP3    H223796   2.239   1.131  14.129 -1.3752  0.9273  2.1664
  769TIP3   OH223797   0.963   4.013  16.353 -0.2212 -0.4523 -0.0733
  769TIP3    H123798   0.916   3.962  16.419 -0.3862 -0.2290 -0.0153
  769TIP3    H223799   1.045   3.966  16.340  0.5137  0.3345  1.4402
  770TIP3   OH223800   6.512   6.582   2.668 -0.6537 -0.0852 -0.3787
  770TIP3    H123801   6.446   6.574   2.737 -1.4609  0.3989 -1.0659
  770TIP3    H223802   6.586   6.625   2.711 -1.3274  0.6483  0.0777
  771TIP3   OH223803   4.739   0.365  15.883  0.5511 -0.0839  0.6477
  771TIP3    H123804   4.663   0.315  15.912  0.3434  0.1575  0.5225
  771TIP3    H223805   4.734   0.365  15.788  2.1152 -2.2499  0.5015
  772TIP3   OH223806   6.437   2.069  15.115 -0.1945  0.5473 -0.3538
  772TIP3    H123807   6.527   2.068  15.083 -0.0005 -3.0721 -0.1597
  772TIP3    H223808   6.407   1.978  15.104 -2.9691  1.0499  1.8801
  773TIP3   OH223809   6.485   4.552   0.739 -0.1012 -0.0958 -0.3652
  773TIP3    H123810   6.459   4.585   0.654  1.8871  0.5292 -0.7930
  773TIP3    H223811   6.477   4.626   0.798  2.5987  0.7957 -0.9531
  774TIP3   OH223812   4.678   1.396   0.335 -0.3339 -0.3658  0.3425
  774TIP3    H123813   4.648   1.351   0.414 -0.9330 -0.7778 -0.1170
  774TIP3    H223814   4.722   1.475   0.368 -3.1295  1.0366  1.0325
  775TIP3   OH223815   4.402   6.217   1.095  0.1337  0.4325 -0.4910
  775TIP3    H123816   4.340   6.148   1.117  0.0721 -0.3594 -2.8183
  775TIP3    H223817   4.351   6.281   1.047  1.0573 -0.3296 -2.6243
  776TIP3   OH223818   0.967   0.482  10.985  0.3738  0.1754 -0.1034
  776TIP3    H123819   0.969   0.577  10.998  2.0958  0.5200 -2.2569
  776TIP3    H223820   1.056   0.460  10.957 -0.0761 -2.0422  0.0478
  777TIP3   OH223821   6.315   4.262   1.801  0.3812  0.6256  0.6373
  777TIP3    H123822   6.266   4.187   1.833 -1.0442  0.7439 -1.1141
  777TIP3    H223823   6.374   4.226   1.735  0.2823  0.9390  0.3764
  778TIP3   OH223824   6.724   1.965   3.917  0.1821  0.0994 -0.6673
  778TIP3    H123825   6.643   1.936   3.961 -0.5603  0.3969 -1.7902
  778TIP3    H223826   6.719   2.060   3.919  0.0683  0.1172 -1.4993
  779TIP3   OH223827   4.555   3.227  13.191 -0.1744 -0.7813  0.2020
  779TIP3    H123828   4.525   3.292  13.254  3.4388  2.6977 -1.2155
  779TIP3    H223829   4.484   3.220  13.127 -1.8222 -0.5719  1.9303
  780TIP3   OH223830   0.583   4.297  14.243  0.6382  0.4201 -0.1730
  780TIP3    H123831   0.676   4.311  14.260  0.7708 -0.9693  0.3684
  780TIP3    H223832   0.564   4.352  14.166  1.9639  0.5156 -0.4518
  781TIP3   OH223833   2.841   0.550  11.040  0.3778 -0.0058 -0.1997
  781TIP3    H123834   2.776   0.523  10.974  0.2952  0.5068 -0.3323
  781TIP3    H223835   2.803   0.628  11.080 -0.2091 -1.0557  1.4033
  782TIP3   OH223836   3.595   1.657   2.220  0.1213 -0.0141 -0.0583
  782TIP3    H123837   3.599   1.572   2.264 -0.2366  0.1031  0.2016
  782TIP3    H223838   3.515   1.653   2.168  0.0850  0.1838 -0.0161
  783TIP3   OH223839   5.545   2.040   2.036 -0.5407 -0.4224 -0.4339
  783TIP3    H123840   5.486   2.027   1.962 -0.7611  0.4043 -0.4191
  783TIP3    H223841   5.606   2.108   2.007  0.5082 -1.3639 -0.4967
  784TIP3   OH223842   2.371   2.823  11.565  0.3323  0.3772  0.1288
  784TIP3    H123843   2.376   2.758  11.635  0.0841 -0.8402 -0.9643
  784TIP3    H223844   2.410   2.902  11.604 -1.2975  0.2577  2.1906
  785TIP3   OH223845   4.088   0.418  12.886  0.0993 -0.3249  0.5681
  785TIP3    H123846   4.013   0.424  12.826  0.8060 -0.8438 -0.4051
  785TIP3    H223847   4.114   0.508  12.902 -0.9932 -0.1206  1.2602
  786TIP3   OH223848   4.584   6.232   2.799  0.0330  0.0549 -0.0772
  786TIP3    H123849   4.666   6.282   2.803  0.1892 -0.0756 -1.2019
  786TIP3    H223850   4.595   6.164   2.865  0.6857  0.2605  0.0417
  787TIP3   OH223851   4.228   4.142  12.345  0.0330 -0.7222 -0.0438
  787TIP3    H123852   4.305   4.187  12.379 -1.3840  0.9879  1.1027
  787TIP3    H223853   4.251   4.049  12.346  1.8773 -0.2924  0.6965
  788TIP3   OH223854   5.923   6.656  16.177  0.4249  0.4125  0.1995
  788TIP3    H123855   5.983   6.615  16.239 -0.6114 -2.0040 -0.2916
  788TIP3    H223856   5.852   6.689  16.231 -0.3005 -1.3659  0.3884
  789TIP3   OH223857   0.441   2.121   1.730 -0.2603  0.1101  0.0355
  789TIP3    H123858   0.478   2.083   1.810 -2.8351 -0.2353  1.1702
  789TIP3    H223859   0.452   2.215   1.742  3.6492  0.0452 -1.5210
  790TIP3   OH223860   2.192   3.332  13.855 -0.6258  0.9565  0.4093
  790TIP3    H123861   2.231   3.319  13.769 -1.6530  0.4293  0.0032
  790TIP3    H223862   2.171   3.425  13.858  1.0927  1.3675  0.8474
  791TIP3   OH223863   6.746   4.399   2.033 -0.4359 -0.3569 -0.4462
  791TIP3    H123864   6.657   4.374   2.057 -0.2165 -0.6296  0.1085
  791TIP3    H223865   6.768   4.340   1.960 -0.0174 -1.6435  0.6824
  792TIP3   OH223866   1.847   0.162   2.173 -0.3439  0.4545  0.1520
  792TIP3    H123867   1.858   0.252   2.140 -1.9012  0.2502 -1.0425
  792TIP3    H223868   1.756   0.157   2.201  0.0892 -0.3775  1.5321
  793TIP3   OH223869   0.644   3.715   1.781 -0.6946  0.5199  0.4484
  793TIP3    H123870   0.665   3.789   1.837 -0.2408  1.0171 -0.3669
  793TIP3    H223871   0.549   3.706   1.788 -0.7386  1.1029  0.6382
  794TIP3   OH223872   2.851   2.504  16.989 -0.0172 -0.0575 -0.6733
  794TIP3    H123873   2.793   2.524  16.915  0.4999  1.0501 -0.8027
  794TIP3    H223874   2.792   2.488  17.062 -0.5154  1.6561 -0.6545
  795TIP3   OH223875   0.590   2.936  11.796  0.2598  0.2235  0.9838
  795TIP3    H123876   0.633   2.850  11.803  0.3635  0.2996  1.3481
  795TIP3    H223877   0.659   2.994  11.765 -0.0267  0.0172 -0.0646
  796TIP3   OH223878   4.521   5.017   4.841 -0.7234  0.1576  0.0642
  796TIP3    H123879   4.616   5.008   4.831 -0.9981 -2.8114 -1.0091
  796TIP3    H223880   4.495   4.938   4.888 -2.7734  0.4354 -0.5179
  797TIP3   OH223881   5.302   4.436   2.404 -0.2593  0.6947  0.6484
  797TIP3    H123882   5.388   4.476   2.413 -0.3047  0.9338  0.0691
  797TIP3    H223883   5.294   4.377   2.479  0.4412  0.6102  0.6586
  798TIP3   OH223884   2.335   0.162  11.647  0.2489 -0.0852 -0.6538
  798TIP3    H123885   2.422   0.180  11.610 -0.3346 -0.1159 -2.1330
  798TIP3    H223886   2.277   0.221  11.599 -0.3043  1.4228  1.7491
  799TIP3   OH223887   3.792   1.843   2.207 -0.0942  0.5385 -0.3983
  799TIP3    H123888   3.726   1.774   2.217 -0.5903  1.0450 -0.0907
  799TIP3    H223889   3.746   1.924   2.232  1.2403  0.6485  2.0646
  800TIP3   OH223890   0.598   0.196  17.003 -0.4810 -0.3284 -0.1156
  800TIP3    H123891   0.692   0.187  17.017 -0.6761 -0.9526  0.9409
  800TIP3    H223892   0.558   0.140  17.070 -1.6445  2.0326  1.3338
  801TIP3   OH223893   6.558   6.419   3.297 -0.0757 -0.1660 -0.0014
  801TIP3    H123894   6.615   6.420   3.220  0.8943 -1.3483  0.6686
  801TIP3    H223895   6.591   6.490   3.352  0.5875 -0.6401  0.2375
  802TIP3   OH223896   1.015   5.403  13.180  0.2370 -0.6965 -0.4401
  802TIP3    H123897   1.055   5.375  13.098  0.1498 -1.5194 -0.2091
  802TIP3    H223898   1.088   5.407  13.242  0.0990 -1.3715 -0.2301
  803TIP3   OH223899   4.384   0.730  16.549  0.5354 -0.2990 -0.1663
  803TIP3    H123900   4.316   0.748  16.484  0.7244  1.4179  0.0632
  803TIP3    H223901   4.362   0.644  16.584 -0.7561 -0.3459 -1.0311
  804TIP3   OH223902   3.994   5.681   3.008 -0.0760 -0.3755 -0.3321
  804TIP3    H123903   3.919   5.635   2.970 -1.1520  1.4712 -0.5747
  804TIP3    H223904   4.020   5.628   3.083 -0.5945 -1.8819 -1.1737
  805TIP3   OH223905   0.667   5.706  13.063 -0.6312  0.0197  0.4823
  805TIP3    H123906   0.619   5.757  12.998 -1.0200 -0.6347  0.2453
  805TIP3    H223907   0.634   5.616  13.053  0.2666 -0.3461  0.6748
  806TIP3   OH223908   1.174   3.159   5.437 -0.2175  0.2316  0.0760
  806TIP3    H123909   1.125   3.139   5.517 -0.6609 -0.1984 -0.2928
  806TIP3    H223910   1.111   3.143   5.366  0.5513 -0.6825 -0.4315
  807TIP3   OH223911   6.065   1.747   2.105  0.5355 -0.2018 -0.2026
  807TIP3    H123912   6.021   1.810   2.048 -0.7103 -2.4129 -1.8279
  807TIP3    H223913   5.995   1.701   2.150  1.3496 -1.1517  0.1369
  808TIP3   OH223914   4.059   6.397  12.184 -0.1275  0.0168  0.6672
  808TIP3    H123915   3.997   6.375  12.115 -1.4082  0.3597  1.6577
  808TIP3    H223916   4.123   6.455  12.143 -0.3898 -0.4463 -0.4122
  809TIP3   OH223917   4.207   5.621   0.752 -0.3547 -0.3193  0.0023
  809TIP3    H123918   4.250   5.705   0.762 -1.3844  0.3343 -0.8515
  809TIP3    H223919   4.278   5.558   0.740  0.4777  0.2090  1.8790
  810TIP3   OH223920   3.402   0.474  16.528 -0.2081  0.1777 -0.0704
  810TIP3    H123921   3.315   0.492  16.493 -0.4021  1.4291  0.9632
  810TIP3    H223922   3.463   0.511  16.464 -0.4926  0.7077 -0.0399
  811TIP3   OH223923   5.865   6.230  14.898 -0.6625  0.2621 -0.2529
  811TIP3    H123924   5.917   6.154  14.873  0.2144  1.0386 -0.8505
  811TIP3    H223925   5.900   6.257  14.983 -1.1745 -0.1691  0.1013
  812TIP3   OH223926   3.132   6.387  14.966  0.2149  0.1174  0.2238
  812TIP3    H123927   3.098   6.408  15.053 -2.3412 -2.7494  0.1024
  812TIP3    H223928   3.186   6.309  14.979 -2.5224 -2.1762 -0.8991
  813TIP3   OH223929   1.961   2.105  15.592  0.0339 -0.6885 -0.0571
  813TIP3    H123930   2.049   2.141  15.590 -0.3897  0.4025 -1.9108
  813TIP3    H223931   1.973   2.011  15.581  1.0559 -0.9914  2.7703
  814TIP3   OH223932   2.635   2.459  12.702 -0.3391 -0.2897 -0.6104
  814TIP3    H123933   2.667   2.532  12.650  1.1532  0.1828  0.8967
  814TIP3    H223934   2.547   2.484  12.728 -0.5421  0.1184 -1.6455
  815TIP3   OH223935   2.001   2.332   5.468 -0.1033 -0.0062  0.4841
  815TIP3    H123936   2.095   2.338   5.484  0.1140 -2.7234  0.7830
  815TIP3    H223937   1.964   2.313   5.555 -0.8231  0.2815  0.2428
  816TIP3   OH223938   1.120   6.789   4.640  0.4452  0.3585 -0.7779
  816TIP3    H123939   1.061   6.792   4.564 -1.1028  0.3336  0.3571
  816TIP3    H223940   1.093   6.865   4.693  0.6070 -0.3567  0.3513
  817TIP3   OH223941   5.475   3.062  12.189  0.0841  0.3413  0.3721
  817TIP3    H123942   5.569   3.070  12.173  0.2963 -0.9709  0.7912
  817TIP3    H223943   5.440   3.150  12.177  1.2918  0.7513 -0.2772
  818TIP3   OH223944   3.149   0.125   4.622  0.4450  0.2619  0.0190
  818TIP3    H123945   3.191   0.133   4.708 -0.0065 -0.6188  0.3373
  818TIP3    H223946   3.063   0.089   4.641 -0.5025  2.0869 -0.6297
  819TIP3   OH223947   4.066   4.633   4.463 -0.5773 -0.4454 -0.1121
  819TIP3    H123948   4.118   4.671   4.392  1.0131 -0.4091  1.0273
  819TIP3    H223949   4.102   4.545   4.474 -1.5787 -0.8710 -0.0796
  820TIP3   OH223950   5.754   3.542  16.830  0.0668  0.2030 -0.0604
  820TIP3    H123951   5.697   3.550  16.906 -1.1026  0.2369 -0.9056
  820TIP3    H223952   5.808   3.465  16.848 -0.3201  0.1056  0.7211
  821TIP3   OH223953   3.078   1.412  10.388  0.4884 -0.1638  0.3717
  821TIP3    H123954   3.126   1.406  10.471  2.1153 -2.3136 -0.6343
  821TIP3    H223955   3.138   1.456  10.329 -0.8129  1.7115  0.3597
  822TIP3   OH223956   1.447   2.866   1.560  0.3592  0.0957  0.1280
  822TIP3    H123957   1.496   2.946   1.579 -0.3646  0.7046 -0.4781
  822TIP3    H223958   1.414   2.878   1.471 -0.3495 -0.5656  0.2815
  823TIP3   OH223959   1.277   0.997   4.240 -0.0028 -0.1858  0.0599
  823TIP3    H123960   1.187   0.984   4.268 -0.3260 -0.4890 -1.0628
  823TIP3    H223961   1.277   1.084   4.199  0.0185 -0.5070 -0.6408
  824TIP3   OH223962   0.555   4.664  15.848  0.2755 -0.0839 -0.1601
  824TIP3    H123963   0.531   4.586  15.797 -0.0411 -0.9624  1.2670
  824TIP3    H223964   0.643   4.687  15.816 -0.2490 -0.0894 -1.6699
  825TIP3   OH223965   0.096   2.482   4.637 -0.6113 -0.7571 -0.3480
  825TIP3    H123966   0.133   2.491   4.725  0.2316 -0.8162 -0.6808
  825TIP3    H223967   0.002   2.487   4.650 -0.5569 -1.8146  0.6977
  826TIP3   OH223968   2.882   0.406   6.659 -0.5734  0.7251  0.0870
  826TIP3    H123969   2.844   0.326   6.622 -2.8544  2.5897 -1.9809
  826TIP3    H223970   2.836   0.419   6.742 -0.4869  0.0975  0.2333
  827TIP3   OH223971   2.402   0.661   3.066  0.0429  0.2804  0.7629
  827TIP3    H123972   2.351   0.663   2.985 -0.0689  1.6403  0.8473
  827TIP3    H223973   2.488   0.695   3.041  0.4313 -0.5402  0.9476
  828TIP3   OH223974   1.221   4.223  11.088  0.1518  0.4073 -0.2244
  828TIP3    H123975   1.251   4.132  11.084  0.2639  0.3743  1.0368
  828TIP3    H223976   1.125   4.216  11.089  0.1640  0.2818  0.2084
  829TIP3   OH223977   6.132   5.305  13.343  0.4481  0.2232 -0.2439
  829TIP3    H123978   6.165   5.263  13.264 -3.1240 -1.2339 -1.1372
  829TIP3    H223979   6.049   5.344  13.317  0.1846  1.6611  2.3308
  830TIP3   OH223980   4.182   0.275   5.035  0.3053  0.6370 -0.2061
  830TIP3    H123981   4.086   0.271   5.032  0.2808  1.0048 -0.0245
  830TIP3    H223982   4.208   0.279   4.943  0.0203  2.7060 -0.2560
  831TIP3   OH223983   3.313   3.447   4.062  0.1314  0.2575 -0.2309
  831TIP3    H123984   3.335   3.457   4.155 -3.1187  2.4877  0.4745
  831TIP3    H223985   3.326   3.534   4.025 -2.0169  0.3160 -0.9550
  832TIP3   OH223986   0.147   6.231  15.998  0.4677  0.1276  0.0238
  832TIP3    H123987   0.130   6.241  16.092 -0.3921  0.7616 -0.1924
  832TIP3    H223988   0.088   6.293  15.956 -0.2834 -1.2716 -1.0371
  833TIP3   OH223989   0.811   3.713  15.570  0.5327  0.4809  0.1266
  833TIP3    H123990   0.723   3.699  15.537 -0.1662  0.8417  1.7610
  833TIP3    H223991   0.813   3.806  15.595  1.5317  0.5905 -0.2981
  834TIP3   OH223992   1.413   5.414   3.953 -0.7578 -0.0035  0.3748
  834TIP3    H123993   1.496   5.366   3.961 -0.6993 -0.2422 -1.3207
  834TIP3    H223994   1.384   5.427   4.044  1.2039  0.2155  1.0187
  835TIP3   OH223995   0.504   0.501  11.620 -0.0842  0.2573 -0.6769
  835TIP3    H123996   0.460   0.586  11.626  0.5055  0.5392 -0.3285
  835TIP3    H223997   0.567   0.511  11.549 -0.4945 -0.1092 -1.0967
  836TIP3   OH223998   4.758   1.978  15.980 -0.2145 -0.4873 -0.6422
  836TIP3    H123999   4.829   1.937  16.028 -0.6653 -2.1401 -1.3257
  836TIP3    H224000   4.793   1.991  15.891 -0.8388 -1.5974 -1.0697
  837TIP3   OH224001   0.844   1.208   3.626 -0.5895  0.3016  1.4510
  837TIP3    H124002   0.813   1.298   3.617  2.8579  1.4313 -1.6122
  837TIP3    H224003   0.789   1.158   3.565  1.1116  1.6209 -1.3623
  838TIP3   OH224004   0.590   1.835   3.593  0.6587  0.0133  0.8915
  838TIP3    H124005   0.501   1.848   3.628 -0.3758 -1.0018 -1.1625
  838TIP3    H224006   0.636   1.787   3.662 -1.0427 -1.2583  1.2236
  839TIP3   OH224007   3.759   4.572   1.983 -0.4774 -0.5511 -0.2077
  839TIP3    H124008   3.796   4.643   1.931 -0.0382 -1.2889 -0.9103
  839TIP3    H224009   3.807   4.575   2.066  1.2441 -1.5537 -1.1354
  840TIP3   OH224010   2.805   3.026   3.975  0.1436 -0.6561 -0.3062
  840TIP3    H124011   2.773   2.958   3.916 -0.5674  0.8148 -1.6729
  840TIP3    H224012   2.892   3.047   3.941 -0.6425  0.8653 -1.4964
  841TIP3   OH224013   3.113   1.849   1.696 -0.3749  0.0297 -0.4757
  841TIP3    H124014   3.021   1.875   1.696 -0.6955 -1.0554 -0.3417
  841TIP3    H224015   3.128   1.816   1.607 -0.1471  0.0998 -0.4625
  842TIP3   OH224016   5.123   0.592  17.112  0.1527 -0.7638  0.3991
  842TIP3    H124017   5.199   0.598  17.171  0.8662  0.1430 -0.5745
  842TIP3    H224018   5.111   0.681  17.079 -0.7577 -1.0888 -0.1907
  843TIP3   OH224019   4.877   5.432   3.387 -0.5698  0.3921  0.0102
  843TIP3    H124020   4.846   5.521   3.403  0.6707  0.8898 -0.1779
  843TIP3    H224021   4.850   5.412   3.298  0.4209  1.1814 -0.4896
  844TIP3   OH224022   1.672   1.461   5.654 -0.5894  0.4910 -0.5708
  844TIP3    H124023   1.755   1.435   5.614  0.2753  0.6434  1.0511
  844TIP3    H224024   1.672   1.557   5.651 -1.0688  0.4769 -1.2471
  845TIP3   OH224025   5.079   5.456  15.210  0.5408  0.0089 -0.4687
  845TIP3    H124026   5.019   5.414  15.271  0.5050  0.7099  0.0013
  845TIP3    H224027   5.151   5.394  15.200  0.2295 -0.3951 -0.2305
  846TIP3   OH224028   3.997   0.954  17.020  0.0790 -0.4787  0.6597
  846TIP3    H124029   3.990   1.018  16.949 -0.7264  0.1229  1.2650
  846TIP3    H224030   4.087   0.964  17.052  0.3956 -0.6363 -0.1552
  847TIP3   OH224031   5.146   6.118   0.170  0.0714  0.2065 -0.1975
  847TIP3    H124032   5.068   6.094   0.219 -1.0758  1.9309 -1.0772
  847TIP3    H224033   5.195   6.036   0.161 -3.3150 -1.8107 -2.6604
  848TIP3   OH224034   2.547   0.624  16.511 -0.1763  0.4241 -0.1444
  848TIP3    H124035   2.460   0.622  16.472 -1.2096  2.4517  1.7956
  848TIP3    H224036   2.585   0.706  16.482  0.5760  0.1543  0.0498
  849TIP3   OH224037   2.191   5.670  14.933 -0.3873 -0.2806 -0.3126
  849TIP3    H124038   2.262   5.725  14.899 -1.0561  0.7997 -0.0157
  849TIP3    H224039   2.233   5.587  14.955  0.6639  0.1313 -0.7122
  850TIP3   OH224040   2.092   0.561   5.375  0.5432 -0.2465 -0.0020
  850TIP3    H124041   2.098   0.609   5.458  3.1632 -1.9815  0.9442
  850TIP3    H224042   2.154   0.605   5.317  0.8429 -0.7590 -0.0758
  851TIP3   OH224043   5.089   2.898  10.742 -0.0833  0.4147  0.2208
  851TIP3    H124044   5.006   2.868  10.706  0.5847 -0.5624 -0.5795
  851TIP3    H224045   5.090   2.864  10.831  0.1345 -0.9878 -0.2861
  852TIP3   OH224046   3.467   3.560  12.503  0.3120 -0.0276  0.5147
  852TIP3    H124047   3.539   3.615  12.473 -1.6059  2.2724 -0.2678
  852TIP3    H224048   3.498   3.521  12.585  1.8664  2.1554  1.0481
  853TIP3   OH224049   1.346   6.102  15.033  0.0399  0.2947  0.1752
  853TIP3    H124050   1.352   6.162  15.108  0.4881  0.6124 -0.1073
  853TIP3    H224051   1.319   6.158  14.960  1.2736  0.3335 -0.2797
  854TIP3   OH224052   5.186   5.262  11.225 -0.1176  0.4711 -0.1260
  854TIP3    H124053   5.237   5.211  11.288  1.9541  1.6752 -0.7570
  854TIP3    H224054   5.102   5.215  11.220  0.0874 -0.3758  2.5493
  855TIP3   OH224055   4.707   2.677  13.332  0.2205  0.4659  0.3283
  855TIP3    H124056   4.674   2.757  13.372  0.9278  0.6910  0.4681
  855TIP3    H224057   4.661   2.671  13.248 -1.3310 -0.0566  1.1900
  856TIP3   OH224058   0.025   0.459  10.334  0.3128  0.0289 -0.4234
  856TIP3    H124059   0.031   0.547  10.370  0.2077 -0.1488  0.0327
  856TIP3    H224060   0.115   0.439  10.305  0.3119  0.3269 -0.6387
  857TIP3   OH224061   3.360   1.347  15.718 -0.5300 -0.0953  0.0498
  857TIP3    H124062   3.374   1.317  15.808  1.4982 -1.1178 -0.5295
  857TIP3    H224063   3.340   1.440  15.726  0.9239  0.1316  1.4980
  858TIP3   OH224064   0.264   4.061   4.589 -0.2321  0.0782 -0.3097
  858TIP3    H124065   0.269   4.036   4.682 -1.0709 -0.2604 -0.3412
  858TIP3    H224066   0.328   4.131   4.579  2.4652 -2.2066 -0.2662
  859TIP3   OH224067   5.020   5.515   1.612  0.3410 -0.2997 -0.4807
  859TIP3    H124068   4.929   5.542   1.627 -0.4077 -1.6690 -2.0931
  859TIP3    H224069   5.051   5.572   1.542  0.5433 -0.1578 -0.2732
  860TIP3   OH224070   4.941   2.504   2.439  0.2916  0.1360  0.6619
  860TIP3    H124071   4.988   2.588   2.432 -1.8462  1.6610  2.8042
  860TIP3    H224072   4.945   2.483   2.532 -0.4738 -1.4035  0.3730
  861TIP3   OH224073   3.297   5.516   3.943  0.8276 -0.7577 -0.3039
  861TIP3    H124074   3.391   5.508   3.925  0.8216  1.6861 -1.8102
  861TIP3    H224075   3.291   5.515   4.038  2.7133  1.4278 -0.0737
  862TIP3   OH224076   3.758   3.758  15.524 -0.5797 -0.3702  0.1911
  862TIP3    H124077   3.832   3.697  15.520  0.1708  0.5687 -0.6910
  862TIP3    H224078   3.792   3.834  15.571 -0.5468  0.6109 -1.3412
  863TIP3   OH224079   4.133   4.454  15.240 -0.0345  0.2666 -0.1867
  863TIP3    H124080   4.200   4.513  15.207  0.8943 -1.5301 -1.7062
  863TIP3    H224081   4.177   4.405  15.310  1.7998 -3.7231 -3.7301
  864TIP3   OH224082   0.896   5.993   0.880  0.2615  0.1035  0.3090
  864TIP3    H124083   0.815   5.974   0.927 -1.4722 -1.8445 -3.1390
  864TIP3    H224084   0.894   6.088   0.867 -0.1279  0.4302  2.3167
  865TIP3   OH224085   2.190   5.949   5.092  0.0718 -0.3149 -0.2668
  865TIP3    H124086   2.238   5.912   5.166 -0.2346 -1.1441 -0.4661
  865TIP3    H224087   2.108   5.979   5.129 -0.4753 -1.5718 -0.3962
  866TIP3   OH224088   6.140   5.825  13.381 -0.6219 -0.6539 -0.5231
  866TIP3    H124089   6.211   5.870  13.335 -0.6424  1.0130  1.0011
  866TIP3    H224090   6.177   5.803  13.467 -1.5143 -1.0453 -0.2271
  867TIP3   OH224091   5.319   5.283  15.244 -0.3397  0.2605 -0.1911
  867TIP3    H124092   5.321   5.209  15.183  0.7355 -0.3492  0.5482
  867TIP3    H224093   5.404   5.325  15.234 -0.6164  0.8742  0.0239
  868TIP3   OH224094   1.791   0.955  13.535 -0.0892 -0.1683  0.2979
  868TIP3    H124095   1.730   0.972  13.463 -1.1278 -2.0051  0.6563
  868TIP3    H224096   1.870   0.922  13.493 -0.1284  0.2148 -0.0770
  869TIP3   OH224097   4.603   4.921   0.683 -0.2605  0.3623 -0.0027
  869TIP3    H124098   4.541   4.852   0.707  0.7631  0.0070  1.8482
  869TIP3    H224099   4.688   4.876   0.681  0.0233  0.8784 -2.2838
  870TIP3   OH224100   0.313   4.530  15.143 -0.4191 -0.2031  0.1252
  870TIP3    H124101   0.408   4.530  15.145 -0.3909  1.7807  0.5155
  870TIP3    H224102   0.291   4.507  15.052  0.5346  2.1555 -0.7766
  871TIP3   OH224103   3.608   1.860   1.386  0.0688 -0.0717 -0.4680
  871TIP3    H124104   3.570   1.777   1.358 -1.7417  0.4285  0.4032
  871TIP3    H224105   3.569   1.925   1.328 -1.2956  0.5776  1.1225
  872TIP3   OH224106   3.453   5.441   5.344  0.1300 -0.4329  0.9754
  872TIP3    H124107   3.438   5.351   5.317  1.5941 -0.0695 -1.3416
  872TIP3    H224108   3.547   5.447   5.359  0.5390  1.2800 -1.6002
  873TIP3   OH224109   1.375   1.213  10.952  0.9733  0.1312  0.5303
  873TIP3    H124110   1.413   1.127  10.967 -1.8563 -1.3349 -0.0877
  873TIP3    H224111   1.362   1.218  10.857 -0.7733  0.3175  0.7483
  874TIP3   OH224112   1.978   5.705   2.080  0.1213  0.2034  0.1460
  874TIP3    H124113   1.969   5.679   2.172 -0.7696 -1.4549 -0.3701
  874TIP3    H224114   1.985   5.801   2.083  0.3885  0.1706  1.9458
  875TIP3   OH224115   3.673   4.858  14.471  0.3570 -0.1206 -0.1110
  875TIP3    H124116   3.653   4.804  14.394 -1.3964  1.6241 -0.9558
  875TIP3    H224117   3.601   4.841  14.532 -0.2908  1.3108 -0.4443
  876TIP3   OH224118   2.284   4.206  15.609  0.2337 -0.5514 -0.4430
  876TIP3    H124119   2.273   4.234  15.700  2.3728  2.2075 -0.8723
  876TIP3    H224120   2.205   4.157  15.589 -0.5114 -0.8811  2.7533
  877TIP3   OH224121   2.458   3.968   3.566  0.3986 -0.4862 -0.2016
  877TIP3    H124122   2.543   3.927   3.584 -0.5339 -1.9336  1.1677
  877TIP3    H224123   2.421   3.986   3.652  0.2466  2.2835 -0.7775
  878TIP3   OH224124   2.853   2.051  12.200 -0.3177  0.1189 -0.1125
  878TIP3    H124125   2.853   2.077  12.108  0.5174  0.3187 -0.0587
  878TIP3    H224126   2.909   2.115  12.244  0.2212 -0.6357  0.3383
  879TIP3   OH224127   2.782   2.032   1.395 -0.1043 -0.1660  0.4621
  879TIP3    H124128   2.804   2.017   1.303 -1.3661  1.3489 -0.1371
  879TIP3    H224129   2.686   2.022   1.397 -0.4055  2.2707  1.0521
  880TIP3   OH224130   0.258   5.593   0.510 -0.3292  0.1205 -0.3884
  880TIP3    H124131   0.260   5.681   0.472 -0.4361 -0.6066 -2.1791
  880TIP3    H224132   0.346   5.581   0.547  0.5218  0.1222 -2.2944
  881TIP3   OH224133   5.004   1.887  14.406  0.1302 -0.4326 -0.4347
  881TIP3    H124134   5.090   1.847  14.417  0.1584 -0.1927  0.2985
  881TIP3    H224135   5.021   1.970  14.361  0.4409  0.1622  0.7189
  882TIP3   OH224136   3.452   1.107  13.701  0.3249  0.6946 -0.3985
  882TIP3    H124137   3.533   1.068  13.670  0.2255 -0.0540  0.2274
  882TIP3    H224138   3.383   1.049  13.668  0.1211  0.7383 -0.0651
  883TIP3   OH224139   2.972   2.728  17.084  0.2748 -0.1424 -0.3893
  883TIP3    H124140   2.958   2.638  17.053  0.5954 -0.4456  0.3249
  883TIP3    H224141   2.945   2.726  17.176  2.9669 -0.2572  0.4905
  884TIP3   OH224142   3.078   1.743   5.447  0.2870 -0.4230  0.1180
  884TIP3    H124143   3.105   1.769   5.535  0.5712  0.6323 -0.2673
  884TIP3    H224144   3.145   1.681   5.418  1.3490  0.8254 -0.1474
  885TIP3   OH224145   5.367   2.730   3.600  0.2541  0.2204 -0.6396
  885TIP3    H124146   5.333   2.818   3.582  0.4212  0.5176  0.4205
  885TIP3    H224147   5.462   2.739   3.591  0.3719  0.4631  0.6541
  886TIP3   OH224148   6.101   5.275  15.343 -0.5390  0.1554  0.4423
  886TIP3    H124149   6.089   5.184  15.371 -0.0270  0.0012  0.1701
  886TIP3    H224150   6.183   5.302  15.385 -0.8394  0.5862  0.7591
  887TIP3   OH224151   3.944   3.814  12.639  0.4049 -0.2657  0.4376
  887TIP3    H124152   4.023   3.776  12.678  1.5774  0.3582 -1.2216
  887TIP3    H224153   3.977   3.882  12.580 -1.4320  0.5700  0.3145
  888TIP3   OH224154   5.915   3.304  14.573  0.2731 -0.0879 -0.1045
  888TIP3    H124155   5.980   3.318  14.642  0.3245  1.3481 -0.4258
  888TIP3    H224156   5.866   3.386  14.569 -2.1717 -1.4104  0.7021
  889TIP3   OH224157   2.345   0.676   3.333  0.3448  0.0518  0.1089
  889TIP3    H124158   2.430   0.634   3.341  0.8275  0.7442 -1.0811
  889TIP3    H224159   2.319   0.660   3.242 -0.5335  0.3489  0.2932
  890TIP3   OH224160   5.893   6.448   4.747  0.1367  0.2396  0.0353
  890TIP3    H124161   5.950   6.504   4.694  0.8725 -0.0741  0.4840
  890TIP3    H224162   5.818   6.430   4.691  1.2570 -0.7286 -1.2025
  891TIP3   OH224163   6.669   3.484   2.229  0.3174 -0.8705 -0.0831
  891TIP3    H124164   6.746   3.475   2.285 -1.2078 -2.9211  1.8645
  891TIP3    H224165   6.597   3.505   2.290 -0.7439  0.9118 -1.8144
  892TIP3   OH224166   0.203   5.132  15.811 -0.2335 -0.5439 -0.1303
  892TIP3    H124167   0.246   5.174  15.885  0.1577  1.3449 -1.3399
  892TIP3    H224168   0.272   5.121  15.746 -0.5584 -2.1823 -0.2447
  893TIP3   OH224169   5.704   4.192   2.047  0.3192  0.0097  0.4555
  893TIP3    H124170   5.789   4.216   2.010  0.9029  3.0278  3.3326
  893TIP3    H224171   5.640   4.240   1.994  0.7247  0.3782  0.2951
  894TIP3   OH224172   6.510   3.207  13.719 -0.4301 -0.4881 -0.2397
  894TIP3    H124173   6.535   3.115  13.724 -1.0557 -0.6069  1.4056
  894TIP3    H224174   6.446   3.211  13.648 -0.3776 -1.3225 -0.3362
  895TIP3   OH224175   6.135   6.339  14.846 -0.2745 -0.5003  0.1820
  895TIP3    H124176   6.128   6.302  14.934 -0.9249 -0.9134 -0.0372
  895TIP3    H224177   6.045   6.345  14.815  0.0475 -2.9221 -1.5030
  896TIP3   OH224178   6.384   2.962  12.576 -0.0332 -0.2703  0.3323
  896TIP3    H124179   6.315   2.896  12.571  0.6949 -1.1299  1.1902
  896TIP3    H224180   6.415   2.970  12.486 -0.2286 -1.0005  0.1937
  897TIP3   OH224181   3.825   6.227   2.846 -0.5278 -0.5640 -0.6088
  897TIP3    H124182   3.742   6.240   2.800 -1.9839 -0.1379  1.9485
  897TIP3    H224183   3.800   6.184   2.928  1.8084 -0.4612  0.2280
  898TIP3   OH224184   4.030   5.193  12.762 -0.2524  0.4096  0.5549
  898TIP3    H124185   4.063   5.129  12.699  0.9986  0.4374  1.1468
  898TIP3    H224186   4.013   5.142  12.841 -0.1060  0.6656  0.7520
  899TIP3   OH224187   1.319   1.418   3.778  0.2133  0.1874 -0.4818
  899TIP3    H124188   1.288   1.364   3.706 -0.0516  0.3157 -0.4661
  899TIP3    H224189   1.298   1.368   3.857 -0.3565  0.4688 -0.4497
  900TIP3   OH224190   0.697   0.972  16.502 -0.1426  0.4690 -0.0622
  900TIP3    H124191   0.619   0.976  16.448 -0.4933 -1.1267  0.2791
  900TIP3    H224192   0.745   1.053  16.481 -1.5941  1.2093 -0.6683
  901TIP3   OH224193   2.840   5.847  13.543 -0.0548 -0.1860 -0.2206
  901TIP3    H124194   2.935   5.851  13.558 -0.1692 -0.0704  0.4933
  901TIP3    H224195   2.812   5.939  13.548 -0.0661 -0.1034 -1.4256
  902TIP3   OH224196   6.192   4.191   5.440  0.1703  0.0132 -0.8146
  902TIP3    H124197   6.256   4.120   5.439 -0.5433 -0.6371 -1.1101
  902TIP3    H224198   6.232   4.258   5.496 -0.3785 -1.7730  1.8625
  903TIP3   OH224199   4.719   2.777   1.015 -0.2149  0.3315 -0.0540
  903TIP3    H124200   4.668   2.782   1.095  0.3072 -0.4517  0.3498
  903TIP3    H224201   4.737   2.683   1.004  1.5049  0.6140  0.0765
  904TIP3   OH224202   2.949   5.103  16.199 -0.3428  0.2005 -0.5471
  904TIP3    H124203   2.924   5.018  16.235 -0.9075  0.9326  0.8499
  904TIP3    H224204   2.888   5.165  16.238 -0.5387  1.1535 -2.2572
  905TIP3   OH224205   5.186   2.095   3.482 -0.0839  0.5199 -0.3004
  905TIP3    H124206   5.122   2.066   3.417  0.0499 -1.1903  0.2778
  905TIP3    H224207   5.261   2.037   3.468  0.1929  0.5637  0.9451
  906TIP3   OH224208   4.880   6.552   5.586 -0.2149  0.2517 -0.6835
  906TIP3    H124209   4.804   6.601   5.555 -0.2667  1.0839  0.6632
  906TIP3    H224210   4.878   6.564   5.681  0.4513 -1.4102 -0.4362
  907TIP3   OH224211   4.165   4.625   0.060 -0.1516 -0.6919 -0.4554
  907TIP3    H124212   4.169   4.675   0.142  0.7620  2.0467 -2.0320
  907TIP3    H224213   4.075   4.635   0.031 -0.0024  0.0275 -0.7071
  908TIP3   OH224214   2.026   1.510  11.807  0.1681 -0.0210  0.5565
  908TIP3    H124215   2.003   1.520  11.900 -0.2299 -1.1289  0.5832
  908TIP3    H224216   2.043   1.600  11.778  2.1573  0.1923  2.1500
  909TIP3   OH224217   6.111   0.848   5.028  0.3282 -0.2195  0.2707
  909TIP3    H124218   6.169   0.923   5.025 -0.5699  0.4728 -0.2069
  909TIP3    H224219   6.035   0.878   5.078 -0.8781 -0.1657 -1.4847
  910TIP3   OH224220   2.108   2.789   4.502  0.1220 -0.2228  0.1919
  910TIP3    H124221   2.027   2.763   4.546 -0.6199  2.4064  0.5182
  910TIP3    H224222   2.109   2.884   4.506  2.8041 -0.1209 -0.6303
  911TIP3   OH224223   1.891   5.478  12.318 -0.6501 -0.3584  0.3121
  911TIP3    H124224   1.911   5.550  12.258 -3.3176 -0.4608 -0.8234
  911TIP3    H224225   1.796   5.480  12.327 -0.7834 -3.5256  0.5158
  912TIP3   OH224226   5.695   5.440   1.757  0.7238  0.3840 -0.3366
  912TIP3    H124227   5.619   5.483   1.716  0.5178 -0.8212 -1.2776
  912TIP3    H224228   5.666   5.350   1.772  1.3812  0.3749  0.9686
  913TIP3   OH224229   2.270   6.237  12.176  0.8829 -0.5084 -0.3029
  913TIP3    H124230   2.343   6.200  12.128 -0.5797 -1.7566 -1.6742
  913TIP3    H224231   2.194   6.226  12.118 -0.9607 -1.9471  2.1768
  914TIP3   OH224232   1.705   4.629   3.598 -0.4008 -0.6374  0.2584
  914TIP3    H124233   1.780   4.663   3.647  0.0857 -0.9947 -0.2250
  914TIP3    H224234   1.724   4.650   3.507 -1.0881 -0.3692  0.1754
  915TIP3   OH224235   2.938   3.748  16.601 -0.3422 -0.0789 -0.4275
  915TIP3    H124236   3.008   3.778  16.659 -2.0512  0.0404  1.6910
  915TIP3    H224237   2.946   3.805  16.524  0.1789  1.8358  0.9619
  916TIP3   OH224238   4.927   3.937   3.787 -0.3561  0.3634 -0.0302
  916TIP3    H124239   4.903   3.851   3.822 -0.7085  0.6094  0.3410
  916TIP3    H224240   4.846   3.971   3.751 -0.0307  0.1838 -0.9483
  917TIP3   OH224241   1.193   0.758   4.853  0.4031 -0.1992  0.1181
  917TIP3    H124242   1.134   0.805   4.795  0.5779 -0.4161 -0.2388
  917TIP3    H224243   1.279   0.795   4.835  0.9171 -2.0801 -1.7363
  918TIP3   OH224244   0.429   4.903   3.609 -0.6803  0.2524 -0.2531
  918TIP3    H124245   0.410   4.817   3.573  0.2563  0.6970 -1.9147
  918TIP3    H224246   0.356   4.958   3.581 -0.6248  0.2942 -0.3165
  919TIP3   OH224247   0.096   6.618  12.270 -0.0121  0.1280 -0.0432
  919TIP3    H124248   0.093   6.688  12.205  1.1881  0.4504  0.2259
  919TIP3    H224249   0.118   6.539  12.220 -1.3162 -0.0627 -0.3390
  920TIP3   OH224250   5.682   0.520   1.973  0.2071 -0.1694  0.4136
  920TIP3    H124251   5.775   0.499   1.962  0.1723  0.5468 -1.7484
  920TIP3    H224252   5.639   0.435   1.982  1.1565 -0.4734  2.8120
  921TIP3   OH224253   5.582   0.531   5.684 -0.1802 -0.2447 -0.1224
  921TIP3    H124254   5.599   0.579   5.765 -2.6279  0.7894 -0.1288
  921TIP3    H224255   5.593   0.596   5.614 -0.5919 -0.4515 -0.3869
  922TIP3   OH224256   2.479   0.392   4.968 -0.2226  0.0073 -0.4470
  922TIP3    H124257   2.548   0.409   5.032  0.4792 -0.1918 -1.1309
  922TIP3    H224258   2.459   0.478   4.931 -0.7586  0.1485  0.1647
  923TIP3   OH224259   5.528   0.616  11.590 -0.3815  1.0297  0.1432
  923TIP3    H124260   5.517   0.682  11.522  0.3737  0.3263 -0.6737
  923TIP3    H224261   5.464   0.548  11.569  0.6075  0.2816 -0.5320
  924TIP3   OH224262   3.461   2.569   2.125 -0.3408 -0.1554 -0.1869
  924TIP3    H124263   3.417   2.485   2.114 -1.8771  0.5001  0.6224
  924TIP3    H224264   3.540   2.548   2.176 -1.9820 -0.8436  2.2506
  925TIP3   OH224265   2.889   0.550   5.177  0.1168  0.0628 -0.4139
  925TIP3    H124266   2.954   0.514   5.238 -0.6181 -1.8364 -0.6909
  925TIP3    H224267   2.927   0.535   5.090 -0.6748 -1.0734 -0.5788
  926TIP3   OH224268   2.618   0.227   0.904  0.0911  0.0044  0.8800
  926TIP3    H124269   2.558   0.161   0.869  1.7395 -1.8005  1.2792
  926TIP3    H224270   2.567   0.308   0.905 -1.8635 -1.1438 -0.0897
  927TIP3   OH224271   4.212   1.383  11.086 -0.7571 -0.2459  0.1694
  927TIP3    H124272   4.209   1.382  10.990  1.0352 -1.2607  0.0886
  927TIP3    H224273   4.280   1.447  11.107  0.1255 -1.3308  0.6859
  928TIP3   OH224274   3.133   1.026   1.244 -0.3392 -0.5781  0.1818
  928TIP3    H124275   3.197   1.084   1.202 -0.3444 -0.5191  0.2553
  928TIP3    H224276   3.150   0.940   1.206 -1.1452 -0.3028 -0.8759
  929TIP3   OH224277   2.827   5.653   1.330 -0.3019  0.0927  0.6540
  929TIP3    H124278   2.903   5.680   1.382 -0.8078  1.0223  0.9339
  929TIP3    H224279   2.765   5.620   1.395 -0.5250  0.2730  0.5331
  930TIP3   OH224280   0.826   3.539   1.678 -0.6511 -0.3597  0.1510
  930TIP3    H124281   0.762   3.582   1.735 -1.1219  3.5196 -2.8750
  930TIP3    H224282   0.778   3.521   1.597  1.5515  1.2089 -1.6424
  931TIP3   OH224283   0.672   1.785  16.801 -0.3516 -0.3111 -0.3164
  931TIP3    H124284   0.633   1.705  16.836  0.1476 -0.4801 -0.1337
  931TIP3    H224285   0.705   1.832  16.878 -0.4283 -0.0433 -0.4423
  932TIP3   OH224286   1.818   5.215  15.128 -0.0858  0.0458 -0.3466
  932TIP3    H124287   1.876   5.154  15.173 -1.2875 -0.4120  0.6452
  932TIP3    H224288   1.736   5.166  15.116 -0.2780  0.6419 -1.7708
  933TIP3   OH224289   4.996   6.086   4.189 -0.3666  0.5231 -0.0638
  933TIP3    H124290   5.052   6.023   4.143 -0.1596  1.0097 -0.4895
  933TIP3    H224291   5.027   6.084   4.280 -2.3148 -2.2036  0.6810
  934TIP3   OH224292   0.945   4.874  15.860 -0.7374  0.1121 -0.1831
  934TIP3    H124293   1.035   4.892  15.889 -0.4791 -1.7609  0.2813
  934TIP3    H224294   0.892   4.938  15.907  0.0668 -0.6021  1.7961
  935TIP3   OH224295   1.731   3.860  12.245 -0.4327 -0.0271  0.8159
  935TIP3    H124296   1.666   3.872  12.314  1.0991 -0.3117  2.3708
  935TIP3    H224297   1.776   3.944  12.240 -1.0838  0.2685 -0.4744
  936TIP3   OH224298   5.286   6.240  10.890  0.2481 -0.1906  0.7639
  936TIP3    H124299   5.370   6.246  10.936 -0.0403 -1.2166  1.4387
  936TIP3    H224300   5.255   6.331  10.884  0.6682  0.0356  1.8699
  937TIP3   OH224301   3.515   3.718  15.667  0.2430  0.5400  0.3377
  937TIP3    H124302   3.563   3.664  15.604 -0.5800 -0.3805  0.4631
  937TIP3    H224303   3.583   3.756  15.723  0.9184  0.6014 -0.5107
  938TIP3   OH224304   5.467   2.902  14.200 -0.7004 -0.0534 -0.0032
  938TIP3    H124305   5.545   2.875  14.152 -1.0469  1.3466 -1.4466
  938TIP3    H224306   5.411   2.942  14.134 -2.1397  0.0502  1.2176
  939TIP3   OH224307   2.103   3.286  16.005  0.2384 -0.0664 -0.0067
  939TIP3    H124308   2.178   3.329  16.047  0.4774 -1.1020  0.6701
  939TIP3    H224309   2.057   3.243  16.076 -0.2506 -0.5376 -0.5963
  940TIP3   OH224310   1.868   1.806  17.013 -0.4183 -0.0618  0.2147
  940TIP3    H124311   1.854   1.811  16.918  1.5170 -1.7317 -0.2210
  940TIP3    H224312   1.789   1.764  17.046 -0.7671 -0.2201 -0.7746
  941TIP3   OH224313   0.390   6.034  16.955  0.4238 -0.4787 -0.2290
  941TIP3    H124314   0.357   6.118  16.923 -0.9325  0.0980  2.4152
  941TIP3    H224315   0.427   5.991  16.877 -2.9844  0.5690 -2.6358
  942TIP3   OH224316   4.284   1.362  15.811 -0.5667 -0.1431 -0.1390
  942TIP3    H124317   4.330   1.279  15.826  1.6253  1.0548  0.2000
  942TIP3    H224318   4.298   1.381  15.718  0.3213  0.5786  0.1228
  943TIP3   OH224319   4.145   5.012  14.225 -0.5121  0.3339 -0.0932
  943TIP3    H124320   4.061   4.969  14.240 -1.0882  1.4677  0.0128
  943TIP3    H224321   4.192   5.000  14.308 -0.2700 -0.9119 -0.3873
  944TIP3   OH224322   3.649   0.918   5.085  0.0613  0.2317 -0.1887
  944TIP3    H124323   3.587   0.976   5.040  1.8536  2.6923  0.3292
  944TIP3    H224324   3.727   0.920   5.031  0.3811 -1.2762  0.1792
  945TIP3   OH224325   0.489   4.644   1.711  0.3286 -0.5377  0.0296
  945TIP3    H124326   0.411   4.608   1.670 -0.4025  1.3015 -0.2760
  945TIP3    H224327   0.458   4.718   1.763  1.8771  0.4694 -0.3933
  946TIP3   OH224328   6.152   0.064   1.099 -0.1314 -0.0202 -0.2026
  946TIP3    H124329   6.231   0.083   1.149 -0.0944 -1.0208  0.1516
  946TIP3    H224330   6.173   0.088   1.009 -0.7216  3.2934  0.4287
  947TIP3   OH224331   5.942   2.107  11.371 -0.1670  0.4238  0.3906
  947TIP3    H124332   5.886   2.056  11.430 -1.3889  0.0523 -1.0406
  947TIP3    H224333   5.903   2.194  11.372 -0.6018  0.2461 -0.3574
  948TIP3   OH224334   4.684   0.755   1.166 -0.0653  0.5748  0.0990
  948TIP3    H124335   4.675   0.678   1.222 -0.1536  0.2717 -0.3290
  948TIP3    H224336   4.763   0.799   1.198  0.7383 -0.4006 -0.4813
  949TIP3   OH224337   3.260   0.181   2.089  0.2356  0.0050 -0.4633
  949TIP3    H124338   3.345   0.170   2.048  0.0846  0.0172 -0.7805
  949TIP3    H224339   3.197   0.147   2.025 -0.1495  1.6511 -0.9862
  950TIP3   OH224340   5.372   6.414   1.677  0.7264  0.0501 -0.0882
  950TIP3    H124341   5.345   6.369   1.597  1.8712 -1.9125  0.5646
  950TIP3    H224342   5.303   6.394   1.740  0.2283  0.9224 -0.3476
  951TIP3   OH224343   5.131   0.785   6.219  0.2677  0.0348  0.5611
  951TIP3    H124344   5.060   0.722   6.205  0.5561 -0.2338  0.2918
  951TIP3    H224345   5.194   0.766   6.149 -0.4973  1.8522 -0.7032
  952TIP3   OH224346   3.604   1.897  12.204  0.7781 -0.0047  0.2917
  952TIP3    H124347   3.601   1.864  12.114  1.7768 -1.0985  0.6470
  952TIP3    H224348   3.689   1.941  12.210 -0.5839  3.0026 -0.2456
  953TIP3   OH224349   5.728   4.323   5.749 -0.0662 -0.0883  0.0009
  953TIP3    H124350   5.717   4.381   5.825 -0.2642 -2.2758  1.7181
  953TIP3    H224351   5.657   4.260   5.755  1.8143 -2.3728 -0.0538
  954TIP3   OH224352   0.640   0.920  12.601  0.1789 -0.3000 -0.2666
  954TIP3    H124353   0.669   0.854  12.664 -0.6227  0.2718  0.7417
  954TIP3    H224354   0.721   0.953  12.562  0.7219 -0.4353  0.7091
  955TIP3   OH224355   4.544   6.358  12.905 -0.4164  0.4040 -0.1143
  955TIP3    H124356   4.613   6.331  12.965 -2.1162 -0.5797  1.5157
  955TIP3    H224357   4.478   6.289  12.911 -0.8425  0.4328 -2.9023
  956TIP3   OH224358   4.698   4.368   4.603 -0.2464  0.4261  0.0704
  956TIP3    H124359   4.714   4.348   4.511  1.6701 -1.2696  0.6847
  956TIP3    H224360   4.774   4.332   4.649 -1.6721  0.1601  2.4274
  957TIP3   OH224361   4.621   0.145  13.808  0.3495 -0.3863  0.4341
  957TIP3    H124362   4.570   0.134  13.728  2.9530  0.1095 -1.4553
  957TIP3    H224363   4.624   0.058  13.847 -1.4141 -0.5215  0.3288
  958TIP3   OH224364   0.095   2.220  16.556  0.1154 -0.2704 -0.2833
  958TIP3    H124365   0.076   2.127  16.567 -5.0950  0.4053 -0.6707
  958TIP3    H224366   0.103   2.232  16.461  1.2901 -0.3672 -0.2019
  959TIP3   OH224367   0.321   3.597  11.509 -0.3083 -0.2376  0.1007
  959TIP3    H124368   0.260   3.578  11.437 -0.6673  1.0469  0.0363
  959TIP3    H224369   0.406   3.567  11.477 -0.7134 -1.0311 -0.2571
  960TIP3   OH224370   0.229   2.073   4.758 -0.2659 -0.2153  0.0579
  960TIP3    H124371   0.261   2.034   4.677  1.5622 -1.2908  1.2213
  960TIP3    H224372   0.278   2.028   4.827 -0.8137  1.5612  1.6884
  961TIP3   OH224373   4.640   3.105   2.016  0.1099  0.1791  0.4913
  961TIP3    H124374   4.687   3.134   1.938 -1.0361 -0.7779 -0.5799
  961TIP3    H224375   4.564   3.161   2.022 -0.0416 -0.0406  0.6720
  962TIP3   OH224376   4.843   1.778  16.825  0.0569  0.0649 -0.2653
  962TIP3    H124377   4.777   1.790  16.756 -0.6296  2.6085  0.6959
  962TIP3    H224378   4.927   1.784  16.780 -0.3858  0.0986 -1.0986
  963TIP3   OH224379   2.828   0.645   2.441  0.2278 -0.0975  0.2097
  963TIP3    H124380   2.802   0.562   2.480  1.3469 -0.9396 -0.7865
  963TIP3    H224381   2.805   0.637   2.348  0.2361  0.7544  0.1263
  964TIP3   OH224382   6.453   6.151  11.501  0.3349  0.5126 -0.2243
  964TIP3    H124383   6.504   6.192  11.571 -0.4371  2.2484 -0.6070
  964TIP3    H224384   6.515   6.139  11.430  0.6642  0.6743  0.0308
  965TIP3   OH224385   3.983   6.209   1.044 -0.5214 -0.5246  0.3001
  965TIP3    H124386   3.892   6.230   1.022  0.0686  2.1362 -0.0006
  965TIP3    H224387   3.995   6.244   1.132  0.3421 -0.2745  0.0973
  966TIP3   OH224388   0.453   1.603  10.505  0.3017 -0.1319  0.1807
  966TIP3    H124389   0.448   1.584  10.411 -0.9689 -0.6465  0.3364
  966TIP3    H224390   0.495   1.525  10.542 -0.5893 -0.6177  0.2116
  967TIP3   OH224391   4.355   3.200  11.971 -0.2332 -0.3339 -0.3168
  967TIP3    H124392   4.342   3.128  11.909  0.1047 -1.4796  0.9002
  967TIP3    H224393   4.286   3.188  12.037  1.0984 -0.8501  1.0495
  968TIP3   OH224394   1.464   2.193  15.492 -0.0345  0.8463 -0.8454
  968TIP3    H124395   1.398   2.127  15.471  1.9152 -1.5578  0.0505
  968TIP3    H224396   1.465   2.251  15.416 -1.3096 -0.6270 -2.0659
  969TIP3   OH224397   2.035   0.104  14.411 -0.6788 -0.7275 -0.1626
  969TIP3    H124398   1.966   0.104  14.345 -1.3912 -0.6961  0.5766
  969TIP3    H224399   2.014   0.030  14.468 -0.5489 -0.2486  0.5212
  970TIP3   OH224400   0.648   2.613   3.565  0.2646  0.1320 -0.0529
  970TIP3    H124401   0.592   2.540   3.592  0.4182  0.5292  1.4356
  970TIP3    H224402   0.730   2.571   3.536  0.2288 -0.3081  0.4608
  971TIP3   OH224403   4.651   6.539  12.641  0.0715  0.0114  0.1535
  971TIP3    H124404   4.616   6.628  12.635 -1.1073 -0.5205 -1.8778
  971TIP3    H224405   4.635   6.512  12.731 -1.1624  1.2329  0.3342
  972TIP3   OH224406   4.297   3.134  11.234  0.0651  0.0405 -0.2175
  972TIP3    H124407   4.340   3.081  11.168  1.2956 -0.9152  1.2796
  972TIP3    H224408   4.328   3.223  11.218  0.4544 -0.2006 -0.8289
  973TIP3   OH224409   5.994   1.655   4.730  0.5328  0.6245  0.5079
  973TIP3    H124410   6.065   1.605   4.689  0.1841  0.8773 -0.4310
  973TIP3    H224411   5.948   1.592   4.785  0.9247  0.2378  0.3983
  974TIP3   OH224412   6.469   3.914   6.631 -0.1173  0.2067 -0.1878
  974TIP3    H124413   6.415   3.975   6.682  1.3807 -0.3099  2.2046
  974TIP3    H224414   6.491   3.845   6.693  0.5577 -1.3066 -2.0327
  975TIP3   OH224415   1.462   1.597  10.808  0.5519 -0.0057 -0.3026
  975TIP3    H124416   1.367   1.613  10.810  0.6067  0.4552 -0.8805
  975TIP3    H224417   1.477   1.555  10.723  0.9372  0.4386 -0.4574
  976TIP3   OH224418   4.273   5.410  11.270 -0.3625  0.5494 -0.1805
  976TIP3    H124419   4.223   5.329  11.268 -1.2948  1.1104 -0.4895
  976TIP3    H224420   4.350   5.390  11.323 -0.5015 -0.5694 -0.3822
  977TIP3   OH224421   1.281   6.786   6.710 -0.4565  0.3398 -0.4033
  977TIP3    H124422   1.315   6.697   6.705  1.4472  1.0550 -1.4829
  977TIP3    H224423   1.305   6.816   6.798 -0.0724  0.1615 -0.4455
  978TIP3   OH224424   0.783   4.680   6.093  0.4109 -0.1753  0.0646
  978TIP3    H124425   0.854   4.615   6.088  1.5763  1.0089  0.6760
  978TIP3    H224426   0.814   4.744   6.156 -1.6597 -0.1202  1.1045
  979TIP3   OH224427   5.114   0.014  14.450 -0.1591 -0.2965  0.0964
  979TIP3    H124428   5.027   0.019  14.410 -0.3741  1.8263  0.7102
  979TIP3    H224429   5.161  -0.051  14.398 -1.9223 -1.0920 -0.5819
  980TIP3   OH224430   2.226   1.688  13.606 -0.2557 -0.1808 -0.0029
  980TIP3    H124431   2.197   1.643  13.685 -0.2245  0.5422  0.4368
  980TIP3    H224432   2.319   1.704  13.620  0.3750 -2.3350 -1.3293
  981TIP3   OH224433   0.831   3.824   1.547  0.2535  0.4327  0.6353
  981TIP3    H124434   0.799   3.893   1.606 -1.1303 -0.9040  1.5304
  981TIP3    H224435   0.754   3.799   1.497  1.6612  2.4769 -2.8814
  982TIP3   OH224436   1.461   1.300  17.064  0.1103 -0.1236 -0.0823
  982TIP3    H124437   1.438   1.214  17.097 -0.3835  0.5679  1.4595
  982TIP3    H224438   1.391   1.322  17.002 -0.7646 -0.0972  0.8849
  983TIP3   OH224439   2.686   5.534   3.481  0.2958  0.2466 -0.7218
  983TIP3    H124440   2.617   5.590   3.445  0.6210  1.4126  0.3959
  983TIP3    H224441   2.645   5.490   3.555  0.4892  0.2147 -0.6334
  984TIP3   OH224442   1.356   0.826   5.139 -0.1014  0.3431 -0.5142
  984TIP3    H124443   1.362   0.889   5.211  1.8158 -2.8267  2.4664
  984TIP3    H224444   1.447   0.817   5.108 -0.7226  0.7827 -2.5924
  985TIP3   OH224445   5.477   6.077  16.607 -0.3904 -1.3021  0.6282
  985TIP3    H124446   5.553   6.024  16.633 -1.2964 -1.9185  2.1963
  985TIP3    H224447   5.480   6.080  16.512  1.9798 -0.7194  0.6611
  986TIP3   OH224448   6.529   6.162   3.432 -0.2750 -0.1683  0.4719
  986TIP3    H124449   6.537   6.253   3.403  1.0076  0.1355  1.6879
  986TIP3    H224450   6.515   6.113   3.351  0.7660  0.9238 -0.4058
  987TIP3   OH224451   3.151   2.683  12.253  0.1465 -0.5794  0.1645
  987TIP3    H124452   3.107   2.761  12.219 -0.4074 -0.9225  0.0817
  987TIP3    H224453   3.179   2.708  12.341  0.6426 -0.0422 -0.1377
  988TIP3   OH224454   4.382   0.530  13.523  0.3211 -0.4143  0.5062
  988TIP3    H124455   4.467   0.523  13.480  0.3343 -0.7842  0.5867
  988TIP3    H224456   4.322   0.481  13.467  0.3425 -0.9154  0.9118
  989TIP3   OH224457   5.335   4.139   2.332 -0.2511  0.5778  0.1384
  989TIP3    H124458   5.389   4.166   2.259  1.9337  0.1064  1.4946
  989TIP3    H224459   5.303   4.052   2.308  0.8562  0.2114 -0.0725
  990TIP3   OH224460   5.113   1.749  10.546 -0.3725 -0.1372  0.2769
  990TIP3    H124461   5.019   1.739  10.558 -0.0918 -0.5073  2.6415
  990TIP3    H224462   5.138   1.815  10.611  1.1524 -0.9440  0.5569
  991TIP3   OH224463   0.835   3.943   6.367 -0.0695  0.2244  0.0717
  991TIP3    H124464   0.826   3.874   6.431  0.9887  1.2714  1.4051
  991TIP3    H224465   0.792   4.019   6.407 -0.3671  0.6149 -0.9450
  992TIP3   OH224466   5.250   5.048   2.763 -0.4279  0.5553 -0.2866
  992TIP3    H124467   5.276   5.072   2.852 -1.9273  0.9120  0.0858
  992TIP3    H224468   5.242   5.132   2.718 -0.3619  0.4201 -0.5458
  993TIP3   OH224469   4.856   4.116  16.206  0.5170 -0.0133 -0.4622
  993TIP3    H124470   4.766   4.121  16.173 -0.2295  1.3204  1.5466
  993TIP3    H224471   4.892   4.203  16.190 -0.0337  0.8608  2.4126
  994TIP3   OH224472   6.586   0.224  14.233  0.0830  0.1113  0.1277
  994TIP3    H124473   6.580   0.181  14.319 -1.6533 -0.2186 -0.1385
  994TIP3    H224474   6.532   0.170  14.175  0.1743  1.0707 -0.8790
  995TIP3   OH224475   5.445   0.790   0.638 -0.4154  0.0282  0.3793
  995TIP3    H124476   5.436   0.870   0.587 -1.0763 -0.4317 -0.2556
  995TIP3    H224477   5.394   0.804   0.717 -0.3130  0.3291  0.3912
  996TIP3   OH224478   0.762   1.315  16.981 -0.0777 -0.0344 -0.2103
  996TIP3    H124479   0.786   1.258  17.054 -0.5117  0.7972  0.5977
  996TIP3    H224480   0.793   1.402  17.006 -0.9492  0.4199 -0.6377
  997TIP3   OH224481   6.380   0.822  14.587  0.3895  0.7963  0.4658
  997TIP3    H124482   6.295   0.778  14.590  1.0498 -0.5066  0.4665
  997TIP3    H224483   6.390   0.861  14.674 -0.2435  1.0542  0.4292
  998TIP3   OH224484   4.564   3.770   5.039  0.1232  0.6750 -0.1276
  998TIP3    H124485   4.494   3.774   5.104  0.7506  3.0240  0.5118
  998TIP3    H224486   4.522   3.799   4.958 -0.6122 -2.0754 -0.8529
  999TIP3   OH224487   0.381   5.132   5.682  0.7046 -0.0405 -0.1748
  999TIP3    H124488   0.475   5.116   5.690  1.0167  0.2143 -2.5475
  999TIP3    H224489   0.374   5.202   5.617 -1.1468 -0.5479 -0.5864
 1000TIP3   OH224490   3.916   4.521  13.256 -0.7367 -0.0129 -0.1744
 1000TIP3    H124491   4.000   4.480  13.233 -2.0001 -1.4670 -2.6862
 1000TIP3    H224492   3.865   4.449  13.293 -0.9095  0.8746  1.3603
 1001TIP3   OH224493   0.461   1.658  12.434 -0.1292  0.4131 -0.8326
 1001TIP3    H124494   0.457   1.750  12.408 -0.7449  1.0483  1.3097
 1001TIP3    H224495   0.555   1.639  12.439  0.0232  1.2080 -0.4527
 1002TIP3   OH224496   2.966   5.584   3.728 -0.3666  0.2073 -0.4235
 1002TIP3    H124497   3.041   5.634   3.696  0.7259 -0.8679  0.3647
 1002TIP3    H224498   2.896   5.601   3.665  0.3202  1.7943 -0.7814
 1003TIP3   OH224499   6.288   2.885   3.608  0.5481 -0.7781  0.0076
 1003TIP3    H124500   6.296   2.926   3.522 -0.1658  2.1804  1.2417
 1003TIP3    H224501   6.204   2.917   3.642  0.1455 -2.9915  1.2983
 1004TIP3   OH224502   4.295   2.695  12.506 -0.5365  0.1539  0.1607
 1004TIP3    H124503   4.249   2.742  12.436 -1.4036 -1.4108 -0.3570
 1004TIP3    H224504   4.384   2.686  12.474 -1.1115 -1.2858 -1.1973
 1005TIP3   OH224505   2.185   0.004  15.447 -0.3308 -0.2333 -0.1299
 1005TIP3    H124506   2.194   0.074  15.382  1.7854 -0.2285  0.1120
 1005TIP3    H224507   2.216  -0.074  15.403 -1.0327 -0.6928  0.1710
 1006TIP3   OH224508   3.542   3.474   4.836  0.2524 -0.2459 -0.1415
 1006TIP3    H124509   3.503   3.562   4.830  2.2592  0.6993  0.0100
 1006TIP3    H224510   3.501   3.425   4.764 -0.8897  0.7974 -0.2434
 1007TIP3   OH224511   0.897   1.657  14.164  0.1691 -0.0939  0.2577
 1007TIP3    H124512   0.824   1.674  14.105 -2.3994 -1.1113  2.8692
 1007TIP3    H224513   0.917   1.743  14.201  0.5570  0.2533 -0.7373
 1008TIP3   OH224514   2.886   4.708  11.605 -0.0256 -0.0774  0.1996
 1008TIP3    H124515   2.876   4.714  11.510 -1.6247  2.0938  0.4425
 1008TIP3    H224516   2.801   4.735  11.640  1.5706  2.8040  2.2900
 1009TIP3   OH224517   2.257   5.640  12.722 -0.6849  0.7514  0.2387
 1009TIP3    H124518   2.262   5.664  12.815 -0.6245 -0.9876  0.7132
 1009TIP3    H224519   2.163   5.634  12.704 -0.6956  0.1497  0.4629
 1010TIP3   OH224520   2.145   3.487  12.645  0.4588 -0.3639  0.5796
 1010TIP3    H124521   2.236   3.514  12.647  0.4726 -0.4247  0.7346
 1010TIP3    H224522   2.144   3.400  12.685  0.4278 -0.6294  0.0210
 1011TIP3   OH224523   1.515   0.210   0.740 -0.4767 -0.1258  0.7832
 1011TIP3    H124524   1.514   0.120   0.707  0.7993  0.6677 -1.6207
 1011TIP3    H224525   1.559   0.204   0.825 -0.8207 -1.7931  0.8899
 1012TIP3   OH224526   5.080   2.696   6.630 -0.8678 -0.0518 -0.0992
 1012TIP3    H124527   5.079   2.605   6.659  1.7648 -1.3212 -3.3312
 1012TIP3    H224528   5.031   2.695   6.548 -3.0853  2.1287  1.0663
 1013TIP3   OH224529   4.006   5.926   6.068 -0.2293  0.3267 -0.6737
 1013TIP3    H124530   3.985   5.835   6.090  2.0991  0.2383  1.6583
 1013TIP3    H224531   4.086   5.944   6.116 -1.0682  3.9133 -0.3875
 1014TIP3   OH224532   0.631   5.387  13.306 -0.1037  0.0740 -0.0679
 1014TIP3    H124533   0.542   5.401  13.339 -0.2670 -0.6390 -0.1922
 1014TIP3    H224534   0.620   5.335  13.227  0.3702  0.7337 -0.5714
 1015TIP3   OH224535   3.177   6.694  11.367 -0.3545  0.0678  0.0028
 1015TIP3    H124536   3.253   6.731  11.412 -0.6939  1.9979 -0.9081
 1015TIP3    H224537   3.174   6.741  11.284  0.2424 -3.3049 -2.1307
 1016TIP3   OH224538   0.310   1.100   4.650  0.1446  0.0963  0.1685
 1016TIP3    H124539   0.240   1.040   4.626 -0.6458  1.0923 -0.0891
 1016TIP3    H224540   0.304   1.108   4.745  0.3486 -0.3485  0.2177
 1017TIP3   OH224541   0.701   2.098  16.745 -0.3900 -0.0703  0.5751
 1017TIP3    H124542   0.607   2.115  16.730 -0.2001 -0.8298 -1.9604
 1017TIP3    H224543   0.712   2.006  16.723  0.9405 -0.0331  1.0311
 1018TIP3   OH224544   4.568   2.910  12.606 -0.0825 -0.4973 -0.0483
 1018TIP3    H124545   4.633   2.909  12.536  0.2912 -0.3582  0.2943
 1018TIP3    H224546   4.553   2.818  12.626  1.0557 -0.5188  0.8264
 1019TIP3   OH224547   5.549   4.470   3.806 -0.8875  0.3007 -0.1949
 1019TIP3    H124548   5.625   4.463   3.748 -0.2518 -0.6455  0.7109
 1019TIP3    H224549   5.488   4.527   3.759 -0.7073 -0.9787 -2.0898
 1020TIP3   OH224550   4.460   3.993  16.903  0.0128  0.1038  0.4333
 1020TIP3    H124551   4.447   4.044  16.824  0.9256 -0.2176  0.0646
 1020TIP3    H224552   4.549   3.958  16.895 -0.0559 -0.3184  1.3734
 1021TIP3   OH224553   1.234   4.355   6.018 -0.4302  0.1854  0.1810
 1021TIP3    H124554   1.325   4.383   6.025 -0.4042 -0.0110  0.6248
 1021TIP3    H224555   1.238   4.260   6.018 -0.8152  0.0692  3.1538
 1022TIP3   OH224556   5.043   4.504  15.082 -0.2185  0.0920 -0.2215
 1022TIP3    H124557   5.007   4.506  14.993 -0.2760  2.4338 -0.2119
 1022TIP3    H224558   5.136   4.520  15.071 -0.1188 -0.2410  0.1092
 1023TIP3   OH224559   0.286   2.492  15.083 -0.4042  0.2747 -0.7608
 1023TIP3    H124560   0.226   2.541  15.140 -1.3650 -0.2945 -1.2481
 1023TIP3    H224561   0.361   2.471  15.138 -0.5271  1.2460 -0.2086
 1024TIP3   OH224562   5.951   6.553  10.831  0.1025 -0.3496 -0.3726
 1024TIP3    H124563   5.874   6.517  10.875  0.8396 -1.8947 -0.2518
 1024TIP3    H224564   5.916   6.608  10.762 -1.1055 -0.5347  0.0657
 1025TIP3   OH224565   5.703   0.419   5.273  0.0716  0.3726 -0.3751
 1025TIP3    H124566   5.676   0.496   5.323  0.0885 -1.1194  2.0807
 1025TIP3    H224567   5.799   0.419   5.280  0.0173 -0.4063  0.5489
 1026TIP3   OH224568   4.115   4.249  11.354 -0.4647  0.8100  0.4185
 1026TIP3    H124569   4.034   4.299  11.341 -0.9750 -0.3811 -1.3154
 1026TIP3    H224570   4.184   4.316  11.355 -1.2595  1.6691 -0.3562
 1027TIP3   OH224571   5.525   1.468   0.981 -0.4695 -0.6267 -0.3919
 1027TIP3    H124572   5.516   1.380   1.019 -0.0769  0.0079  1.2358
 1027TIP3    H224573   5.599   1.507   1.027 -0.2205  0.3324 -1.5685
 1028TIP3   OH224574   5.467   3.759  13.385 -0.3290  0.2096  0.7965
 1028TIP3    H124575   5.458   3.808  13.467  0.4615 -0.7025  1.4521
 1028TIP3    H224576   5.559   3.773  13.359 -1.3558  3.3926 -1.8692
 1029TIP3   OH224577   6.552   2.639   2.961 -0.2920  0.6320  0.3331
 1029TIP3    H124578   6.474   2.628   2.906  1.0242  0.6894 -1.6404
 1029TIP3    H224579   6.592   2.552   2.962  0.2012  0.8588  0.3950
 1030TIP3   OH224580   4.830   3.531  15.247  0.2060 -0.2586  0.0122
 1030TIP3    H124581   4.786   3.457  15.204 -0.0840  0.3913 -0.8410
 1030TIP3    H224582   4.852   3.590  15.175 -0.6173  1.0322  0.7760
 1031TIP3   OH224583   3.105   2.310   4.357 -0.1775 -0.2773  0.8067
 1031TIP3    H124584   3.089   2.339   4.267 -2.1474 -1.3304  0.7661
 1031TIP3    H224585   3.024   2.330   4.404 -0.5706 -3.0002  1.4594
 1032TIP3   OH224586   2.918   3.133   4.401  0.0927 -0.3841  0.0946
 1032TIP3    H124587   2.895   3.053   4.354  2.0445 -1.4935  0.8837
 1032TIP3    H224588   2.840   3.155   4.451 -0.5991 -1.5934 -0.4165
 1033TIP3   OH224589   3.895   1.294  12.927 -0.0708  0.1050  0.5809
 1033TIP3    H124590   3.840   1.305  12.850 -0.2726  0.6769  0.8069
 1033TIP3    H224591   3.913   1.383  12.958 -0.2454 -0.1235  1.3743
 1034TIP3   OH224592   4.745   1.309  15.442 -0.7060 -0.4440  0.0624
 1034TIP3    H124593   4.834   1.302  15.407  0.0950 -3.0799  2.3275
 1034TIP3    H224594   4.717   1.398  15.417  2.2204  0.1992 -1.3924
 1035TIP3   OH224595   0.842   5.463  15.461  0.2193 -0.4786 -0.2757
 1035TIP3    H124596   0.755   5.449  15.497  0.2141  0.9922  0.3277
 1035TIP3    H224597   0.832   5.451  15.367 -0.6521 -0.1824 -0.2239
 1036TIP3   OH224598   4.886   5.792   5.683 -0.8669 -0.1884 -0.2318
 1036TIP3    H124599   4.888   5.885   5.703  0.5667 -0.4982  1.2842
 1036TIP3    H224600   4.928   5.785   5.597 -0.2212  0.4970  0.0172
 1037TIP3   OH224601   2.233   0.782   6.655 -0.1146  0.0984  0.0797
 1037TIP3    H124602   2.171   0.809   6.723  0.3322  0.6054  0.2985
 1037TIP3    H224603   2.308   0.841   6.667 -0.4976  0.9849 -1.5788
 1038TIP3   OH224604   4.374   0.823   2.606 -0.7495  0.2323 -0.1067
 1038TIP3    H124605   4.396   0.733   2.628  0.6563 -0.0735 -2.3977
 1038TIP3    H224606   4.311   0.814   2.533 -2.3257  1.1421  1.0838
 1039TIP3   OH224607   5.007   2.159  12.192  0.3504 -0.2114 -0.3624
 1039TIP3    H124608   4.989   2.233  12.250  0.4894  0.3854 -1.0577
 1039TIP3    H224609   5.053   2.198  12.118  0.8326 -1.0741 -0.5286
 1040TIP3   OH224610   5.136   6.548   4.876  0.0844  0.3366 -0.1690
 1040TIP3    H124611   5.170   6.588   4.957  2.0227 -1.4974  0.0051
 1040TIP3    H224612   5.189   6.469   4.864 -2.0002 -0.9157 -1.7738
 1041TIP3   OH224613   1.612   5.010   3.647 -0.3487 -0.3401  0.5038
 1041TIP3    H124614   1.634   5.047   3.562 -1.0499 -2.5516 -0.7267
 1041TIP3    H224615   1.530   5.053   3.672 -1.0687 -0.8988 -0.8002
 1042TIP3   OH224616   2.681   4.039   1.890  0.0544 -0.1092 -0.3639
 1042TIP3    H124617   2.623   4.096   1.941  0.3092 -0.8083  0.7443
 1042TIP3    H224618   2.626   3.966   1.863 -0.0873  0.2749 -1.1388
 1043TIP3   OH224619   6.040   5.739  17.177 -0.8032  0.1098 -0.0767
 1043TIP3    H124620   6.130   5.758  17.153 -1.3087  2.4170 -0.4035
 1043TIP3    H224621   6.046   5.669  17.242  1.0531 -1.1537 -1.5165
 1044TIP3   OH224622   4.504   6.378   1.949  0.5132  0.4256  0.2780
 1044TIP3    H124623   4.501   6.396   2.043 -0.5925  2.3189 -0.0716
 1044TIP3    H224624   4.576   6.431   1.916 -0.8424  1.9607 -0.3187
 1045TIP3   OH224625   5.132   4.035  14.267 -0.2354 -0.9299 -0.6651
 1045TIP3    H124626   5.211   4.007  14.314 -0.5993  0.4553  0.8654
 1045TIP3    H224627   5.068   4.052  14.336 -0.3126  2.7746 -1.4530
 1046TIP3   OH224628   2.522   6.273  14.690  0.3898  0.2004 -0.5616
 1046TIP3    H124629   2.505   6.187  14.652  2.5625 -1.0352  1.0619
 1046TIP3    H224630   2.438   6.300  14.726 -0.5337 -0.8163 -1.8559
 1047TIP3   OH224631   0.590   2.924  11.131 -0.1812 -0.1390  0.4041
 1047TIP3    H124632   0.630   2.839  11.116  0.1811  0.0632  0.2019
 1047TIP3    H224633   0.585   2.964  11.044 -0.4642 -0.0071  0.4806
 1048TIP3   OH224634   5.242   3.794   0.186 -0.0993 -0.1596  0.0792
 1048TIP3    H124635   5.229   3.879   0.227 -0.8003  0.4100 -1.2624
 1048TIP3    H224636   5.220   3.808   0.094  0.7947 -1.5429 -0.3734
 1049TIP3   OH224637   2.051   6.755  13.579  0.4974 -0.0702  0.3048
 1049TIP3    H124638   1.982   6.793  13.632  0.7209  0.6221  0.1149
 1049TIP3    H224639   2.040   6.661  13.588 -1.1723 -0.0033 -0.6303
 1050TIP3   OH224640   0.340   4.493   0.127  0.1878  0.0090  0.8254
 1050TIP3    H124641   0.395   4.566   0.153 -1.3399  1.5665 -0.1091
 1050TIP3    H224642   0.305   4.517   0.041 -0.6345 -1.6570  0.6378
 1051TIP3   OH224643   0.913   2.090  12.508  0.1934  0.1099  0.0378
 1051TIP3    H124644   0.835   2.130  12.471  0.9458  0.9254 -0.7091
 1051TIP3    H224645   0.887   1.999  12.527 -0.8186  0.2693 -0.5204
 1052TIP3   OH224646   2.044   0.685  12.950  0.4433  0.5041 -0.1156
 1052TIP3    H124647   1.956   0.719  12.969  0.1015  0.3045 -1.2445
 1052TIP3    H224648   2.052   0.608  13.007 -0.9287 -0.6481 -1.3827
 1053TIP3   OH224649   5.888   4.402   4.899  0.0220 -0.0828 -0.3393
 1053TIP3    H124650   5.812   4.448   4.864 -0.0144 -0.3299 -0.5854
 1053TIP3    H224651   5.889   4.425   4.992  0.1036  0.5538 -0.4935
 1054TIP3   OH224652   0.477   3.169   1.938 -0.4468 -0.1767 -0.1250
 1054TIP3    H124653   0.481   3.118   2.019  2.4683 -1.6860 -1.0780
 1054TIP3    H224654   0.494   3.105   1.869  0.4820  1.6309 -1.6471
 1055TIP3   OH224655   0.190   6.183   3.705  0.7285  0.0054 -0.2560
 1055TIP3    H124656   0.240   6.126   3.764  0.2587 -1.0954 -0.8727
 1055TIP3    H224657   0.255   6.221   3.646  0.8437 -1.8043 -1.3763
 1056TIP3   OH224658   3.934   1.821  14.977 -0.2266 -0.0727  0.4205
 1056TIP3    H124659   3.921   1.914  14.958 -2.1369 -0.3598  0.1194
 1056TIP3    H224660   3.995   1.791  14.909  1.5187  1.2099  1.3456
 1057TIP3   OH224661   0.398   2.271   2.185  0.0473  0.2046 -0.2293
 1057TIP3    H124662   0.339   2.335   2.146  1.2823  1.7382  0.2903
 1057TIP3    H224663   0.475   2.322   2.211  1.2614 -1.5631 -0.1328
 1058TIP3   OH224664   1.774   4.276  11.820  0.1642  0.4156  0.4716
 1058TIP3    H124665   1.748   4.230  11.900  1.9610 -0.0720  0.8299
 1058TIP3    H224666   1.702   4.337  11.802 -1.8978 -1.8495  0.5028
 1059TIP3   OH224667   2.547   1.513   4.620  0.0384 -0.3403 -0.5884
 1059TIP3    H124668   2.511   1.597   4.589 -2.9608 -0.3911  2.2821
 1059TIP3    H224669   2.641   1.521   4.605 -0.4889  2.0640 -3.6306
 1060TIP3   OH224670   6.527   3.723   5.186  0.1167  0.4373  0.6816
 1060TIP3    H124671   6.524   3.725   5.282 -1.3388 -1.0546  0.7240
 1060TIP3    H224672   6.435   3.727   5.160  0.5359  1.5227 -0.6973
 1061TIP3   OH224673   3.330   0.049   5.529 -0.9269  0.2491 -0.2904
 1061TIP3    H124674   3.302   0.126   5.479 -1.5345 -0.1788 -0.6143
 1061TIP3    H224675   3.415   0.026   5.493 -1.7560 -0.6068 -1.7766
 1062TIP3   OH224676   4.206   4.071   1.027 -0.5257 -0.0247  0.1743
 1062TIP3    H124677   4.220   4.051   1.119  0.9362  0.8960  0.1680
 1062TIP3    H224678   4.199   4.166   1.023  1.0062  0.0768 -0.8430
 1063TIP3   OH224679   6.781   5.823  12.554  0.0818 -0.2198  0.2166
 1063TIP3    H124680   6.859   5.776  12.524  0.5691 -1.3964  3.0681
 1063TIP3    H224681   6.709   5.781  12.507  0.8393 -1.6409  0.2598
 1064TIP3   OH224682   6.087   5.262   5.237 -0.4955  0.4892  0.1993
 1064TIP3    H124683   6.120   5.233   5.322 -0.2129  1.6598  0.4973
 1064TIP3    H224684   6.033   5.188   5.206  1.4985 -1.0486  0.1762
 1065TIP3   OH224685   5.831   3.905  11.900 -0.6702 -0.5023  0.1621
 1065TIP3    H124686   5.920   3.939  11.911  0.1379 -2.5691  0.4002
 1065TIP3    H224687   5.841   3.810  11.897 -2.9110 -0.8165  0.4722
 1066TIP3   OH224688   1.740   3.766   1.746  0.2069 -0.0616 -0.9372
 1066TIP3    H124689   1.752   3.672   1.730 -0.6023 -0.5231  0.8676
 1066TIP3    H224690   1.730   3.772   1.841  1.6798  2.0362 -0.8453
 1067TIP3   OH224691   5.693   6.681   0.246 -0.6687 -0.2447 -0.1150
 1067TIP3    H124692   5.673   6.766   0.285 -3.3984 -0.4927 -0.7726
 1067TIP3    H224693   5.661   6.617   0.309 -1.3309 -0.7001 -0.8869
 1068TIP3   OH224694   6.780   5.582   4.763 -0.2196  0.5748 -0.2729
 1068TIP3    H124695   6.847   5.624   4.710 -0.9808  2.4164  0.1313
 1068TIP3    H224696   6.812   5.590   4.853  0.0131 -0.4932 -0.2533
 1069TIP3   OH224697   1.771   5.046   2.066  0.2482 -0.1568  0.6090
 1069TIP3    H124698   1.784   5.098   1.987 -0.3123  0.1398  0.7081
 1069TIP3    H224699   1.810   5.099   2.136  1.1700 -0.6314  0.4748
 1070TIP3   OH224700   4.140   3.861   2.237  0.6158 -0.4169  0.0326
 1070TIP3    H124701   4.187   3.890   2.159  0.6471  1.5472  0.7268
 1070TIP3    H224702   4.123   3.767   2.222  1.1485 -0.2239 -2.0317
 1071TIP3   OH224703   5.446   3.894  14.069  0.3820 -0.1509  0.4209
 1071TIP3    H124704   5.499   3.969  14.093  1.6788 -1.2024  0.9518
 1071TIP3    H224705   5.508   3.821  14.065 -0.0960 -0.5830 -3.6934
 1072TIP3   OH224706   0.983   0.284  14.357  0.1292 -0.2581 -0.1075
 1072TIP3    H124707   0.891   0.257  14.365 -0.3796  1.4466  0.1927
 1072TIP3    H224708   1.019   0.271  14.444 -0.1256  0.0627  0.0497
 1073TIP3   OH224709   3.408   1.201  11.199 -0.0074  0.5914  0.0162
 1073TIP3    H124710   3.335   1.172  11.254  0.1847 -0.4318 -0.2415
 1073TIP3    H224711   3.367   1.255  11.132 -0.7736 -1.1831 -1.0129
 1074TIP3   OH224712   3.903   0.122   0.287  0.5153  0.6139 -0.4777
 1074TIP3    H124713   3.899   0.170   0.205  0.7416 -0.7207 -1.2947
 1074TIP3    H224714   3.852   0.043   0.271 -0.8766  1.0910  1.2196
 1075TIP3   OH224715   1.668   5.402  16.972 -0.2520  0.3227 -0.0262
 1075TIP3    H124716   1.688   5.312  16.998 -0.5627  0.6317  1.3508
 1075TIP3    H224717   1.682   5.403  16.877  0.3118 -1.0215  0.0208
 1076TIP3   OH224718   1.800   4.778  16.277  0.4205  0.3814  0.0390
 1076TIP3    H124719   1.857   4.726  16.221  0.7673 -0.0066  0.7356
 1076TIP3    H224720   1.712   4.765  16.240  0.6040 -0.1180 -0.2336
 1077TIP3   OH224721   4.109   0.298   3.583  0.0908  0.3870 -0.0719
 1077TIP3    H124722   4.047   0.303   3.511 -0.8780 -0.9800  0.6116
 1077TIP3    H224723   4.194   0.287   3.542 -0.3193  0.7161 -1.0185
 1078TIP3   OH224724   6.344   2.057   4.771 -0.7508 -0.0145  0.2496
 1078TIP3    H124725   6.280   1.993   4.802 -0.0476 -2.2894 -2.5152
 1078TIP3    H224726   6.305   2.092   4.691  0.6596 -0.1136 -0.5078
 1079TIP3   OH224727   4.486   1.988   3.512 -0.2418 -0.2544  0.0568
 1079TIP3    H124728   4.447   1.985   3.600  0.1197 -0.7586  0.1993
 1079TIP3    H224729   4.551   2.058   3.518 -0.4819 -0.0273  0.0763
 1080TIP3   OH224730   2.934   2.391   3.823  0.2001 -0.5088 -0.1401
 1080TIP3    H124731   2.848   2.391   3.780  0.9266 -2.2374 -1.7656
 1080TIP3    H224732   2.931   2.315   3.881 -0.0768  0.6874  1.4806
 1081TIP3   OH224733   3.193   5.032  14.674  0.5961  0.0098 -0.0652
 1081TIP3    H124734   3.222   5.051  14.585  0.4730 -1.5943 -0.4799
 1081TIP3    H224735   3.234   5.101  14.728  2.7738 -0.4400 -1.0189
 1082TIP3   OH224736   3.465   3.264   3.948 -0.1057 -0.1546 -0.2738
 1082TIP3    H124737   3.504   3.213   4.020 -2.5827 -1.5281  0.2016
 1082TIP3    H224738   3.405   3.324   3.990 -0.7722 -0.2001 -1.1335
 1083TIP3   OH224739   3.416   0.553   1.265 -0.0146 -0.2414 -0.2023
 1083TIP3    H124740   3.468   0.486   1.221 -2.2590 -3.2794  1.4170
 1083TIP3    H224741   3.326   0.538   1.235 -0.7387  1.4057  0.9708
 1084TIP3   OH224742   1.513   5.128  14.482 -0.0175 -0.0239  0.1133
 1084TIP3    H124743   1.463   5.093  14.556 -0.4469 -0.3827 -0.3357
 1084TIP3    H224744   1.602   5.096  14.496 -0.1272 -0.2066  0.4068
 1085TIP3   OH224745   2.372   2.624  16.800  0.0224 -0.2410 -0.6073
 1085TIP3    H124746   2.349   2.673  16.721 -0.0606  1.5665  0.4815
 1085TIP3    H224747   2.303   2.558  16.808 -1.1438  0.8832 -0.9563
 1086TIP3   OH224748   0.131   3.239  11.234  0.0457  0.5099  0.3748
 1086TIP3    H124749   0.197   3.176  11.263  0.6176  1.0496  0.2693
 1086TIP3    H224750   0.168   3.324  11.257  0.2538  0.9318 -1.4030
 1087TIP3   OH224751   4.971   5.343   5.646  0.0768 -0.1039  0.3777
 1087TIP3    H124752   4.930   5.272   5.597  0.4666 -0.1382  0.0936
 1087TIP3    H224753   4.907   5.413   5.644  0.1971  0.0053 -0.4562
 1088TIP3   OH224754   0.132   3.733  13.813 -0.2936 -0.0817  0.3134
 1088TIP3    H124755   0.068   3.752  13.882  1.4412  3.6075  1.1330
 1088TIP3    H224756   0.148   3.817  13.770  3.1140 -1.0179 -0.5902
 1089TIP3   OH224757   3.147   6.728   4.015 -0.3425 -0.2906 -0.0185
 1089TIP3    H124758   3.110   6.666   3.952 -0.0692  0.3820 -0.8496
 1089TIP3    H224759   3.148   6.812   3.970 -0.6208  0.3195  1.0695
 1090TIP3   OH224760   4.166   3.065   2.085  0.5294  0.2473  0.2559
 1090TIP3    H124761   4.111   3.128   2.131 -2.9441 -1.9209 -0.6016
 1090TIP3    H224762   4.197   3.005   2.154  1.6385  1.2706  0.6876
 1091TIP3   OH224763   1.681   5.100  11.726 -0.7795 -0.0504 -0.2015
 1091TIP3    H124764   1.642   5.013  11.717 -2.6972  0.6157  1.1039
 1091TIP3    H224765   1.734   5.110  11.647 -2.5701 -1.3817 -1.6585
 1092TIP3   OH224766   5.342   6.618   4.192  0.2570  0.5477  0.3467
 1092TIP3    H124767   5.251   6.601   4.215  0.2117  0.5557  0.1806
 1092TIP3    H224768   5.347   6.597   4.098  0.8987 -1.4153  0.7669
 1093TIP3   OH224769   2.322   5.227  14.905  0.3604  0.1731 -0.2555
 1093TIP3    H124770   2.348   5.279  14.829 -0.5433  0.5056 -0.3602
 1093TIP3    H224771   2.263   5.285  14.954  1.9591  0.4560  1.4254
 1094TIP3   OH224772   0.816   5.925   1.278 -0.1934 -0.0270  0.2350
 1094TIP3    H124773   0.723   5.943   1.297 -0.1754 -0.7325  1.0767
 1094TIP3    H224774   0.863   5.961   1.353  0.2820  0.8984 -0.4924
 1095TIP3   OH224775   3.008   2.528   5.550 -0.4628  0.2784 -0.2380
 1095TIP3    H124776   3.089   2.502   5.595  0.3484 -0.4594 -2.0447
 1095TIP3    H224777   2.939   2.482   5.599  0.4042 -0.6719  0.1469
 1096TIP3   OH224778   4.239   1.717  15.103  0.5117 -0.8025  0.1546
 1096TIP3    H124779   4.167   1.676  15.151  1.1361 -0.9503  0.9876
 1096TIP3    H224780   4.252   1.661  15.027 -1.0482 -0.0996 -0.6909
 1097TIP3   OH224781   6.287   0.292  14.846  0.7441  0.7697  0.0810
 1097TIP3    H124782   6.275   0.386  14.831  0.3091  0.6771 -0.1734
 1097TIP3    H224783   6.358   0.287  14.910  0.4988  1.2840  0.4032
 1098TIP3   OH224784   3.494   1.666   4.238  0.2622 -0.5723  0.7504
 1098TIP3    H124785   3.545   1.585   4.236  1.7944  0.3517 -0.4542
 1098TIP3    H224786   3.545   1.727   4.184 -0.4883  1.3918  2.1565
 1099TIP3   OH224787   2.064   2.902  13.062  0.0344 -0.0635  0.5054
 1099TIP3    H124788   2.009   2.979  13.078 -0.5417 -0.5677  0.9839
 1099TIP3    H224789   2.098   2.916  12.973 -0.1439  0.6882  0.5448
 1100TIP3   OH224790   2.289   1.660   2.374 -0.0896  0.0662  0.6451
 1100TIP3    H124791   2.300   1.619   2.460  0.9306 -1.0534  0.0152
 1100TIP3    H224792   2.209   1.711   2.382  0.3449  0.5412  2.4704
 1101TIP3   OH224793   0.649   4.824  17.253 -0.4550 -0.0112  0.4260
 1101TIP3    H124794   0.725   4.845  17.200 -0.9558 -0.5843 -0.5483
 1101TIP3    H224795   0.586   4.894  17.234 -1.0955 -0.8514 -0.7255
 1102TIP3   OH224796   3.954   1.483   2.614  0.6216  0.3359 -0.1669
 1102TIP3    H124797   3.894   1.410   2.628  1.0601 -0.5892 -2.6082
 1102TIP3    H224798   4.024   1.470   2.678  0.2194 -0.8647  0.0446
 1103TIP3   OH224799   1.722   1.487  15.727 -0.2501 -0.6903 -0.1930
 1103TIP3    H124800   1.751   1.527  15.644 -1.2333  0.3921 -0.0520
 1103TIP3    H224801   1.682   1.560  15.775 -0.6815 -1.5456  0.7677
 1104TIP3   OH224802   2.231   3.528   2.028  0.1372 -0.3860  0.3753
 1104TIP3    H124803   2.260   3.616   2.004  0.1743 -0.5934 -0.3893
 1104TIP3    H224804   2.161   3.541   2.092 -0.7709  0.2491 -0.7105
 1105TIP3   OH224805   0.153   6.438   5.484 -0.0847  0.1161  0.0894
 1105TIP3    H124806   0.214   6.461   5.414  0.4834  1.3964  0.9701
 1105TIP3    H224807   0.106   6.361   5.451  0.8368  0.1172 -1.2865
 1106TIP3   OH224808   1.055   1.588   5.749  0.1420  0.2840 -0.2334
 1106TIP3    H124809   1.044   1.493   5.756  1.1075  0.2882  1.9885
 1106TIP3    H224810   0.980   1.624   5.797  0.1900  0.6343 -0.4223
 1107TIP3   OH224811   6.167   6.748  10.721 -0.5677 -0.3731 -0.3747
 1107TIP3    H124812   6.130   6.771  10.636 -0.7221 -0.9541 -0.4681
 1107TIP3    H224813   6.135   6.660  10.738  2.1411 -1.6373 -1.2636
 1108TIP3   OH224814   3.530   3.595   1.143 -0.1129 -0.1407 -0.5030
 1108TIP3    H124815   3.498   3.537   1.212  0.4977 -0.3974 -0.4312
 1108TIP3    H224816   3.623   3.574   1.135  0.3188  1.3895  0.0816
 1109TIP3   OH224817   6.319   3.614   0.386  0.2152  0.0832  0.8392
 1109TIP3    H124818   6.385   3.598   0.454 -0.5300 -3.8186  0.8465
 1109TIP3    H224819   6.245   3.559   0.411 -0.9428  0.2284 -1.9646
 1110TIP3   OH224820   6.281   5.394   3.060  0.0093 -0.3469 -0.3853
 1110TIP3    H124821   6.232   5.477   3.065  4.3099  2.5242 -0.1753
 1110TIP3    H224822   6.304   5.375   3.150 -0.4256 -1.5183 -0.5051
 1111TIP3   OH224823   2.192   3.237  11.197  0.3405  0.1165  0.4383
 1111TIP3    H124824   2.123   3.200  11.142  2.0401 -0.6503 -1.2694
 1111TIP3    H224825   2.157   3.322  11.225 -0.1761  1.1324 -2.8410
 1112TIP3   OH224826   6.712   0.324   3.664  0.2046  0.0709  0.1658
 1112TIP3    H124827   6.743   0.243   3.623  0.0883 -0.6739  1.5098
 1112TIP3    H224828   6.782   0.387   3.648  0.1817 -0.1950 -1.1226
 1113TIP3   OH224829   5.844   2.507   2.663 -0.3364 -0.1596 -0.0252
 1113TIP3    H124830   5.828   2.495   2.569 -0.5998  1.1649 -0.1676
 1113TIP3    H224831   5.895   2.588   2.669  1.4997 -1.3325  0.8397
 1114TIP3   OH224832   2.645   2.447   2.764 -0.1422 -0.2304 -0.7972
 1114TIP3    H124833   2.643   2.411   2.853 -0.3226  0.0745 -0.6752
 1114TIP3    H224834   2.554   2.446   2.736 -0.2647  0.9093 -0.4719
 1115TIP3   OH224835   2.709   5.079   3.093  0.3487  0.3147  0.0214
 1115TIP3    H124836   2.793   5.088   3.048 -0.4517  0.7796 -1.4280
 1115TIP3    H224837   2.655   5.025   3.035 -0.5664  0.5253  0.6416
 1116TIP3   OH224838   2.784   5.562  15.203 -0.5333 -1.0509 -0.4218
 1116TIP3    H124839   2.848   5.563  15.274 -0.0686  0.0329 -0.8429
 1116TIP3    H224840   2.822   5.616  15.134 -2.0071 -0.1489 -0.5782
 1117TIP3   OH224841   5.612   0.308  17.151  0.7815 -0.2386 -0.1462
 1117TIP3    H124842   5.623   0.218  17.120  0.8229 -0.2514 -0.0959
 1117TIP3    H224843   5.664   0.361  17.091  1.0519 -0.2896  0.0409
 1118TIP3   OH224844   4.330   1.083  14.287 -0.0201 -0.2069 -0.0094
 1118TIP3    H124845   4.244   1.089  14.330 -0.1048  0.3334 -0.2427
 1118TIP3    H224846   4.353   0.990  14.292  0.2215 -0.0872  1.6774
 1119TIP3   OH224847   5.412   0.524  17.174 -0.2161 -0.4176  0.8429
 1119TIP3    H124848   5.431   0.592  17.109  0.0273 -1.6779 -0.4553
 1119TIP3    H224849   5.477   0.456  17.157 -1.2329 -1.5252  1.2824
 1120TIP3   OH224850   1.683   6.586  14.101  0.2970  0.4579  0.5496
 1120TIP3    H124851   1.661   6.553  14.013 -0.0830  2.2327 -0.0590
 1120TIP3    H224852   1.730   6.514  14.142  1.1131 -0.1687 -1.3711
 1121TIP3   OH224853   4.356   6.812   1.539 -0.1832 -0.5105 -0.3364
 1121TIP3    H124854   4.449   6.832   1.524  0.0707 -0.2811  1.4233
 1121TIP3    H224855   4.333   6.755   1.465  1.0811  0.1986 -1.3427
 1122TIP3   OH224856   6.800   4.207   3.413 -0.0308  0.0404 -0.2241
 1122TIP3    H124857   6.820   4.125   3.459 -0.7991  0.8119  1.5939
 1122TIP3    H224858   6.707   4.199   3.390  0.3492 -0.3422 -1.7322
 1123TIP3   OH224859   0.977   2.819   5.891  0.2415  0.2671  0.5498
 1123TIP3    H124860   1.004   2.788   5.805 -0.2746 -0.0706  0.5079
 1123TIP3    H224861   0.941   2.742   5.935 -1.2712  0.8260  0.3510
 1124TIP3   OH224862   6.183   3.623  11.719  0.7230 -0.5880 -0.3066
 1124TIP3    H124863   6.166   3.583  11.804  1.0890 -1.8412 -0.7913
 1124TIP3    H224864   6.166   3.716  11.732  2.3178 -0.5009  1.5582
 1125TIP3   OH224865   0.361   6.490   5.337 -0.0835 -0.0621 -0.4430
 1125TIP3    H124866   0.402   6.406   5.315  0.4785  0.2328 -0.5371
 1125TIP3    H224867   0.396   6.551   5.273 -0.8192  0.1638 -0.6398
 1126TIP3   OH224868   2.119   6.033  12.328  0.0191  0.0450 -0.0594
 1126TIP3    H124869   2.168   6.115  12.322 -2.0069  1.4244  0.9966
 1126TIP3    H224870   2.050   6.042  12.262 -0.3311 -0.7288  0.1977
 1127TIP3   OH224871   3.071   5.006  16.515 -0.1676  0.3422 -0.1904
 1127TIP3    H124872   3.024   4.932  16.554  0.8414  0.0355  0.4622
 1127TIP3    H224873   3.007   5.046  16.456 -0.7709 -0.9590 -0.4463
 1128TIP3   OH224874   1.529   1.184  15.383  0.1269  0.3242  0.2839
 1128TIP3    H124875   1.508   1.104  15.430 -0.6616  1.2173  1.5110
 1128TIP3    H224876   1.608   1.218  15.426  1.4116 -0.5632 -1.2510
 1129TIP3   OH224877   4.028   5.229   3.547  0.1101 -0.2694 -0.2636
 1129TIP3    H124878   3.987   5.207   3.631  0.5413  0.8373  0.2462
 1129TIP3    H224879   3.963   5.204   3.481  0.0670 -1.8551  0.3416
 1130TIP3   OH224880   2.634   0.778   2.984  0.0581  0.6174 -0.2164
 1130TIP3    H124881   2.661   0.861   3.024 -0.8024  1.1110 -0.6168
 1130TIP3    H224882   2.715   0.742   2.946  0.4049  1.3800 -0.2228
 1131TIP3   OH224883   4.340   6.085  12.460  0.6583 -0.4774 -0.1617
 1131TIP3    H124884   4.357   6.178  12.444 -0.4836 -0.3495 -0.7216
 1131TIP3    H224885   4.262   6.084  12.515  0.9643 -1.0993  0.2721
 1132TIP3   OH224886   3.451   4.090  12.443  0.2121 -0.0789  0.3241
 1132TIP3    H124887   3.534   4.121  12.480  1.6231 -0.4599 -2.2353
 1132TIP3    H224888   3.454   3.995  12.453  0.9566 -0.2605 -1.2544
 1133TIP3   OH224889   6.123   5.196   6.093  0.3813 -0.3532 -0.3842
 1133TIP3    H124890   6.085   5.283   6.093 -1.0568 -0.9394  0.5354
 1133TIP3    H224891   6.056   5.140   6.054  0.3649 -1.3804  1.0187
 1134TIP3   OH224892   0.033   6.093  12.143  0.2768  0.2018  0.6632
 1134TIP3    H124893   0.038   6.071  12.236 -0.7719 -0.5446  0.5633
 1134TIP3    H224894   0.067   6.182  12.137 -0.5499  0.6206  1.9165
 1135TIP3   OH224895   5.769   4.870   0.812 -0.0208  0.0736 -0.1868
 1135TIP3    H124896   5.790   4.777   0.806 -1.3509 -0.2217 -0.5144
 1135TIP3    H224897   5.829   4.912   0.750 -0.8997 -0.8277 -1.7139
 1136TIP3   OH224898   6.541   4.053  14.775 -0.0793 -0.1136 -0.0003
 1136TIP3    H124899   6.496   4.097  14.703  1.4052  3.7573  1.2034
 1136TIP3    H224900   6.474   3.996  14.813 -2.4893  1.6788 -1.2488
 1137TIP3   OH224901   6.447   4.095  13.843 -0.2338  0.6814 -0.5122
 1137TIP3    H124902   6.436   4.131  13.931 -0.6713 -1.3613  0.3228
 1137TIP3    H224903   6.522   4.036  13.850  0.2198  1.0644 -1.7366
 1138TIP3   OH224904   2.434   1.452  11.536 -1.1540 -0.0177  0.3108
 1138TIP3    H124905   2.401   1.435  11.624 -1.0534 -2.9485 -0.1104
 1138TIP3    H224906   2.358   1.485  11.488 -0.8851  2.9832  1.7246
 1139TIP3   OH224907   2.914   2.928   0.102 -0.4001  0.3391 -0.1219
 1139TIP3    H124908   2.850   2.946   0.033 -1.6371  0.7292  1.0752
 1139TIP3    H224909   2.881   2.976   0.178  0.8260 -0.2270  0.7972
 1140TIP3   OH224910   1.612   1.962  12.474 -0.1296 -0.4460  0.7632
 1140TIP3    H124911   1.555   2.032  12.505 -1.3415 -0.6698 -0.8149
 1140TIP3    H224912   1.551   1.894  12.443  0.9126 -0.2234 -2.0253
 1141TIP3   OH224913   4.139   2.948   4.348  0.1477  0.1423 -0.3195
 1141TIP3    H124914   4.058   2.898   4.338 -0.9924  1.7470  0.3704
 1141TIP3    H224915   4.172   2.958   4.259 -2.3821  2.4663 -1.1241
 1142TIP3   OH224916   0.098   1.181   0.818  0.2556 -0.5287 -0.2677
 1142TIP3    H124917   0.067   1.106   0.767 -0.3527 -0.5316  0.0941
 1142TIP3    H224918   0.025   1.243   0.815  0.4965 -0.2295 -0.0055
 1143TIP3   OH224919   3.115   0.602   5.896  0.2870  0.1107 -0.5130
 1143TIP3    H124920   3.103   0.680   5.842  1.6207 -0.2642 -1.3883
 1143TIP3    H224921   3.087   0.530   5.841  1.2056 -0.2324 -0.5504
 1144TIP3   OH224922   1.359   0.470   0.414  0.0142 -0.2637  0.7732
 1144TIP3    H124923   1.303   0.416   0.471  0.0650  1.0541  2.1228
 1144TIP3    H224924   1.358   0.557   0.455  0.7938  0.4952 -0.7584
 1145TIP3   OH224925   2.331   4.730   0.277 -0.4442  0.0735  0.5383
 1145TIP3    H124926   2.276   4.674   0.221  0.4465  1.2407 -1.6423
 1145TIP3    H224927   2.413   4.681   0.286 -0.3537  0.1630  0.2348
 1146TIP3   OH224928   4.965   3.578   5.921  0.0109  0.0251 -0.3033
 1146TIP3    H124929   4.993   3.492   5.954 -1.8962 -0.1762  0.9611
 1146TIP3    H224930   4.897   3.558   5.857  0.6712  0.5801 -1.2074
 1147TIP3   OH224931   1.998   2.935  12.761  0.1415  0.5494 -0.3390
 1147TIP3    H124932   2.059   2.874  12.719 -0.8467  0.1842 -1.2925
 1147TIP3    H224933   1.916   2.886  12.766 -0.7686  1.9138 -1.4493
 1148TIP3   OH224934   1.974   3.805   3.331 -0.1008  0.0296  0.0647
 1148TIP3    H124935   2.043   3.740   3.317  0.6345  0.8945 -0.4790
 1148TIP3    H224936   2.021   3.884   3.360 -0.8192  0.7426 -0.6568
 1149TIP3   OH224937   2.106   2.577  11.845 -0.2724  0.0758 -0.0833
 1149TIP3    H124938   2.134   2.487  11.831  0.5646  0.2426  0.5131
 1149TIP3    H224939   2.185   2.629  11.836 -0.5559  0.6506  0.6501
 1150TIP3   OH224940   3.447   0.595  13.935 -0.4431 -0.2216 -0.3243
 1150TIP3    H124941   3.352   0.601  13.945 -0.3742 -0.4643  0.5240
 1150TIP3    H224942   3.468   0.664  13.872 -1.2816 -0.7718 -1.2616
 1151TIP3   OH224943   3.847   4.725  16.590 -0.2621  0.5194 -0.3566
 1151TIP3    H124944   3.867   4.671  16.514 -2.7656 -1.2071  0.1088
 1151TIP3    H224945   3.926   4.720  16.645  0.2379 -1.1533 -1.1735
 1152TIP3   OH224946   0.458   0.142   4.925 -0.2994  0.4332  0.2572
 1152TIP3    H124947   0.381   0.109   4.878 -0.4523  2.0793 -0.7108
 1152TIP3    H224948   0.424   0.166   5.012 -0.5361 -0.2998  0.3769
 1153TIP3   OH224949   0.907   2.687  16.638 -0.1180  0.5134  0.0216
 1153TIP3    H124950   0.989   2.735  16.648  1.3527 -1.6957 -0.5032
 1153TIP3    H224951   0.909   2.656  16.547 -0.2480 -1.6220  0.6790
 1154TIP3   OH224952   4.744   1.993   3.767  0.0752  0.5075  0.4202
 1154TIP3    H124953   4.763   2.087   3.766 -1.1879  0.7908 -0.8690
 1154TIP3    H224954   4.652   1.987   3.740  0.7230 -1.2014 -1.6619
 1155TIP3   OH224955   4.972   4.403  16.242 -0.2051 -0.8651 -0.0723
 1155TIP3    H124956   5.046   4.458  16.268 -2.5181  0.8086  3.9766
 1155TIP3    H224957   4.951   4.433  16.153  1.5832  1.4002  0.1547
 1156TIP3   OH224958   6.304   6.081  17.097 -0.0384 -0.3054  0.1725
 1156TIP3    H124959   6.299   6.097  17.191 -0.7572 -0.3334  0.1521
 1156TIP3    H224960   6.213   6.091  17.067  0.2839  0.3847 -0.6235
 1157TIP3   OH224961   5.104   6.630   5.141  0.1815 -0.1342  0.2672
 1157TIP3    H124962   5.105   6.535   5.136  0.6504 -0.1752  1.0307
 1157TIP3    H224963   5.196   6.655   5.150  0.0643  0.3933  0.0588
 1158TIP3   OH224964   6.077   6.105  12.374  1.0099  0.0047  0.2396
 1158TIP3    H124965   6.088   6.184  12.426  1.1248  0.3419 -0.2859
 1158TIP3    H224966   6.103   6.131  12.285  0.7282 -0.5293 -0.0051
 1159TIP3   OH224967   4.563   4.703  13.864 -0.1581  0.4406 -0.0730
 1159TIP3    H124968   4.474   4.668  13.856 -0.6656  1.8430 -0.9881
 1159TIP3    H224969   4.589   4.682  13.954 -0.9760 -0.9541 -0.1338
 1160TIP3   OH224970   6.366   2.159  12.445 -0.1429  0.8839  0.1359
 1160TIP3    H124971   6.312   2.107  12.385  1.4319  0.1178 -0.6715
 1160TIP3    H224972   6.309   2.174  12.521 -2.6292  2.8258 -1.9034
 1161TIP3   OH224973   5.357   3.525   0.162 -0.1824  0.2661  0.4210
 1161TIP3    H124974   5.308   3.448   0.133 -0.8633  0.3985  1.1888
 1161TIP3    H224975   5.293   3.596   0.159  0.2915  0.6914  0.2668
 1162TIP3   OH224976   3.652   1.854  14.904  0.3091 -0.3018  0.1446
 1162TIP3    H124977   3.628   1.908  14.979 -0.3003  0.8723 -0.8579
 1162TIP3    H224978   3.732   1.808  14.931  1.2873  1.6781  0.7604
 1163TIP3   OH224979   2.029   5.840  10.879 -0.4819  0.1557 -0.3630
 1163TIP3    H124980   1.944   5.858  10.840 -0.6710  1.4614  0.5980
 1163TIP3    H224981   2.092   5.883  10.820 -0.5598  0.0412 -0.5317
 1164TIP3   OH224982   0.205   1.307  16.908  0.1230  0.0170 -0.2011
 1164TIP3    H124983   0.229   1.224  16.950  2.2288 -0.1873 -1.6323
 1164TIP3    H224984   0.279   1.326  16.850 -0.4054  2.8046 -0.0774
 1165TIP3   OH224985   0.320   3.862   2.010  0.2394  0.3150  0.2912
 1165TIP3    H124986   0.335   3.949   1.973 -0.0321  0.7033  1.0771
 1165TIP3    H224987   0.391   3.850   2.073  0.0161  0.1579  0.5162
 1166TIP3   OH224988   4.725   0.564  15.323  0.0572 -0.4375 -0.1088
 1166TIP3    H124989   4.715   0.568  15.228 -0.3527 -0.9861 -0.0939
 1166TIP3    H224990   4.635   0.569  15.357  0.2295  0.2007  0.2688
 1167TIP3   OH224991   2.125   2.296   0.362 -0.5064 -0.2143  0.3890
 1167TIP3    H124992   2.092   2.229   0.302  1.7333  0.3424 -1.6074
 1167TIP3    H224993   2.133   2.375   0.309 -1.1853  1.1496  2.1969
 1168TIP3   OH224994   3.642   3.781   5.368  0.6688 -0.1586 -0.2167
 1168TIP3    H124995   3.633   3.688   5.386 -0.2691 -0.1315 -0.4900
 1168TIP3    H224996   3.565   3.821   5.409 -0.4775  0.1481 -2.5041
 1169TIP3   OH224997   3.418   2.512  11.340  0.5890  0.1598 -0.4643
 1169TIP3    H124998   3.353   2.551  11.399  1.9093  0.5332  0.7847
 1169TIP3    H224999   3.387   2.535  11.253 -1.6648 -0.7935  0.0116
 1170TIP3   OH225000   1.102   3.503  16.186  0.4700  0.4800  0.1802
 1170TIP3    H125001   1.098   3.420  16.138  0.2206  0.1913  0.6854
 1170TIP3    H225002   1.140   3.565  16.124  0.5390  0.0186 -0.2475
 1171TIP3   OH225003   1.268   6.399  11.440 -0.0664  0.3225  0.7532
 1171TIP3    H125004   1.222   6.477  11.410  0.2285  0.1700 -0.0999
 1171TIP3    H225005   1.226   6.327  11.394 -1.0847 -0.1817  2.3568
 1172TIP3   OH225006   3.153   4.268  14.627  0.3855 -0.5599 -0.2353
 1172TIP3    H125007   3.196   4.200  14.679  0.6400  0.1716  0.5243
 1172TIP3    H225008   3.068   4.281  14.671 -1.1009 -2.6694 -2.2599
 1173TIP3   OH225009   6.398   6.016  12.474  0.2493 -0.3102  0.4998
 1173TIP3    H125010   6.465   6.008  12.541  0.5494  0.6074  0.3180
 1173TIP3    H225011   6.434   6.077  12.410 -1.0416  0.7723  0.7577
 1174TIP3   OH225012   6.734   4.745   4.828  0.2435  0.0240 -0.0214
 1174TIP3    H125013   6.767   4.687   4.896  0.0824 -0.3326 -0.2457
 1174TIP3    H225014   6.669   4.799   4.872  1.4904  1.1089  0.5552
 1175TIP3   OH225015   6.059   2.949  13.448  0.1883 -0.3918  0.0472
 1175TIP3    H125016   6.075   2.896  13.370  1.8061 -2.0004  1.4265
 1175TIP3    H225017   6.052   3.039  13.414 -0.0492 -1.1437 -2.0330
 1176TIP3   OH225018   3.963   4.015  14.695 -0.1943  0.1046 -0.3247
 1176TIP3    H125019   3.939   4.023  14.787  1.7081 -1.3209  0.3465
 1176TIP3    H225020   4.043   4.067  14.687  0.0950 -0.4379 -0.9939
 1177TIP3   OH225021   3.001   0.048   4.347  0.3057 -0.5048 -0.0035
 1177TIP3    H125022   2.937   0.019   4.413  0.4795 -0.7360  0.0672
 1177TIP3    H225023   2.967   0.131   4.315 -0.1325 -0.7172 -0.1029
 1178TIP3   OH225024   4.270   1.682  13.123 -0.4305 -0.7772  0.5158
 1178TIP3    H125025   4.267   1.586  13.113  3.0579 -1.0026  0.4926
 1178TIP3    H225026   4.302   1.713  13.039 -1.6876  0.5084  0.4716
 1179TIP3   OH225027   3.391   1.639   2.050 -0.0254  0.2088 -0.3689
 1179TIP3    H125028   3.414   1.655   1.958 -0.7989 -0.4917 -0.6957
 1179TIP3    H225029   3.392   1.544   2.059 -2.2629  0.1390 -0.2989
 1180TIP3   OH225030   6.138   1.940   4.534 -0.0110 -0.1759 -0.0817
 1180TIP3    H125031   6.132   1.916   4.626 -2.1137  1.1621  0.1882
 1180TIP3    H225032   6.183   2.024   4.533  0.6292 -0.5131 -0.3578
 1181TIP3   OH225033   5.231   3.629  15.212  0.1187  0.4770  0.7731
 1181TIP3    H125034   5.294   3.571  15.169  0.4015  0.9657  0.5164
 1181TIP3    H225035   5.205   3.691  15.144 -1.4760 -0.3595  0.5583
 1182TIP3   OH225036   4.327   6.204  12.785  0.0679  0.0673  0.2992
 1182TIP3    H125037   4.267   6.161  12.726 -0.0622  1.9349 -1.0063
 1182TIP3    H225038   4.272   6.236  12.857 -0.0528 -0.6564  0.5298
 1183TIP3   OH225039   3.608   3.042  12.381  0.0058 -0.2281 -0.3904
 1183TIP3    H125040   3.594   3.056  12.475 -1.2561  0.4230 -0.6473
 1183TIP3    H225041   3.675   2.974  12.376 -0.5572 -0.9271  1.0071
 1184TIP3   OH225042   2.183   4.620   0.084  0.2078  0.3634  0.2229
 1184TIP3    H125043   2.099   4.590   0.120  0.9102 -2.0544  0.0325
 1184TIP3    H225044   2.178   4.598  -0.009  0.6128  1.3259 -0.0362
 1185TIP3   OH225045   1.882   0.019  16.075  0.0895  0.3491  0.5179
 1185TIP3    H125046   1.813   0.066  16.028  0.4051 -1.2391 -1.7153
 1185TIP3    H225047   1.839  -0.019  16.151 -1.8767 -1.5224 -1.3865
 1186TIP3   OH225048   4.073   6.528   2.552 -0.5192 -0.3915  0.7660
 1186TIP3    H125049   4.163   6.502   2.532 -0.4826 -0.6314  1.2190
 1186TIP3    H225050   4.057   6.492   2.640 -0.1023  1.9753  1.8848
 1187TIP3   OH225051   2.196   2.519  16.020 -0.1080 -0.3477  0.0714
 1187TIP3    H125052   2.138   2.470  16.078 -0.2526  1.8464  1.9407
 1187TIP3    H225053   2.284   2.503  16.053 -0.0430 -0.3147 -0.0811
 1188TIP3   OH225054   1.448   3.252  16.078  0.7914 -0.3280  0.0890
 1188TIP3    H125055   1.457   3.160  16.103 -0.4365 -1.0272 -1.8183
 1188TIP3    H225056   1.357   3.261  16.052  1.2158  1.0844 -1.0498
 1189TIP3   OH225057   0.188   3.231   6.105  0.2159  0.3275 -0.3747
 1189TIP3    H125058   0.140   3.314   6.107  1.4612  1.0605  0.3606
 1189TIP3    H225059   0.219   3.219   6.195  1.3585 -0.1225 -0.8082
 1190TIP3   OH225060   1.585   3.890  16.602  0.6067 -0.4916 -0.2565
 1190TIP3    H125061   1.534   3.911  16.524  0.7725 -1.4878 -0.6547
 1190TIP3    H225062   1.624   3.804  16.582  1.3667 -0.3512  0.5653
 1191TIP3   OH225063   3.789   2.140   2.345 -0.2385  0.2105 -0.7945
 1191TIP3    H125064   3.715   2.151   2.285 -1.0414  1.4387  0.3517
 1191TIP3    H225065   3.863   2.181   2.301 -0.0515 -1.5608 -2.2188
 1192TIP3   OH225066   1.792   4.864   5.600  0.0572  0.5465 -0.1283
 1192TIP3    H125067   1.848   4.821   5.665  0.5521  0.4423 -0.6179
 1192TIP3    H225068   1.718   4.898   5.651  0.0376 -0.2226  0.3766
 1193TIP3   OH225069   5.220   5.602  12.589 -0.4215 -0.0303 -0.6404
 1193TIP3    H125070   5.161   5.611  12.515  0.8294  0.4753 -1.6186
 1193TIP3    H225071   5.242   5.692  12.614 -0.3997 -0.2031 -0.0055
 1194TIP3   OH225072   4.220   4.373   5.092  0.2089 -0.0653  0.3464
 1194TIP3    H125073   4.223   4.363   5.188  0.9868  0.0544  0.3451
 1194TIP3    H225074   4.248   4.288   5.059  0.3709  0.0303  0.2365
 1195TIP3   OH225075   0.658   3.372   3.202  0.1563 -0.0978 -0.0651
 1195TIP3    H125076   0.738   3.409   3.239  0.1288 -1.9641  2.1145
 1195TIP3    H225077   0.589   3.395   3.265 -0.1882 -2.0536  0.3513
 1196TIP3   OH225078   4.604   6.508   1.428  0.1149  0.2795  0.3211
 1196TIP3    H125079   4.618   6.481   1.337 -0.6960  1.8195 -0.2853
 1196TIP3    H225080   4.612   6.427   1.478 -1.7577 -1.0595 -1.3688
 1197TIP3   OH225081   1.885   5.919   2.448  0.0908 -0.2629  0.7333
 1197TIP3    H125082   1.837   6.001   2.458  1.4038  0.4746  1.3117
 1197TIP3    H225083   1.841   5.858   2.506 -0.5659  0.2025  0.7305
 1198TIP3   OH225084   1.274   1.390  14.225  0.4941 -0.4202 -0.2711
 1198TIP3    H125085   1.292   1.331  14.152  0.5758  0.5209 -1.0371
 1198TIP3    H225086   1.231   1.335  14.290 -2.0561 -0.7540 -2.0771
 1199TIP3   OH225087   6.392   6.624  12.592 -0.1234  0.5879 -0.4465
 1199TIP3    H125088   6.391   6.531  12.616 -0.9113  0.6651 -0.1244
 1199TIP3    H225089   6.318   6.634  12.531 -1.8249  1.4942  1.6092
 1200TIP3   OH225090   6.783   3.757   3.453  0.1288 -0.5758  0.5980
 1200TIP3    H125091   6.789   3.846   3.488 -2.3620  0.0468 -0.2930
 1200TIP3    H225092   6.708   3.719   3.499 -0.2887 -1.3584 -0.6739
 1201TIP3   OH225093   5.478   5.635  17.067  0.2224  0.2762  0.3909
 1201TIP3    H125094   5.525   5.648  16.984  0.5000  0.1240  0.5270
 1201TIP3    H225095   5.397   5.686  17.056 -1.5276 -2.6328 -1.4332
 1202TIP3   OH225096   2.779   1.518   1.424 -0.4823  0.1891 -0.4586
 1202TIP3    H125097   2.798   1.425   1.412 -2.6622 -1.0972  4.0575
 1202TIP3    H225098   2.851   1.551   1.479 -0.2600  0.9864 -1.1884
 1203TIP3   OH225099   6.768   2.580  17.096 -0.6243  0.0869 -0.0588
 1203TIP3    H125100   6.809   2.625  17.022 -1.3241  0.6041 -0.1453
 1203TIP3    H225101   6.764   2.647  17.164 -0.5161 -0.2217  0.2537
 1204TIP3   OH225102   1.807   6.330  14.454  0.2072  0.1538  0.0843
 1204TIP3    H125103   1.834   6.374  14.373 -0.1984 -0.0986 -0.1922
 1204TIP3    H225104   1.757   6.397  14.501 -1.5881 -0.3988 -0.9631
 1205TIP3   OH225105   1.702   6.498   2.567  0.2131 -0.3888 -0.2505
 1205TIP3    H125106   1.696   6.577   2.620  0.5272 -1.5336  1.6033
 1205TIP3    H225107   1.789   6.503   2.526  0.8738 -0.4810  1.0916
 1206TIP3   OH225108   3.211   6.793   0.041 -0.1191  0.2930  0.2108
 1206TIP3    H125109   3.187   6.885   0.031 -0.5964  0.3137  1.4020
 1206TIP3    H225110   3.267   6.775  -0.034  0.5892  1.7481  0.3539
 1207TIP3   OH225111   1.790   2.137  13.157 -0.2042  0.2755 -0.7316
 1207TIP3    H125112   1.716   2.180  13.202  0.4636  3.1309 -2.1353
 1207TIP3    H225113   1.868   2.172  13.200  0.4417 -2.1522  0.2465
 1208TIP3   OH225114   4.604   4.212   1.259  0.2948 -0.6850  0.2236
 1208TIP3    H125115   4.604   4.151   1.185  0.8444 -0.3408 -0.0671
 1208TIP3    H225116   4.625   4.297   1.220 -0.7194 -0.2607  0.5942
 1209TIP3   OH225117   5.755   5.022  10.841 -0.1167  0.3264  0.1232
 1209TIP3    H125118   5.701   5.100  10.851  0.1508  0.6686 -0.9650
 1209TIP3    H225119   5.696   4.956  10.805 -0.2954  0.0716  0.8620
 1210TIP3   OH225120   4.222   1.483  14.038  0.1533 -0.0993 -0.4622
 1210TIP3    H125121   4.235   1.394  14.008 -0.0980 -0.3337  0.1160
 1210TIP3    H225122   4.130   1.502  14.016  0.9379  1.0590 -3.2540
 1211TIP3   OH225123   0.377   5.323  14.575  0.3512  0.4133 -0.4826
 1211TIP3    H125124   0.460   5.365  14.596  0.6946  0.5246 -1.9479
 1211TIP3    H225125   0.322   5.395  14.541  0.0251  0.1612 -0.4969
 1212TIP3   OH225126   2.559   3.718   4.854 -0.2822 -0.6956  0.4204
 1212TIP3    H125127   2.532   3.688   4.940 -1.7755 -0.7519 -0.0365
 1212TIP3    H225128   2.501   3.672   4.793  1.3956 -1.4526 -0.7140
 1213TIP3   OH225129   3.506   0.536  17.235  0.0781  0.0253  0.0322
 1213TIP3    H125130   3.464   0.618  17.262 -0.4008 -0.1868 -0.0662
 1213TIP3    H225131   3.598   0.548  17.260  0.6628  1.7627 -2.5235
 1214TIP3   OH225132   0.903   6.650   2.528 -0.2347 -0.0596 -0.2481
 1214TIP3    H125133   0.913   6.746   2.524  0.8960 -0.1309  0.4685
 1214TIP3    H225134   0.980   6.620   2.577 -0.9829 -1.2664  0.2229
 1215TIP3   OH225135   0.025   0.866  11.144  0.0133  0.0073  0.0065
 1215TIP3    H125136   0.100   0.926  11.144 -0.6305  0.8237 -0.2387
 1215TIP3    H225137  -0.045   0.914  11.188 -0.5229 -0.5585 -0.2082
 1216TIP3   OH225138   3.882   6.155   5.548 -0.0197 -0.6460  0.9394
 1216TIP3    H125139   3.952   6.149   5.613  0.4962  1.5657  0.6547
 1216TIP3    H225140   3.928   6.173   5.466 -0.7057 -2.8057 -0.0041
 1217TIP3   OH225141   2.499   1.849  13.718  0.0088  0.3566 -0.5870
 1217TIP3    H125142   2.455   1.933  13.734  1.6702  1.0999  0.4486
 1217TIP3    H225143   2.560   1.868  13.647 -0.0615 -0.1569 -0.7856
 1218TIP3   OH225144   3.877   6.575   0.128  0.4875 -0.1484  0.4833
 1218TIP3    H125145   3.956   6.628   0.113 -1.0898  2.3514  0.4694
 1218TIP3    H225146   3.853   6.542   0.042  0.4356  0.7138  0.1670
 1219TIP3   OH225147   2.988   4.430  16.901  0.2576 -0.5016 -0.1227
 1219TIP3    H125148   3.048   4.384  16.842  0.8037  1.6595 -1.4083
 1219TIP3    H225149   2.901   4.413  16.865  0.3206 -1.4875  0.1603
 1220TIP3   OH225150   1.255   3.332  16.614 -0.2722 -0.5295 -0.0759
 1220TIP3    H125151   1.343   3.323  16.651  1.1906 -0.1402 -3.1384
 1220TIP3    H225152   1.215   3.246  16.627  0.5409 -0.7236  1.3397
 1221TIP3   OH225153   6.695   1.897  15.529 -0.3295 -0.5358 -0.6582
 1221TIP3    H125154   6.614   1.855  15.557 -0.6494 -0.8300 -1.9763
 1221TIP3    H225155   6.695   1.890  15.434  0.8137  0.2612 -0.7450
 1222TIP3   OH225156   5.409   4.833  11.459 -0.1995 -0.2070  0.6300
 1222TIP3    H125157   5.428   4.778  11.384  2.4078  0.9929  0.3101
 1222TIP3    H225158   5.339   4.892  11.429  0.2933 -0.2353 -0.6112
 1223TIP3   OH225159   1.798   5.047   2.766 -0.5601 -0.2207  0.7096
 1223TIP3    H125160   1.878   5.048   2.819  2.3635 -1.7045 -3.2052
 1223TIP3    H225161   1.746   4.975   2.802  1.2584 -1.1508  1.5741
 1224TIP3   OH225162   5.938   6.020   1.052 -0.1544  0.6371  0.0087
 1224TIP3    H125163   5.868   6.077   1.084  0.3542  1.5394 -0.4546
 1224TIP3    H225164   5.951   5.957   1.123 -1.8163  0.0880 -0.1331
 1225TIP3   OH225165   0.379   4.614  13.007  0.0864 -0.0623  0.1788
 1225TIP3    H125166   0.325   4.668  13.064  0.3318  1.0313 -0.5786
 1225TIP3    H225167   0.318   4.577  12.943 -0.1720 -1.2017  1.0435
 1226TIP3   OH225168   2.143   4.647   5.390 -0.0463 -0.3922 -0.8431
 1226TIP3    H125169   2.223   4.626   5.341 -0.2985 -0.5954 -1.1798
 1226TIP3    H225170   2.132   4.741   5.379  0.2794 -0.3230 -0.5900
 1227TIP3   OH225171   1.144   1.830  15.206 -0.0503  0.2073  0.6000
 1227TIP3    H125172   1.236   1.842  15.182 -0.5911  1.3725 -1.1659
 1227TIP3    H225173   1.145   1.803  15.298  1.9731  1.9816  1.1591
 1228TIP3   OH225174   1.034   0.017   2.270 -0.2523 -0.1077  0.0507
 1228TIP3    H125175   0.968   0.027   2.201 -0.0958 -0.3552 -0.1362
 1228TIP3    H225176   0.983   0.009   2.350 -0.4763 -0.8051 -0.1518
 1229TIP3   OH225177   2.261   4.221  13.497  0.9555  0.3515 -0.1639
 1229TIP3    H125178   2.278   4.223  13.591  1.1652 -0.9538 -0.1584
 1229TIP3    H225179   2.345   4.200  13.457  0.2107 -2.8853 -0.3475
 1230TIP3   OH225180   5.332   4.226   0.533  0.3547 -0.1126 -0.0011
 1230TIP3    H125181   5.316   4.311   0.574  0.0091 -0.4376  0.5522
 1230TIP3    H225182   5.386   4.246   0.456  0.9093  0.5221  0.5427
 1231TIP3   OH225183   5.340   0.122   1.905  0.3407  0.0851  0.1249
 1231TIP3    H125184   5.260   0.124   1.958 -1.5830 -0.1466 -2.5198
 1231TIP3    H225185   5.363   0.030   1.900  0.3772  0.0816  0.3519
 1232TIP3   OH225186   4.901   3.401   1.504 -0.2651 -0.2630 -0.0830
 1232TIP3    H125187   4.990   3.380   1.474 -1.4176 -2.0314 -2.6864
 1232TIP3    H225188   4.859   3.440   1.427 -2.0998 -0.6255  0.6898
 1233TIP3   OH225189   6.260   2.100  13.810 -0.4325  0.1882  0.0613
 1233TIP3    H125190   6.300   2.073  13.892 -0.3467 -0.4182 -0.1796
 1233TIP3    H225191   6.182   2.150  13.837 -0.7484 -0.5286  0.5070
 1234TIP3   OH225192   5.840   3.746  14.251 -0.3915 -0.1371  0.0678
 1234TIP3    H125193   5.751   3.709  14.258 -0.0827 -0.8569  0.2905
 1234TIP3    H225194   5.889   3.703  14.321 -0.0269  0.7348  0.3494
 1235TIP3   OH225195   5.834   1.558   5.756  0.3496 -0.1441  0.2719
 1235TIP3    H125196   5.789   1.589   5.835 -2.0090 -0.3593 -0.8831
 1235TIP3    H225197   5.798   1.612   5.686  0.4386 -1.6550 -0.9925
 1236TIP3   OH225198   6.284   5.674  12.681 -0.1103 -0.0259 -0.4056
 1236TIP3    H125199   6.243   5.755  12.713 -2.2198 -1.7317  1.5351
 1236TIP3    H225200   6.274   5.678  12.586 -4.3332  0.0568 -0.1276
 1237TIP3   OH225201   5.622   6.640  11.397 -0.4496  0.6329  0.1202
 1237TIP3    H125202   5.602   6.638  11.491  0.6500  3.9255  0.5681
 1237TIP3    H225203   5.538   6.655  11.354 -1.0206 -1.2904  0.4782
 1238TIP3   OH225204   4.200   4.947   5.036 -0.0271  0.5910  0.3648
 1238TIP3    H125205   4.237   4.895   4.965 -0.7895  1.1372 -0.4630
 1238TIP3    H225206   4.114   4.907   5.052 -0.8628  1.8878 -0.6652
 1239TIP3   OH225207   4.979   2.975  12.433 -0.1691 -0.6540  0.3685
 1239TIP3    H125208   4.977   2.886  12.397  1.2268  0.7223 -3.5995
 1239TIP3    H225209   5.072   2.995  12.442 -0.4314 -0.3027  3.6413
 1240TIP3   OH225210   1.700   3.588  12.178 -0.3906 -0.3106  0.3692
 1240TIP3    H125211   1.697   3.550  12.266 -1.7906  1.1963  1.0291
 1240TIP3    H225212   1.739   3.674  12.190 -0.4889 -0.1341 -0.5057
 1241TIP3   OH225213   0.685   1.575  13.515  0.5265 -0.3517 -0.0919
 1241TIP3    H125214   0.634   1.637  13.462 -0.4209 -0.4118  0.7151
 1241TIP3    H225215   0.622   1.508  13.540  0.8930 -0.2296  1.2462
 1242TIP3   OH225216   1.271   3.276   2.732  0.3814  0.3030 -0.0289
 1242TIP3    H125217   1.297   3.326   2.809  1.2794 -1.1053  0.6222
 1242TIP3    H225218   1.243   3.342   2.669  1.5396  1.6216  0.7853
 1243TIP3   OH225219   1.702   2.361   3.157  0.3223  0.4744  0.2060
 1243TIP3    H125220   1.667   2.425   3.096 -1.7577 -0.6076  0.1806
 1243TIP3    H225221   1.676   2.276   3.121  0.5126 -0.2669  1.7081
 1244TIP3   OH225222   3.972   5.610  13.630  0.4876 -0.3525  0.0579
 1244TIP3    H125223   3.999   5.523  13.601  0.4912 -0.4899  0.4652
 1244TIP3    H225224   3.943   5.597  13.721 -0.1827 -0.0593 -0.1080
 1245TIP3   OH225225   2.773   3.690  13.576  0.4975 -0.1634 -0.2824
 1245TIP3    H125226   2.693   3.642  13.599  0.5475  0.0885  0.4291
 1245TIP3    H225227   2.778   3.682  13.481 -0.0324 -0.7242 -0.2739
 1246TIP3   OH225228   2.945   5.248  13.111 -0.2515 -0.3322 -0.1137
 1246TIP3    H125229   2.876   5.258  13.177  0.2500 -1.5155  0.6292
 1246TIP3    H225230   2.912   5.177  13.054 -0.7896  0.8371 -1.3103
 1247TIP3   OH225231   0.457   0.655   3.245 -0.2233 -0.0156  0.1310
 1247TIP3    H125232   0.453   0.750   3.238  1.1933  0.0876  0.3793
 1247TIP3    H225233   0.439   0.623   3.156 -0.3944  0.5054 -0.0209
 1248TIP3   OH225234   5.885   6.699  12.995 -0.5202 -0.0961  0.2541
 1248TIP3    H125235   5.830   6.709  13.072  0.7403 -2.1220  1.4935
 1248TIP3    H225236   5.966   6.661  13.028  0.3529 -0.3135 -1.9719
 1249TIP3   OH225237   3.296   1.636  15.429 -0.4478 -1.2455 -0.3433
 1249TIP3    H125238   3.213   1.679  15.408 -0.3794 -0.6407  0.5781
 1249TIP3    H225239   3.353   1.656  15.355  0.0198  1.4500  0.6198
 1250TIP3   OH225240   0.649   5.654  14.983 -0.0550 -0.1084 -0.5428
 1250TIP3    H125241   0.733   5.615  14.960  0.1762 -0.3472  0.6542
 1250TIP3    H225242   0.672   5.733  15.031 -0.5080 -0.1855 -0.1945
 1251TIP3   OH225243   3.588   6.273   6.385  0.4622 -0.0209 -0.2047
 1251TIP3    H125244   3.627   6.254   6.300  1.3339 -0.9537  0.3877
 1251TIP3    H225245   3.660   6.310   6.437 -0.2745  1.3877 -0.1331
 1252TIP3   OH225246   3.830   0.389  14.368 -0.3630  0.3091 -0.0853
 1252TIP3    H125247   3.874   0.467  14.333 -2.3326  1.7496  0.4406
 1252TIP3    H225248   3.789   0.348  14.293  0.7898 -0.3267 -0.3854
 1253TIP3   OH225249   0.523   0.509  13.905 -0.5692 -0.1090  0.0485
 1253TIP3    H125250   0.535   0.562  13.825 -1.8217  0.5454  0.2799
 1253TIP3    H225251   0.612   0.485  13.930 -0.0551  0.8411 -0.7749
 1254TIP3   OH225252   1.918   5.374  15.992 -0.3924 -0.1594  0.2205
 1254TIP3    H125253   1.924   5.377  15.897 -0.9626  0.7442  0.1949
 1254TIP3    H225254   1.904   5.282  16.013  0.0428 -0.4041 -0.5446
 1255TIP3   OH225255   5.172   3.334   0.087 -0.1170  0.2629 -0.1640
 1255TIP3    H125256   5.245   3.305   0.033 -1.5433 -1.0711 -1.4767
 1255TIP3    H225257   5.117   3.386   0.028 -0.6755  0.5003  0.5509
 1256TIP3   OH225258   5.118   1.693  12.228  0.3173 -0.1427 -0.1501
 1256TIP3    H125259   5.154   1.706  12.140  0.9071 -0.0098  0.1002
 1256TIP3    H225260   5.102   1.599  12.234  1.4060 -0.3333  0.0078
 1257TIP3   OH225261   4.590   6.177   5.895  0.4432 -0.4162  0.0717
 1257TIP3    H125262   4.665   6.229   5.869 -1.2693  2.8558  1.1896
 1257TIP3    H225263   4.617   6.135   5.977  1.3836 -0.2334 -0.1303
 1258TIP3   OH225264   6.191   2.161   2.620 -0.2172 -0.1854  0.0203
 1258TIP3    H125265   6.280   2.133   2.641 -0.4401 -0.0097  1.2556
 1258TIP3    H225266   6.198   2.203   2.534  0.8565 -0.2721  0.0589
 1259TIP3   OH225267   2.673   3.279   3.549  0.0430 -0.3804 -0.0471
 1259TIP3    H125268   2.700   3.191   3.574 -1.6623 -0.4973  1.6073
 1259TIP3    H225269   2.598   3.265   3.491 -0.0777 -0.0366  0.0229
 1260TIP3   OH225270   0.517   0.753   1.020  0.2977  0.7196 -0.0805
 1260TIP3    H125271   0.577   0.688   0.985 -0.2156 -1.3567  2.6070
 1260TIP3    H225272   0.431   0.728   0.984  0.4320  1.3661 -0.8808
 1261TIP3   OH225273   5.554   0.919  15.619 -0.1230 -0.3902 -0.1684
 1261TIP3    H125274   5.591   1.003  15.593 -0.0887 -0.5397 -0.6049
 1261TIP3    H225275   5.476   0.942  15.670 -0.5452 -0.0957 -0.9277
 1262TIP3   OH225276   0.835   2.724  15.408 -0.3649  0.1455 -0.2893
 1262TIP3    H125277   0.832   2.731  15.504 -1.8722 -1.2139 -0.2028
 1262TIP3    H225278   0.880   2.804  15.380  0.8617  0.1765  1.5786
 1263TIP3   OH225279   5.811   1.122  12.098 -0.1083 -0.4826  0.2556
 1263TIP3    H125280   5.790   1.149  12.188 -0.4024 -2.5010  0.8278
 1263TIP3    H225281   5.907   1.120  12.096 -0.0945 -0.1854  0.4361
 1264TIP3   OH225282   1.972   3.592   2.486  0.1772 -0.7112  0.6215
 1264TIP3    H125283   2.064   3.587   2.511  0.9703  2.3579 -1.1764
 1264TIP3    H225284   1.933   3.512   2.522  3.5341 -2.2199  1.2947
 1265TIP3   OH225285   1.295   6.538   2.764 -0.5123 -0.1942 -0.5921
 1265TIP3    H125286   1.202   6.524   2.782 -0.1912 -1.2707  0.3332
 1265TIP3    H225287   1.303   6.526   2.670 -1.7355  2.5922 -1.1663
 1266TIP3   OH225288   6.766   1.760  17.211  0.3274  0.1065 -0.0547
 1266TIP3    H125289   6.734   1.849  17.193  0.0568  0.1518  0.6134
 1266TIP3    H225290   6.692   1.703  17.189  0.4482  0.0553 -0.3333
 1267TIP3   OH225291   0.723   1.739  16.147 -0.2382  0.3817  0.1584
 1267TIP3    H125292   0.763   1.764  16.231 -0.1313  1.5966 -0.2327
 1267TIP3    H225293   0.630   1.733  16.165 -0.0878 -0.7452  0.6693
 1268TIP3   OH225294   0.218   5.892  17.085 -0.8620 -0.2809 -0.2265
 1268TIP3    H125295   0.140   5.943  17.106 -1.0771 -0.2826 -0.9927
 1268TIP3    H225296   0.265   5.946  17.021 -0.0277 -0.0940  0.5175
 1269TIP3   OH225297   5.904   3.500  12.839  0.6420  0.0525 -0.5982
 1269TIP3    H125298   5.973   3.459  12.786 -0.5464 -0.4996 -1.7762
 1269TIP3    H225299   5.844   3.428  12.858  0.3477  0.5435  0.3602
 1270TIP3   OH225300   4.982   6.480  11.755 -0.1056  0.1375  0.6143
 1270TIP3    H125301   4.984   6.426  11.676 -0.5950 -0.1983  0.8267
 1270TIP3    H225302   4.956   6.567  11.723 -2.8442 -0.5542  0.6712
 1271TIP3   OH225303   0.472   1.295   5.160 -0.5117 -0.4771  0.4706
 1271TIP3    H125304   0.405   1.340   5.108 -0.9071 -1.1794  0.3476
 1271TIP3    H225305   0.544   1.357   5.167 -0.8465 -0.0159 -0.1087
 1272TIP3   OH225306   0.453   1.896  17.059  0.2856 -0.4042 -0.4330
 1272TIP3    H125307   0.460   1.820  17.116  1.0447  0.2702  0.4028
 1272TIP3    H225308   0.538   1.900  17.015  0.2947  0.0188 -0.3835
 1273TIP3   OH225309   1.886   2.105  11.851 -0.2319 -0.7621 -0.1378
 1273TIP3    H125310   1.798   2.117  11.886  0.1519  0.5494  0.4111
 1273TIP3    H225311   1.903   2.184  11.799  0.7685 -0.8226  0.0747
 1274TIP3   OH225312   3.071   0.011  12.235  0.2965 -1.3294  0.3217
 1274TIP3    H125313   3.024   0.022  12.318  0.5613  1.1743  0.2144
 1274TIP3    H225314   3.002   0.013  12.168  0.3222 -0.5038  0.3215
 1275TIP3   OH225315   4.536   6.798   3.125  0.1730 -0.0328  0.3271
 1275TIP3    H125316   4.467   6.841   3.073 -2.0954 -1.5692  1.8419
 1275TIP3    H225317   4.570   6.730   3.068 -0.6550 -0.2143  0.0251
 1276TIP3   OH225318   0.249   5.426  16.203  0.3910 -0.1207 -0.3486
 1276TIP3    H125319   0.335   5.449  16.169  1.0468  0.0293  1.3298
 1276TIP3    H225320   0.221   5.504  16.252 -0.3273 -0.4716 -0.1889
 1277TIP3   OH225321   3.891   4.918  16.027 -0.4735 -0.1632  0.1210
 1277TIP3    H125322   3.939   4.890  16.106  0.3389  0.7584 -0.0258
 1277TIP3    H225323   3.826   4.980  16.060  1.5352  2.2514 -0.1328
 1278TIP3   OH225324   1.032   0.919  11.975  0.1808 -0.2208  0.0676
 1278TIP3    H125325   1.006   1.011  11.983  0.6312 -0.1291  0.5161
 1278TIP3    H225326   1.022   0.885  12.064  0.0836 -0.5909 -0.0855
 1279TIP3   OH225327   2.410   2.249   5.285  0.3468  0.0084 -0.2199
 1279TIP3    H125328   2.433   2.156   5.292 -0.3020 -0.3568 -2.2988
 1279TIP3    H225329   2.381   2.272   5.374  0.0055 -1.9109  0.2355
 1280TIP3   OH225330   2.947   0.883  14.786  0.1906  0.7401  0.0398
 1280TIP3    H125331   2.868   0.930  14.811  1.3690  1.4309  2.9335
 1280TIP3    H225332   3.015   0.917  14.844  2.1704 -1.2539 -0.9225
 1281TIP3   OH225333   4.788   0.486  10.764 -0.1534  0.1754 -0.7569
 1281TIP3    H125334   4.764   0.494  10.672  0.5577 -0.6675 -1.0242
 1281TIP3    H225335   4.859   0.549  10.776 -1.2597  1.4003 -0.3906
 1282TIP3   OH225336   3.646   6.062  14.019  0.2698  0.6753 -0.7705
 1282TIP3    H125337   3.726   6.013  13.999  0.3548  0.3098  0.4153
 1282TIP3    H225338   3.658   6.146  13.975  1.2530  0.5781 -0.7078
 1283TIP3   OH225339   4.442   1.848  13.591  0.2155  0.0838  0.2199
 1283TIP3    H125340   4.349   1.860  13.608  0.1159 -0.2108 -0.1066
 1283TIP3    H225341   4.461   1.905  13.517 -0.1329 -1.2588 -0.9567
 1284TIP3   OH225342   0.701   5.689  11.630  0.1887  0.6741  0.0683
 1284TIP3    H125343   0.636   5.646  11.686  2.1089 -0.8146  1.3037
 1284TIP3    H225344   0.781   5.688  11.682  1.9467 -0.2496 -2.4619
 1285TIP3   OH225345   1.132   4.825  11.914  0.5970 -0.3300  0.7491
 1285TIP3    H125346   1.128   4.833  12.009  0.1126  1.0895  0.6315
 1285TIP3    H225347   1.093   4.906  11.881  1.0592 -0.6467 -0.6621
 1286TIP3   OH225348   4.838   3.732  13.140 -0.5777  0.0351 -0.3673
 1286TIP3    H125349   4.863   3.781  13.062  0.6041 -2.1543 -1.4622
 1286TIP3    H225350   4.920   3.696  13.173 -1.1144  0.5741  1.6834
 1287TIP3   OH225351   1.104   2.223  13.691  0.1064 -0.2867 -0.9408
 1287TIP3    H125352   1.040   2.253  13.756 -0.4429 -0.9016 -1.1921
 1287TIP3    H225353   1.111   2.129  13.706 -0.9436 -0.6651 -2.5441
 1288TIP3   OH225354   3.205   5.180   3.984 -0.0906  0.0187 -0.8735
 1288TIP3    H125355   3.281   5.161   3.929  1.5497 -1.7206  1.7889
 1288TIP3    H225356   3.220   5.131   4.065 -3.0131  1.3523  0.6509
 1289TIP3   OH225357   6.089   3.689  11.973  0.1341  0.1984 -0.0969
 1289TIP3    H125358   6.077   3.775  12.013 -0.0578 -0.1136  0.5387
 1289TIP3    H225359   6.061   3.627  12.041  2.9513 -0.5046  0.5824
 1290TIP3   OH225360   0.110   5.396  16.820 -0.1711 -0.5496  0.4161
 1290TIP3    H125361   0.110   5.366  16.729  1.8820 -1.9681  0.8105
 1290TIP3    H225362   0.018   5.392  16.847 -0.6507 -1.3454 -1.2009
 1291TIP3   OH225363   0.808   3.225   5.785  0.1060 -0.6207 -0.1196
 1291TIP3    H125364   0.745   3.201   5.853 -0.7797 -0.8475 -1.0014
 1291TIP3    H225365   0.858   3.297   5.824  0.4801 -1.5690  1.2429
 1292TIP3   OH225366   5.422   0.098   1.389 -0.0294 -0.4844 -0.1828
 1292TIP3    H125367   5.461   0.175   1.348 -0.0408 -0.2732  0.1948
 1292TIP3    H225368   5.490   0.065   1.448 -0.0255 -0.7632 -0.3419
 1293TIP3   OH225369   3.003   1.013  16.295 -0.0092 -0.5197  0.5049
 1293TIP3    H125370   2.933   0.996  16.359  0.3381  0.0152  1.0367
 1293TIP3    H225371   3.022   0.927  16.257 -1.8261 -0.5076 -0.5705
 1294TIP3   OH225372   1.836   4.082   4.952 -0.5694 -0.1939  0.2947
 1294TIP3    H125373   1.874   4.128   5.027 -0.0384  1.3598 -0.8648
 1294TIP3    H225374   1.887   4.113   4.877 -0.1658 -2.7532 -0.5851
 1295TIP3   OH225375   2.700   1.444  15.291 -0.2025 -0.1776  0.2701
 1295TIP3    H125376   2.665   1.378  15.231  0.8008 -0.9241  0.4796
 1295TIP3    H225377   2.764   1.492  15.239  0.0238 -0.2377  0.4944
 1296TIP3   OH225378   2.592   4.079  12.876 -0.0411 -0.2563  0.6379
 1296TIP3    H125379   2.503   4.103  12.902 -0.4369  0.0528 -0.9168
 1296TIP3    H225380   2.644   4.158  12.890 -0.2222 -0.1257  0.5575
 1297TIP3   OH225381   4.973   2.365   4.816 -0.2619  0.5344  0.1748
 1297TIP3    H125382   5.061   2.341   4.845 -0.5714  0.8564  1.4491
 1297TIP3    H225383   4.945   2.292   4.761  0.3744 -0.1020  0.6713
 1298TIP3   OH225384   5.081   2.107  15.524 -0.4144 -0.4699  0.3433
 1298TIP3    H125385   5.079   2.139  15.433 -1.1080 -0.5607  0.3240
 1298TIP3    H225386   5.056   2.183  15.576  1.9062  0.1755  0.6549
 1299TIP3   OH225387   1.779   0.847  15.090  0.0458  0.1275  0.0677
 1299TIP3    H125388   1.791   0.766  15.140  1.7645  0.9860  1.1212
 1299TIP3    H225389   1.818   0.829  15.004 -2.3350 -1.1309 -0.8593
 1300TIP3   OH225390   3.856   1.650  11.061 -0.2408 -0.6211 -0.3510
 1300TIP3    H125391   3.939   1.679  11.024  0.2169 -1.0333  0.3438
 1300TIP3    H225392   3.845   1.561  11.028 -0.7533 -0.3232 -1.0048
 1301TIP3   OH225393   1.089   4.380  13.397 -0.3140  0.8703  0.3766
 1301TIP3    H125394   1.114   4.472  13.405 -1.6779  1.4008 -0.8188
 1301TIP3    H225395   1.147   4.345  13.329 -1.0261  1.4042 -0.5478
 1302TIP3   OH225396   2.927   4.560  14.396 -0.3428  0.0334 -0.0110
 1302TIP3    H125397   2.906   4.534  14.485 -2.3495  1.4175 -0.0191
 1302TIP3    H225398   3.021   4.544  14.388 -0.3149 -1.1340  1.9698
 1303TIP3   OH225399   0.646   4.508   4.552  0.4739  0.0841  0.4104
 1303TIP3    H125400   0.658   4.568   4.479  0.0534 -0.3952 -0.0604
 1303TIP3    H225401   0.630   4.564   4.627 -1.3581  0.5417 -0.2901
 1304TIP3   OH225402   3.874   6.725  16.239  0.2454 -0.3499 -0.2716
 1304TIP3    H125403   3.917   6.712  16.324  1.0477 -1.3717 -0.8097
 1304TIP3    H225404   3.781   6.727  16.260  0.4795  0.9508  0.8021
 1305TIP3   OH225405   6.426   0.329  11.524 -0.5222 -0.8845  0.2156
 1305TIP3    H125406   6.504   0.319  11.469 -0.9844  0.4174 -0.7393
 1305TIP3    H225407   6.459   0.321  11.614  0.8620  0.3060 -0.1397
 1306TIP3   OH225408   6.180   5.445  12.351  0.4426 -0.0674  0.3895
 1306TIP3    H125409   6.179   5.541  12.355  1.6600 -0.0514  0.7610
 1306TIP3    H225410   6.130   5.424  12.272 -2.0205  0.7394  1.6287
 1307TIP3   OH225411   1.486   2.039   4.569 -0.3090 -0.0369 -0.4863
 1307TIP3    H125412   1.555   2.099   4.598  0.6572 -1.0482 -0.5820
 1307TIP3    H225413   1.509   1.955   4.610 -0.7372 -0.7103 -1.5867
 1308TIP3   OH225414   3.931   3.681  11.686 -0.0074 -0.0071  0.7168
 1308TIP3    H125415   4.014   3.728  11.684 -0.3038  0.5901  1.6435
 1308TIP3    H225416   3.864   3.750  11.690 -0.6961 -0.3879 -2.0720
 1309TIP3   OH225417   0.364   0.550   3.029  1.0338  0.5054  0.1155
 1309TIP3    H125418   0.285   0.504   3.056  1.1344  0.0736 -0.3248
 1309TIP3    H225419   0.359   0.554   2.934  1.6697  0.2408  0.0634
 1310TIP3   OH225420   2.308   4.918  14.185  0.8322  0.1388  1.0007
 1310TIP3    H125421   2.371   4.989  14.171  0.3176  0.9214  2.4204
 1310TIP3    H225422   2.336   4.849  14.126  1.0786  1.6954 -0.7947
 1311TIP3   OH225423   3.619   0.685   2.654 -0.2934 -0.0011 -0.4323
 1311TIP3    H125424   3.708   0.668   2.624 -0.1203  0.4808 -0.1988
 1311TIP3    H225425   3.578   0.599   2.658  0.2177 -0.2414 -0.3570
 1312TIP3   OH225426   4.306   4.703  11.030  0.3591 -0.5166  0.2310
 1312TIP3    H125427   4.238   4.674  11.090 -0.7570  0.7904 -0.3521
 1312TIP3    H225428   4.267   4.777  10.983  0.9862 -1.7633 -2.4646
 1313TIP3   OH225429   3.771   5.430   5.669  0.6923 -0.1803 -0.0977
 1313TIP3    H125430   3.739   5.455   5.582  1.5810  0.5108 -0.2354
 1313TIP3    H225431   3.864   5.453   5.668  0.8141 -0.5797  0.8866
 1314TIP3   OH225432   5.949   4.008   2.943 -0.1700 -0.7025 -0.5732
 1314TIP3    H125433   5.975   4.078   3.004 -1.9701 -0.3943 -0.1066
 1314TIP3    H225434   6.031   3.962   2.924  0.6782  0.0720  0.9732
 1315TIP3   OH225435   6.306   4.822  12.072 -0.6256 -0.6378 -0.1644
 1315TIP3    H125436   6.246   4.766  12.121 -1.6297  0.6387  0.1259
 1315TIP3    H225437   6.376   4.764  12.044 -0.0874 -1.4736  2.6389
 1316TIP3   OH225438   5.954   0.590  15.800 -0.1112  0.5683 -0.0970
 1316TIP3    H125439   5.955   0.536  15.721 -0.8531  1.0826 -0.4758
 1316TIP3    H225440   5.876   0.644  15.790  0.2265  1.1985  0.6152
 1317TIP3   OH225441   3.927   0.946   2.025  0.0919  0.0697 -0.0923
 1317TIP3    H125442   3.868   0.881   2.063 -1.3840  0.0908 -2.2032
 1317TIP3    H225443   3.919   1.022   2.083  0.7236 -1.0710  1.5779
 1318TIP3   OH225444   2.399   1.122   5.117 -0.2488 -0.0860  0.3567
 1318TIP3    H125445   2.424   1.201   5.068  1.0873  0.9511  2.5411
 1318TIP3    H225446   2.322   1.148   5.167  0.2342 -0.1308  1.1357
 1319TIP3   OH225447   1.748   0.209  14.469  0.1150  1.0675  0.4847
 1319TIP3    H125448   1.700   0.149  14.413  0.3124  1.2957  0.0718
 1319TIP3    H225449   1.772   0.282  14.412  0.6441  1.1235  0.7696
 1320TIP3   OH225450   3.468   5.201  15.547 -0.3916 -0.8335  0.3479
 1320TIP3    H125451   3.549   5.152  15.560 -0.8856 -1.6670  0.3362
 1320TIP3    H225452   3.414   5.177  15.622  0.3310  1.7903  1.8669
 1321TIP3   OH225453   2.689   3.232   0.547  0.3503  0.0745  0.5913
 1321TIP3    H125454   2.689   3.308   0.605  0.0985  0.1332  0.5196
 1321TIP3    H225455   2.677   3.157   0.605 -0.7208  0.1966  0.5514
 1322TIP3   OH225456   5.334   2.224  17.199  0.5152 -0.1049  0.1115
 1322TIP3    H125457   5.340   2.299  17.141  0.4744 -0.6035 -0.5503
 1322TIP3    H225458   5.246   2.229  17.237  0.8659  0.7296  0.8492
 1323TIP3   OH225459   5.818   3.296   0.926  0.6239  0.0811 -0.2565
 1323TIP3    H125460   5.804   3.231   0.857 -1.2447 -0.0008  0.1289
 1323TIP3    H225461   5.767   3.262   1.000  2.0746  0.4848  0.9619
 1324TIP3   OH225462   4.266   4.235   2.330  0.1139  1.1495  0.2935
 1324TIP3    H125463   4.214   4.298   2.379 -0.9468  0.7744 -0.3175
 1324TIP3    H225464   4.261   4.264   2.239  1.2808  1.3036  0.2633
 1325TIP3   OH225465   0.805   0.330  11.132 -0.3930  0.2212  0.2249
 1325TIP3    H125466   0.720   0.373  11.127 -0.8204 -0.6933 -1.0254
 1325TIP3    H225467   0.857   0.371  11.063 -0.7969 -1.1692 -0.9604
 1326TIP3   OH225468   4.729   6.449  16.214 -0.6086 -0.0084  0.0303
 1326TIP3    H125469   4.641   6.462  16.249 -0.5153  1.3295 -0.1885
 1326TIP3    H225470   4.749   6.530  16.167  0.2826 -0.7599 -0.9289
 1327TIP3   OH225471   0.652   0.024   4.735  0.1326 -0.0311 -0.0114
 1327TIP3    H125472   0.610   0.035   4.649  0.1754 -1.5086 -0.2413
 1327TIP3    H225473   0.613   0.093   4.789  0.2367  1.0505 -1.2451
 1328TIP3   OH225474   3.021   1.402   0.231 -0.2913  0.2893 -0.7781
 1328TIP3    H125475   3.041   1.327   0.287 -1.4272  0.3310 -0.2842
 1328TIP3    H225476   3.086   1.468   0.255 -0.5361  0.1769  0.2305
 1329TIP3   OH225477   1.577   0.335   1.536  0.4810 -0.3522 -0.3452
 1329TIP3    H125478   1.504   0.326   1.597  0.0185 -0.0921 -0.8563
 1329TIP3    H225479   1.541   0.382   1.461  0.6155 -2.1267 -1.5667
 1330TIP3   OH225480   1.765   4.180  11.559 -1.0760  0.6187  0.7607
 1330TIP3    H125481   1.802   4.226  11.634  0.7960 -0.4943  0.5773
 1330TIP3    H225482   1.715   4.108  11.597  0.6885 -0.5543  1.0123
 1331TIP3   OH225483   2.145   6.672  13.234  0.4164 -0.5711  0.1534
 1331TIP3    H125484   2.224   6.632  13.196 -0.1836 -1.8375  0.1718
 1331TIP3    H225485   2.126   6.618  13.310 -1.0832 -0.9699 -0.4739
 1332TIP3   OH225486   1.531   1.152   3.177  0.2495  0.1844  0.5624
 1332TIP3    H125487   1.526   1.223   3.241  0.2600  0.6190  0.0891
 1332TIP3    H225488   1.484   1.186   3.101  2.5613  0.7642 -0.6692
 1333TIP3   OH225489   6.350   2.157   0.523 -0.5409  0.2487 -0.5816
 1333TIP3    H125490   6.276   2.128   0.470  1.3521 -0.5375 -2.9978
 1333TIP3    H225491   6.363   2.248   0.499 -0.4197  0.2434 -0.5369
 1334TIP3   OH225492   3.075   5.503   2.744  0.1121  0.3679  0.9172
 1334TIP3    H125493   3.134   5.568   2.783  2.6677  0.2809 -2.3226
 1334TIP3    H225494   2.993   5.550   2.729  0.6903  1.7584  1.9303
 1335TIP3   OH225495   1.873   3.695   3.588 -0.1460  0.0648  0.0700
 1335TIP3    H125496   1.953   3.703   3.641 -1.1463 -1.6694  1.9924
 1335TIP3    H225497   1.897   3.730   3.502  2.2620  0.8496  0.9895
 1336TIP3   OH225498   4.907   5.918   0.938 -0.2252  0.5559 -0.3001
 1336TIP3    H125499   4.812   5.930   0.931 -0.6169 -2.7590 -3.1892
 1336TIP3    H225500   4.918   5.839   0.989  1.0216  0.9488  0.0739
 1337TIP3   OH225501   1.934   4.688  16.509  0.5043  0.2280  0.0167
 1337TIP3    H125502   1.905   4.735  16.431 -0.6295 -0.3539  0.0560
 1337TIP3    H225503   1.970   4.755  16.566  0.3582  0.8142 -0.5704
 1338TIP3   OH225504   2.789   1.568  14.186 -0.6224 -0.1772  0.0112
 1338TIP3    H125505   2.849   1.494  14.180 -0.9174 -0.4262  0.0732
 1338TIP3    H225506   2.829   1.637  14.132 -0.8476 -0.7280 -0.8842
 1339TIP3   OH225507   3.123   5.852  13.192 -0.0104  0.0955 -0.3428
 1339TIP3    H125508   3.212   5.869  13.223 -0.2562  0.1206  0.3599
 1339TIP3    H225509   3.130   5.768  13.147  0.7194  0.8971 -1.8072
 1340TIP3   OH225510   0.255   4.527   1.608  0.3893  0.5621  0.2087
 1340TIP3    H125511   0.159   4.530   1.602  0.4550 -0.3085 -2.0301
 1340TIP3    H225512   0.275   4.435   1.621  0.9524  0.7356  0.5987
 1341TIP3   OH225513   4.339   3.069   2.571  0.1149 -0.4467  0.0104
 1341TIP3    H125514   4.376   3.145   2.616 -0.8562  0.4525 -0.6599
 1341TIP3    H225515   4.252   3.058   2.611 -0.2854 -0.3642 -0.8193
 1342TIP3   OH225516   0.732   2.710  11.857 -0.6014  0.3135 -0.0425
 1342TIP3    H125517   0.671   2.735  11.926 -0.8260  0.3217 -0.2413
 1342TIP3    H225518   0.691   2.635  11.814 -1.4613  1.5447 -1.4749
 1343TIP3   OH225519   4.667   1.164  13.003 -0.0737  0.2427 -0.0384
 1343TIP3    H125520   4.600   1.215  12.957 -1.1630 -1.2360 -0.1305
 1343TIP3    H225521   4.684   1.215  13.083 -0.6689  1.0662 -0.4180
 1344TIP3   OH225522   2.649   4.662   1.746 -0.8344 -0.1025  0.3464
 1344TIP3    H125523   2.583   4.651   1.815 -1.3216  2.2059  0.3375
 1344TIP3    H225524   2.724   4.701   1.791 -1.3824  2.0207 -0.4451
 1345TIP3   OH225525   0.887   1.259   4.296 -0.1033  0.6003  0.3102
 1345TIP3    H125526   0.904   1.311   4.218 -0.9898  1.4480  0.6609
 1345TIP3    H225527   0.802   1.218   4.280  1.1699 -1.9032 -0.5478
 1346TIP3   OH225528   6.521   5.385  17.203 -0.5027 -0.3203  0.1687
 1346TIP3    H125529   6.534   5.416  17.113 -1.0378 -3.4804 -1.1185
 1346TIP3    H225530   6.591   5.427  17.253  0.5498  0.6260 -1.9639
 1347TIP3   OH225531   2.889   4.006   0.217 -0.3262  0.9408 -0.2062
 1347TIP3    H125532   2.798   4.008   0.189 -0.0229  2.1663 -1.2150
 1347TIP3    H225533   2.912   3.914   0.219 -0.6838  0.7190 -3.0858
 1348TIP3   OH225534   6.499   0.148  16.429 -0.5255  0.2496 -0.5625
 1348TIP3    H125535   6.564   0.184  16.489 -1.2844  0.2865  0.2632
 1348TIP3    H225536   6.545   0.141  16.345  0.3155  0.9607 -0.1784
 1349TIP3   OH225537   2.338   0.645   0.473  0.2020 -0.1621  0.0913
 1349TIP3    H125538   2.381   0.675   0.393  0.3033 -0.4038  0.0541
 1349TIP3    H225539   2.409   0.632   0.535  0.2949 -1.5031 -0.2724
 1350TIP3   OH225540   5.115   5.399   5.200  0.2429  0.4077 -0.2477
 1350TIP3    H125541   5.192   5.455   5.203  0.6711 -0.0415 -1.8606
 1350TIP3    H225542   5.056   5.435   5.266  1.5396  1.1720  0.5312
 1351TIP3   OH225543   2.434   3.542   5.076  0.4933 -0.1734  0.2023
 1351TIP3    H125544   2.487   3.498   5.142  1.0174  0.2202  0.0409
 1351TIP3    H225545   2.377   3.601   5.125 -0.2017 -0.9883  0.4233
 1352TIP3   OH225546   1.644   3.065  15.575 -0.5884  0.2449 -0.4145
 1352TIP3    H125547   1.723   3.032  15.533 -0.4309  1.2561 -0.9394
 1352TIP3    H225548   1.669   3.081  15.666 -0.3713 -0.0396 -0.4236
 1353TIP3   OH225549   5.639   5.996   4.059  0.0454 -0.5443  0.1070
 1353TIP3    H125550   5.662   6.059   4.126  2.4757 -0.3954 -0.7625
 1353TIP3    H225551   5.721   5.979   4.012 -1.1223 -2.1702 -1.5234
 1354TIP3   OH225552   2.099   2.634   0.847 -0.2881 -0.5506 -0.5796
 1354TIP3    H125553   2.088   2.549   0.805  0.6175 -1.1787  0.4147
 1354TIP3    H225554   2.093   2.616   0.940  0.5043  0.3687 -0.3278
 1355TIP3   OH225555   2.040   0.049  11.265 -0.1734  0.3840  0.4712
 1355TIP3    H125556   2.071   0.132  11.228  1.1403  0.3642  1.4229
 1355TIP3    H225557   1.948   0.043  11.239  0.1973  1.2343 -1.1780
 1356TIP3   OH225558   1.810   1.917   0.490  0.4258  0.1178  0.1960
 1356TIP3    H125559   1.714   1.922   0.495  0.5107  0.8374  1.4781
 1356TIP3    H225560   1.827   1.826   0.467 -0.5660 -0.0947  0.2293
 1357TIP3   OH225561   2.150   1.938   5.100 -0.2275 -0.0464 -0.4351
 1357TIP3    H125562   2.183   1.890   5.024 -0.3281  0.6914 -0.9480
 1357TIP3    H225563   2.163   1.878   5.173 -0.7395 -1.0289 -1.1283
 1358TIP3   OH225564   1.682   4.409  12.388 -0.1042  0.1090  0.6443
 1358TIP3    H125565   1.766   4.418  12.344  0.1961 -0.1150  1.1657
 1358TIP3    H225566   1.618   4.404  12.317  0.3895 -0.3888  0.2238
 1359TIP3   OH225567   0.188   1.753   4.305 -0.0729  0.5117  0.8938
 1359TIP3    H125568   0.187   1.818   4.234  0.7707 -0.6192 -0.1918
 1359TIP3    H225569   0.100   1.757   4.341 -1.0061  0.1351 -1.1745
 1360TIP3   OH225570   1.723   4.279   3.036 -0.2111  0.2940  0.5255
 1360TIP3    H125571   1.754   4.209   3.094 -1.2745 -0.6399  0.0038
 1360TIP3    H225572   1.727   4.358   3.090  3.1758  0.3051  0.4270
 1361TIP3   OH225573   2.039   3.883   4.291  0.0400 -0.5234  0.0616
 1361TIP3    H125574   2.091   3.853   4.216 -0.9639 -1.6017 -0.2219
 1361TIP3    H225575   2.001   3.966   4.261  2.3481  0.8432  0.6371
 1362TIP3   OH225576   2.130   4.467   5.718  0.2693 -0.3505  0.8346
 1362TIP3    H125577   2.162   4.519   5.792  0.6875 -2.2372  2.0452
 1362TIP3    H225578   2.210   4.441   5.670  0.1871 -1.0044  1.0400
 1363TIP3   OH225579   3.662   1.845  16.724 -0.2645  0.2046 -0.3388
 1363TIP3    H125580   3.609   1.874  16.649 -0.7536 -0.1968 -0.1552
 1363TIP3    H225581   3.737   1.904  16.725 -0.7093  0.7831 -0.6102
 1364TIP3   OH225582   1.517   3.109  16.996  0.7407 -0.9344 -0.1714
 1364TIP3    H125583   1.524   3.060  17.078  0.6080  0.2767  0.5921
 1364TIP3    H225584   1.604   3.103  16.956  1.0713 -0.7708  0.5205
 1365TIP3   OH225585   2.710   5.633  12.388 -0.0531  0.1605  0.4539
 1365TIP3    H125586   2.633   5.659  12.438 -0.6074  0.6216 -0.6302
 1365TIP3    H225587   2.762   5.713  12.380 -0.2544  0.2342 -0.1977
 1366TIP3   OH225588   2.454   6.618  14.973  0.2604  0.1079 -0.4633
 1366TIP3    H125589   2.445   6.712  14.987 -0.6577  0.1631 -1.3203
 1366TIP3    H225590   2.548   6.605  14.956  0.8245  0.5041  1.9535
 1367TIP3   OH225591   5.447   6.702   1.115  0.1886 -0.5670 -0.3514
 1367TIP3    H125592   5.462   6.662   1.201 -1.0146 -0.3725 -0.0318
 1367TIP3    H225593   5.353   6.721   1.114  0.7072  2.3189 -0.4571
 1368TIP3   OH225594   2.493   0.645  11.494 -0.1239  0.4586  0.6952
 1368TIP3    H125595   2.557   0.707  11.459  0.5441 -0.8387 -0.4914
 1368TIP3    H225596   2.434   0.627  11.421 -1.7251  1.4121  1.6963
 1369TIP3   OH225597   5.020   4.502  15.984  0.3884  0.5203 -0.2997
 1369TIP3    H125598   5.079   4.577  15.986 -0.0525  0.8869 -0.6327
 1369TIP3    H225599   5.070   4.432  15.943  0.4445  0.9611 -1.0019
 1370TIP3   OH225600   2.011   3.722  14.188 -0.4128  0.3070 -0.0231
 1370TIP3    H125601   1.943   3.788  14.196  0.3890  0.9583  2.3348
 1370TIP3    H225602   1.967   3.647  14.148 -2.6464  0.5988  1.6728
 1371TIP3   OH225603   0.838   4.393   4.022 -0.3575  0.3047  0.2356
 1371TIP3    H125604   0.876   4.425   4.104 -0.7933 -1.1191  1.0246
 1371TIP3    H225605   0.807   4.305   4.042  1.7680 -1.1200 -2.1010
 1372TIP3   OH225606   0.830   1.188  16.725 -0.2982 -0.5738 -0.4600
 1372TIP3    H125607   0.837   1.093  16.722  0.5604 -0.5204 -0.3259
 1372TIP3    H225608   0.809   1.208  16.817  1.5996 -0.5209 -0.0111
 1373TIP3   OH225609   0.419   2.871   4.609  0.1987  0.2229  0.1987
 1373TIP3    H125610   0.341   2.887   4.662  0.1615 -0.1931  0.2784
 1373TIP3    H225611   0.466   2.954   4.608  0.0795  0.3009  0.6916
 1374TIP3   OH225612   6.257   2.180   5.876 -0.1016 -0.0501 -0.0090
 1374TIP3    H125613   6.334   2.124   5.882  0.7629  1.0680 -0.2538
 1374TIP3    H225614   6.278   2.255   5.932 -1.2153  0.0571  0.2925
 1375TIP3   OH225615   0.012   5.366   5.045 -0.4526  0.2966  0.3968
 1375TIP3    H125616  -0.039   5.347   5.123 -2.4591  0.6541 -0.7670
 1375TIP3    H225617  -0.026   5.447   5.010  1.2796  0.8820 -0.2539
 1376TIP3   OH225618   6.797   5.135   0.700  0.3088  0.3342  0.6321
 1376TIP3    H125619   6.885   5.173   0.691 -0.3064  1.3371 -1.8996
 1376TIP3    H225620   6.769   5.117   0.611 -1.2067 -2.1143  1.5093
 1377TIP3   OH225621   5.554   4.041  13.456 -0.5957  0.7012 -0.2734
 1377TIP3    H125622   5.648   4.030  13.468 -0.1809  3.3432 -0.3716
 1377TIP3    H225623   5.541   4.026  13.362 -0.7907 -2.2637  0.1487
 1378TIP3   OH225624   4.373   4.056  14.669  0.0406 -0.5513 -0.3352
 1378TIP3    H125625   4.432   4.083  14.598  3.5332 -0.5192  2.3087
 1378TIP3    H225626   4.300   4.117  14.664  1.4907  1.1683 -2.2781
 1379TIP3   OH225627   0.734   3.994   0.999 -0.3450  0.2991 -0.1043
 1379TIP3    H125628   0.769   4.082   0.985 -1.2795  0.4696 -1.4569
 1379TIP3    H225629   0.773   3.941   0.929 -1.2305  0.0552 -0.4198
 1380TIP3   OH225630   3.101   3.921   6.254  0.5422 -0.4617  0.2645
 1380TIP3    H125631   3.066   3.968   6.330 -0.7359  0.2332 -0.6894
 1380TIP3    H225632   3.090   3.829   6.276  0.4599 -0.2783  1.0416
 1381TIP3   OH225633   4.701   4.988  17.008  0.5299  0.5518  0.8055
 1381TIP3    H125634   4.795   4.999  17.001  0.5606 -0.2152 -0.1456
 1381TIP3    H225635   4.682   4.906  16.962 -0.3606 -0.3798  2.7491
 1382TIP3   OH225636   0.405   5.719  11.319 -0.1233 -0.3952 -0.0551
 1382TIP3    H125637   0.447   5.805  11.327  1.4887 -0.9748 -1.7487
 1382TIP3    H225638   0.385   5.710  11.226 -0.2694 -1.8679  0.0942
 1383TIP3   OH225639   1.222   4.922  15.893  0.7196 -0.2911  0.4369
 1383TIP3    H125640   1.311   4.894  15.915  0.5816 -1.3333 -0.3108
 1383TIP3    H225641   1.220   5.014  15.920  1.9685 -0.2932  0.6230
 1384TIP3   OH225642   4.662   2.310   5.345 -0.0360  0.2914  0.2192
 1384TIP3    H125643   4.577   2.295   5.387 -0.2251  0.3089 -0.1456
 1384TIP3    H225644   4.651   2.394   5.300  0.2021  0.3326  0.2405
 1385TIP3   OH225645   4.816   4.808   4.040 -0.4402  0.0194 -0.2696
 1385TIP3    H125646   4.872   4.821   3.964  1.0145  1.2672  0.9344
 1385TIP3    H225647   4.851   4.730   4.083 -1.7793 -1.1778 -1.2638
 1386TIP3   OH225648   1.644   5.777   1.932  0.2113  0.1200  0.4130
 1386TIP3    H125649   1.621   5.870   1.939  1.2194  0.4405 -0.3188
 1386TIP3    H225650   1.693   5.759   2.012 -0.0057  0.2065  0.5669
 1387TIP3   OH225651   4.072   4.520  13.979 -0.6290  0.6291 -0.6414
 1387TIP3    H125652   4.074   4.559  13.892  0.7605  1.6841 -0.1664
 1387TIP3    H225653   4.114   4.435  13.968  2.3389  1.9526 -0.5138
 1388TIP3   OH225654   0.688   3.301  14.165 -0.0763  0.0987 -0.4035
 1388TIP3    H125655   0.593   3.289  14.156 -0.0110  0.1973 -1.2986
 1388TIP3    H225656   0.724   3.213  14.151 -0.0226  0.0958 -0.2455
 1389TIP3   OH225657   0.589   0.080  14.492 -0.1314  0.5657  0.2551
 1389TIP3    H125658   0.531   0.019  14.446  0.3398 -0.3008  0.7773
 1389TIP3    H225659   0.573   0.063  14.585 -0.8585  2.0888  0.4490
 1390TIP3   OH225660   6.255   4.484   5.332  0.0619  0.2447 -0.1501
 1390TIP3    H125661   6.345   4.505   5.306  0.1952  0.8657  0.7703
 1390TIP3    H225662   6.263   4.457   5.423 -0.4187 -1.7168 -0.6577
 1391TIP3   OH225663   1.308   5.257   0.601  0.0400  0.4105 -0.2489
 1391TIP3    H125664   1.231   5.206   0.627 -0.3055  1.3331  0.6088
 1391TIP3    H225665   1.276   5.317   0.534 -0.3214  1.6514  0.9769
 1392TIP3   OH225666   3.231   4.865  16.956 -0.0740  0.3999  0.2666
 1392TIP3    H125667   3.220   4.959  16.967 -1.2959  0.2046  0.9832
 1392TIP3    H225668   3.142   4.831  16.949  0.1846 -0.9462  2.4702
 1393TIP3   OH225669   3.963   4.729  17.062 -0.0965 -0.2559  0.6414
 1393TIP3    H125670   3.896   4.796  17.046 -0.0595 -0.1450  0.9516
 1393TIP3    H225671   4.038   4.777  17.098 -0.4556 -0.5938  1.8990
 1394TIP3   OH225672   1.780   3.940  14.973  0.1795 -0.3752  0.1308
 1394TIP3    H125673   1.773   3.846  14.955  0.4600 -0.0323 -2.0611
 1394TIP3    H225674   1.802   3.979  14.888  0.8739  1.5952  1.1606
 1395TIP3   OH225675   5.735   6.598   1.350 -0.2142  0.0581  0.0443
 1395TIP3    H125676   5.739   6.687   1.314  1.5731 -0.0613 -0.1244
 1395TIP3    H225677   5.686   6.549   1.284 -0.5749  0.7439 -0.2166
 1396TIP3   OH225678   0.544   5.805  17.220 -0.2763 -0.1262  0.0176
 1396TIP3    H125679   0.525   5.844  17.135 -0.9385  2.2539  1.1782
 1396TIP3    H225680   0.468   5.751  17.240  0.0068 -0.9258 -0.9936
 1397TIP3   OH225681   4.351   6.636  16.463  0.1940  0.5798  0.3540
 1397TIP3    H125682   4.347   6.709  16.401  0.0221  0.4235  0.1818
 1397TIP3    H225683   4.378   6.676  16.546  0.4919  0.7798  0.1613
 1398TIP3   OH225684   0.376   1.083   0.782  0.1089  0.2173  0.3155
 1398TIP3    H125685   0.451   1.079   0.841  0.1393  0.3942  0.2907
 1398TIP3    H225686   0.302   1.101   0.840  0.3496  1.9107  0.1573
 1399TIP3   OH225687   5.950   5.722  15.314  0.2384 -0.5398  0.8853
 1399TIP3    H125688   5.922   5.698  15.403  1.5532 -1.3518  1.1183
 1399TIP3    H225689   5.972   5.638  15.273  0.4690 -0.0939  0.0813
 1400TIP3   OH225690   6.320   1.712   1.447  0.2263  0.1975  0.0040
 1400TIP3    H125691   6.265   1.659   1.505 -0.1111 -1.9971 -2.1341
 1400TIP3    H225692   6.258   1.761   1.393  0.2884 -1.2365 -1.4753
 1401TIP3   OH225693   2.535   0.329   0.343 -0.2235 -0.1974 -0.0704
 1401TIP3    H125694   2.582   0.293   0.268 -1.0597 -0.6025 -0.4026
 1401TIP3    H225695   2.454   0.364   0.307  0.0252  0.9482  0.4313
 1402TIP3   OH225696   5.618   0.636  15.541  0.3342  0.2888  0.3430
 1402TIP3    H125697   5.609   0.731  15.551 -2.9223  0.2268 -0.8932
 1402TIP3    H225698   5.588   0.600  15.624 -0.5280  0.3030  0.0391
 1403TIP3   OH225699   6.365   3.920  16.156  0.1088 -0.1607 -0.2605
 1403TIP3    H125700   6.361   4.010  16.123  0.2154 -0.0548  0.0041
 1403TIP3    H225701   6.291   3.913  16.216 -0.0833 -0.3504 -0.5200
 1404TIP3   OH225702   2.443   6.051  11.636  0.4850 -0.5277  0.0305
 1404TIP3    H125703   2.459   6.112  11.709  2.0352 -0.8413 -0.0070
 1404TIP3    H225704   2.435   5.965  11.678 -0.1900 -0.5077 -0.0462
 1405TIP3   OH225705   2.786   1.790  12.456 -0.0692  0.1028 -0.3371
 1405TIP3    H125706   2.837   1.741  12.392  3.9598  3.3453  0.0107
 1405TIP3    H225707   2.851   1.842  12.505 -3.3255  1.1819  3.4068
 1406TIP3   OH225708   3.233   0.290   4.413  0.5116 -0.1740  0.1999
 1406TIP3    H125709   3.214   0.217   4.472 -0.8499 -0.4662 -0.5492
 1406TIP3    H225710   3.160   0.291   4.351  2.4489 -0.6336 -2.2716
 1407TIP3   OH225711   2.571   2.091  15.856 -0.2310 -0.0058  0.3107
 1407TIP3    H125712   2.578   2.180  15.821 -0.2450  0.8866  2.4155
 1407TIP3    H225713   2.482   2.086  15.892  0.3476 -0.1982  1.7984
 1408TIP3   OH225714   5.419   6.481   2.129 -0.3258 -0.2713  0.3303
 1408TIP3    H125715   5.394   6.552   2.070  2.9200  0.8944  0.1651
 1408TIP3    H225716   5.474   6.522   2.195 -2.0513 -1.9312  2.9953
 1409TIP3   OH225717   1.513   3.337  14.669  0.5022 -0.2926  0.0361
 1409TIP3    H125718   1.476   3.419  14.703  4.7920  2.0193 -0.2019
 1409TIP3    H225719   1.483   3.334  14.578  0.4619  1.1609 -0.0207
 1410TIP3   OH225720   0.581   4.553  12.516 -0.6544 -1.1097  0.1954
 1410TIP3    H125721   0.615   4.636  12.551 -1.3299 -0.3239 -0.9642
 1410TIP3    H225722   0.545   4.575  12.431  0.9140 -2.9808 -1.0369
 1411TIP3   OH225723   1.632   4.913  16.750 -0.4957 -0.0594  0.5607
 1411TIP3    H125724   1.663   4.917  16.659 -1.5069 -2.5809  0.0242
 1411TIP3    H225725   1.540   4.888  16.742 -1.4950  2.6269  2.2461
 1412TIP3   OH225726   4.497   5.158  13.505 -0.5932  0.0340 -0.1026
 1412TIP3    H125727   4.425   5.172  13.568 -0.9135 -0.1791 -0.4157
 1412TIP3    H225728   4.495   5.235  13.449 -0.4168  0.1450  0.0445
 1413TIP3   OH225729   5.985   5.463  15.180  0.3698  0.4721  0.1963
 1413TIP3    H125730   6.035   5.401  15.234  1.6464 -0.7220 -2.1814
 1413TIP3    H225731   5.900   5.420  15.167 -0.1170  0.9621  1.4726
 1414TIP3   OH225732   0.803   4.862   1.823  0.5959 -0.1223 -0.0753
 1414TIP3    H125733   0.887   4.904   1.804  1.6688 -1.6462  0.9480
 1414TIP3    H225734   0.826   4.794   1.886 -1.5680 -0.0442  0.8587
 1415TIP3   OH225735   4.012   6.323  11.483 -0.0987  0.5189  0.2025
 1415TIP3    H125736   3.944   6.325  11.415 -0.1515  3.0012  0.2436
 1415TIP3    H225737   4.089   6.360  11.441  1.0571 -1.4864  0.4201
 1416TIP3   OH225738   2.835   0.740  10.397 -0.3743  0.0143  0.0630
 1416TIP3    H125739   2.880   0.801  10.456  0.9360  0.3411 -1.2152
 1416TIP3    H225740   2.749   0.728  10.436  0.1203  0.9492  1.5311
 1417TIP3   OH225741   4.574   0.878  12.581  0.3726 -0.4438  0.9060
 1417TIP3    H125742   4.501   0.860  12.640  2.0229 -0.0193  3.2079
 1417TIP3    H225743   4.652   0.851  12.630  1.8154 -0.5224 -1.2924
 1418TIP3   OH225744   2.266   3.675  10.364 -0.1357 -0.3399 -0.0359
 1418TIP3    H125745   2.213   3.597  10.381  1.3356 -1.2175  0.8232
 1418TIP3    H225746   2.344   3.663  10.419  0.5666  1.2902 -0.6066
 1419TIP3   OH225747   5.883   2.543  13.436 -0.1937  0.2407 -0.1089
 1419TIP3    H125748   5.805   2.522  13.486 -0.1774  0.7759  0.1493
 1419TIP3    H225749   5.945   2.578  13.500 -0.3548  1.4035 -0.5638
 1420TIP3   OH225750   0.235   6.562   0.824  0.6862  0.3928 -0.1784
 1420TIP3    H125751   0.182   6.639   0.805  1.0383  0.7505  0.2563
 1420TIP3    H225752   0.221   6.504   0.750 -0.1489  0.5697 -0.1670
 1421TIP3   OH225753   4.691   0.289   2.837 -0.0717  0.7075 -0.2776
 1421TIP3    H125754   4.775   0.309   2.795 -1.1074  1.7087 -1.9820
 1421TIP3    H225755   4.640   0.244   2.769  0.0024 -2.4915  1.5954
 1422TIP3   OH225756   4.311   5.759   0.467 -0.4866 -0.3045 -0.0793
 1422TIP3    H125757   4.227   5.800   0.449 -1.4322 -2.0353  0.1918
 1422TIP3    H225758   4.293   5.665   0.467  1.4749 -0.7376 -0.1622
 1423TIP3   OH225759   2.623   4.416  10.671  0.0438 -0.0082 -0.0297
 1423TIP3    H125760   2.571   4.336  10.658  1.5339 -1.4195  2.1149
 1423TIP3    H225761   2.576   4.464  10.740  0.6989 -0.5244  0.7973
 1424TIP3   OH225762   0.353   0.263  16.415  0.8006 -0.0519 -0.1887
 1424TIP3    H125763   0.280   0.252  16.354 -0.2524 -1.3372  1.2456
 1424TIP3    H225764   0.428   0.227  16.368 -0.0032 -1.0790 -0.7190
 1425TIP3   OH225765   5.717   4.113   1.290  0.0116 -0.6650  0.2270
 1425TIP3    H125766   5.707   4.113   1.195  0.1445 -0.0997  0.2081
 1425TIP3    H225767   5.810   4.129   1.305 -0.4302  2.4010  0.4444
 1426TIP3   OH225768   4.529   1.777  11.243  0.0497  0.4516  0.0957
 1426TIP3    H125769   4.498   1.859  11.206  1.0306  1.3247  1.1396
 1426TIP3    H225770   4.564   1.801  11.329 -0.5670 -1.2252  0.8556
 1427TIP3   OH225771   3.970   2.038  16.208  0.2405  0.6987 -0.1739
 1427TIP3    H125772   3.889   2.088  16.215  0.1275  0.6313 -1.0159
 1427TIP3    H225773   4.006   2.062  16.123  0.2715 -0.5326 -0.5252
 1428TIP3   OH225774   3.727   5.940  13.651  0.0671 -0.0844  0.2667
 1428TIP3    H125775   3.754   5.967  13.739  0.1084  2.8265 -0.5300
 1428TIP3    H225776   3.808   5.936  13.600 -0.2601  3.6494 -0.8626
 1429TIP3   OH225777   0.777   3.497   1.383 -0.2925  0.2295  0.8125
 1429TIP3    H125778   0.859   3.547   1.376  1.0949 -1.7928  1.5951
 1429TIP3    H225779   0.758   3.469   1.294  0.5919 -0.3354  0.7912
 1430TIP3   OH225780   2.741   1.373   0.914 -0.4105  0.1520  0.3516
 1430TIP3    H125781   2.668   1.346   0.859  0.9031 -0.0518 -1.3778
 1430TIP3    H225782   2.747   1.468   0.902 -1.8796  0.5711  2.4529
 1431TIP3   OH225783   0.166   3.061  13.077 -1.0921  0.2506 -0.3951
 1431TIP3    H125784   0.096   3.080  13.014  0.2347  3.1261 -1.1393
 1431TIP3    H225785   0.157   3.128  13.144  0.7679  0.4976 -0.3573
 1432TIP3   OH225786   1.055   6.707  16.001  0.1358  0.0942 -0.1814
 1432TIP3    H125787   1.111   6.784  16.011  0.1238  0.3103 -1.6506
 1432TIP3    H225788   1.101   6.638  16.050 -0.4970  1.2873  2.2982
 1433TIP3   OH225789   4.191   4.259  14.640  0.1321 -0.5897 -0.6324
 1433TIP3    H125790   4.243   4.292  14.714 -1.5729 -0.8949  0.7804
 1433TIP3    H225791   4.152   4.338  14.601 -0.2318 -0.5339 -0.1742
 1434TIP3   OH225792   0.876   0.656   2.385  0.1393  0.0331 -0.0280
 1434TIP3    H125793   0.940   0.587   2.371 -0.8096 -0.8433 -0.1696
 1434TIP3    H225794   0.893   0.688   2.473 -1.4244 -2.6264  1.3782
 1435TIP3   OH225795   1.208   4.397   0.945 -0.2645  0.2157  0.0664
 1435TIP3    H125796   1.288   4.362   0.905 -0.2652  0.2255  0.0563
 1435TIP3    H225797   1.211   4.365   1.035 -0.2269  0.2531  0.0786
 1436TIP3   OH225798   5.043   2.603   4.683 -0.2815 -0.4166 -0.4200
 1436TIP3    H125799   5.036   2.683   4.736 -1.4362 -0.0226 -1.1393
 1436TIP3    H225800   4.996   2.537   4.734  0.1071 -0.4748 -0.1353
 1437TIP3   OH225801   1.165   4.916   3.342 -0.0060  0.2237 -0.5690
 1437TIP3    H125802   1.183   4.999   3.385  1.5554 -1.2139  1.7876
 1437TIP3    H225803   1.079   4.890   3.373  0.3906  0.0086  0.3888
 1438TIP3   OH225804   5.885   0.484   3.637 -0.0086 -0.5716 -0.4624
 1438TIP3    H125805   5.827   0.560   3.644 -1.5214 -1.6248 -0.8664
 1438TIP3    H225806   5.826   0.411   3.617  1.3601 -1.8994  0.1321
 1439TIP3   OH225807   4.011   4.183   1.294 -0.0053 -0.3227 -1.0912
 1439TIP3    H125808   3.958   4.104   1.308 -1.4125  0.6523 -0.6180
 1439TIP3    H225809   3.956   4.238   1.237  0.0661  1.1026  0.1527
 1440TIP3   OH225810   0.257   5.497  12.768  0.2530 -0.1956  0.5862
 1440TIP3    H125811   0.316   5.553  12.717 -1.6098  0.6210 -0.7582
 1440TIP3    H225812   0.265   5.411  12.727  0.4215 -0.0630  0.3374
 1441TIP3   OH225813   2.000   2.408  16.687 -0.1942  0.7953 -0.2406
 1441TIP3    H125814   2.025   2.485  16.737  1.5343 -0.4717  0.9616
 1441TIP3    H225815   2.082   2.372  16.655 -0.4352 -2.4587  2.2325
 1442TIP3   OH225816   6.047   2.686   1.040  0.3286 -0.5965 -0.1534
 1442TIP3    H125817   5.985   2.663   1.109  0.2296 -2.0189 -0.6911
 1442TIP3    H225818   6.009   2.763   0.998 -0.8221 -1.1435 -0.1468
 1443TIP3   OH225819   5.252   5.520   6.196  0.0634  0.2536  0.0720
 1443TIP3    H125820   5.330   5.517   6.253  0.4318  1.2523 -0.3743
 1443TIP3    H225821   5.179   5.525   6.257  0.5057  2.4471  0.4913
 1444TIP3   OH225822   1.590   3.144   6.163  0.3863 -0.4281  0.1427
 1444TIP3    H125823   1.644   3.194   6.223  1.0926  0.0004 -0.8246
 1444TIP3    H225824   1.614   3.176   6.076  0.2154 -1.8228 -0.4490
 1445TIP3   OH225825   3.029   3.548  16.922 -0.4509  0.4211  0.3612
 1445TIP3    H125826   3.036   3.610  16.994 -1.4472  0.6604  0.2576
 1445TIP3    H225827   3.011   3.602  16.845  1.9389  0.3156 -0.3640
 1446TIP3   OH225828   3.965   2.800  15.952  0.0308 -0.0337  0.4447
 1446TIP3    H125829   3.895   2.791  15.888 -0.1664 -1.1421  0.8075
 1446TIP3    H225830   3.997   2.890  15.940 -0.8737  0.1978 -0.3008
 1447TIP3   OH225831   3.464   1.858   1.636  0.0275 -0.2147 -0.1438
 1447TIP3    H125832   3.512   1.860   1.554 -0.0155 -0.7765 -0.1854
 1447TIP3    H225833   3.390   1.918   1.622  0.1131 -0.1815 -0.4546
 1448TIP3   OH225834   5.407   2.713   0.688  0.2060 -0.0808  0.3899
 1448TIP3    H125835   5.410   2.807   0.670  1.0633 -0.1514  0.0866
 1448TIP3    H225836   5.493   2.681   0.660  0.0824 -0.8825  0.8941
 1449TIP3   OH225837   0.513   3.347  13.732 -0.0556  0.1045 -0.4451
 1449TIP3    H125838   0.479   3.288  13.665  1.1463 -1.4743  0.2333
 1449TIP3    H225839   0.608   3.350  13.715 -0.1437  2.3690 -0.8083
 1450TIP3   OH225840   5.172   1.852   3.953 -0.5656 -0.0334  0.0917
 1450TIP3    H125841   5.143   1.917   3.889 -1.7208 -1.0877 -0.4954
 1450TIP3    H225842   5.237   1.800   3.906 -0.0583  0.3364  0.3790
 1451TIP3   OH225843   0.162   2.870   0.541  0.8421 -0.7099 -0.2468
 1451TIP3    H125844   0.192   2.824   0.620  3.2215 -0.6054 -1.0175
 1451TIP3    H225845   0.163   2.804   0.472 -0.5562 -0.6327 -0.3834
 1452TIP3   OH225846   2.849   0.292   0.434  0.4479 -0.0648  0.3656
 1452TIP3    H125847   2.786   0.253   0.373  0.4390  0.7318 -0.1505
 1452TIP3    H225848   2.933   0.288   0.389  0.4330  0.5764  0.2608
 1453TIP3   OH225849   2.253   0.861  13.094  0.3253 -0.3069 -0.5894
 1453TIP3    H125850   2.304   0.826  13.167  0.2899 -1.1216 -0.9458
 1453TIP3    H225851   2.166   0.877  13.130  0.6309  0.4076 -0.1605
 1454TIP3   OH225852   6.445   3.786  11.850 -0.2312 -0.2929 -0.0222
 1454TIP3    H125853   6.442   3.703  11.802 -2.8734 -0.4254  0.2036
 1454TIP3    H225854   6.416   3.763  11.939 -1.5660  0.9123 -0.1036
 1455TIP3   OH225855   3.550   0.533  16.286 -0.3253 -0.2799  0.3459
 1455TIP3    H125856   3.562   0.451  16.237 -0.0826  0.9461 -1.7322
 1455TIP3    H225857   3.633   0.547  16.331  1.5710  1.2964 -3.2826
 1456TIP3   OH225858   4.261   3.996  13.494  0.5015 -0.9407  0.2272
 1456TIP3    H125859   4.316   3.931  13.450  3.4873  2.3868 -1.4939
 1456TIP3    H225860   4.212   4.037  13.423 -1.3295 -1.2101  1.2816
 1457TIP3   OH225861   1.066   3.561  13.912 -0.2207  0.2395  0.3450
 1457TIP3    H125862   1.059   3.600  13.825 -0.6706  0.7329  0.5944
 1457TIP3    H225863   1.028   3.473  13.902  2.2760 -0.8415 -0.6098
 1458TIP3   OH225864   1.740   2.395   2.630  0.4852  0.3590 -0.2488
 1458TIP3    H125865   1.771   2.330   2.568  0.9321 -0.5563  0.9071
 1458TIP3    H225866   1.651   2.366   2.653  0.0939  1.0188 -0.8794
 1459TIP3   OH225867   1.260   3.557  11.931  0.6090  0.0091  0.3202
 1459TIP3    H125868   1.323   3.506  11.879  1.6385  0.6809  0.8584
 1459TIP3    H225869   1.315   3.606  11.993 -0.5165  0.0136  1.3473
 1460TIP3   OH225870   1.843   4.761  15.670  0.9394 -0.3081 -0.0466
 1460TIP3    H125871   1.880   4.681  15.708  0.6874 -1.1403 -1.4722
 1460TIP3    H225872   1.757   4.769  15.710  0.9530 -0.7716  0.0845
 1461TIP3   OH225873   2.183   1.159  11.430  0.4620 -0.2252 -0.1540
 1461TIP3    H125874   2.141   1.137  11.513  2.1228 -1.7175  0.3775
 1461TIP3    H225875   2.147   1.244  11.406 -1.4709 -0.6188  1.1141
 1462TIP3   OH225876   2.934   1.827  16.050  0.4596  0.5407  0.2147
 1462TIP3    H125877   2.869   1.897  16.056  0.1677  0.2588  0.3846
 1462TIP3    H225878   2.996   1.846  16.120 -0.0566  0.1865  0.7689
 1463TIP3   OH225879   6.556   4.348  13.773 -0.0239 -0.0404 -0.7273
 1463TIP3    H125880   6.649   4.336  13.750 -0.0117 -0.7589 -0.3395
 1463TIP3    H225881   6.528   4.262  13.804  0.0301  0.8689  2.1448
 1464TIP3   OH225882   6.462   3.084   0.585 -0.1646  0.4891 -0.2185
 1464TIP3    H125883   6.404   3.010   0.568  0.0966  0.3003 -0.2897
 1464TIP3    H225884   6.430   3.153   0.527 -0.9067  0.6945  0.4290
 1465TIP3   OH225885   0.943   0.711  14.066  0.1548 -0.3169 -0.0754
 1465TIP3    H125886   0.871   0.662  14.105 -0.5549 -0.1007 -1.0713
 1465TIP3    H225887   1.019   0.655  14.078 -0.3981 -1.0790 -0.0393
 1466TIP3   OH225888   4.577   3.265  15.290 -0.0237 -0.3152  0.0345
 1466TIP3    H125889   4.599   3.259  15.383  1.5971  1.3129 -0.1748
 1466TIP3    H225890   4.657   3.236  15.245 -0.8773 -1.3350 -0.8650
 1467TIP3   OH225891   5.940   4.917  12.201  0.4362 -0.1445 -0.3385
 1467TIP3    H125892   5.928   4.958  12.115 -1.1269  2.3410  0.9610
 1467TIP3    H225893   5.946   4.990  12.262 -1.1243 -1.8083  1.9778
 1468TIP3   OH225894   1.735   5.686  17.110  0.4263 -0.1573  0.2057
 1468TIP3    H125895   1.723   5.649  17.198 -2.1537 -0.0495 -0.0386
 1468TIP3    H225896   1.736   5.609  17.052  0.7535 -0.1507  0.1994
 1469TIP3   OH225897   0.443   0.707  12.866  0.5281  0.4829  0.4789
 1469TIP3    H125898   0.512   0.765  12.833  0.0633  0.8382  0.1209
 1469TIP3    H225899   0.419   0.744  12.951  0.2430  0.8072  0.2575
 1470TIP3   OH225900   0.341   4.633  11.837 -0.2204  1.3989  0.6661
 1470TIP3    H125901   0.399   4.584  11.896 -0.3098  0.6799  0.1801
 1470TIP3    H225902   0.372   4.611  11.749 -1.5028  0.6090  0.3722
 1471TIP3   OH225903   5.212   6.457   3.980 -0.6995 -0.0473 -0.3803
 1471TIP3    H125904   5.293   6.496   3.949 -0.0404  0.1599  1.4445
 1471TIP3    H225905   5.182   6.402   3.908  1.2985 -0.4604 -0.9588
 1472TIP3   OH225906   2.006   2.611   2.749 -0.3037  0.0913  0.0422
 1472TIP3    H125907   2.009   2.705   2.729  1.4744 -0.4630 -3.0138
 1472TIP3    H225908   1.924   2.581   2.709  0.7585 -0.1332 -2.1174
 1473TIP3   OH225909   3.856   1.107  13.118  0.3820  0.4414  0.4013
 1473TIP3    H125910   3.888   1.169  13.052 -0.7028  0.6488  0.0434
 1473TIP3    H225911   3.934   1.059  13.146  1.0405  1.1243 -0.2132
 1474TIP3   OH225912   0.736   6.262  11.612 -0.1490 -0.0359 -0.2617
 1474TIP3    H125913   0.787   6.304  11.543  0.3632 -0.6360 -0.2619
 1474TIP3    H225914   0.802   6.223  11.670 -0.5734  0.3738  0.5088
 1475TIP3   OH225915   5.352   4.049  14.442 -0.0578 -0.0667  0.1581
 1475TIP3    H125916   5.383   3.959  14.454 -0.0654 -0.0437  0.3561
 1475TIP3    H225917   5.425   4.104  14.468  0.4305 -0.0072 -1.2550
 1476TIP3   OH225918   3.236   5.334  10.921 -0.0324 -0.0194  0.0800
 1476TIP3    H125919   3.197   5.254  10.887 -1.3643  1.4634 -2.1443
 1476TIP3    H225920   3.321   5.307  10.955 -0.6141 -2.4103 -0.1755
 1477TIP3   OH225921   6.707   2.760   0.032  0.4496  0.7138  0.1871
 1477TIP3    H125922   6.646   2.697   0.071 -1.0537  0.8659 -1.7618
 1477TIP3    H225923   6.651   2.830  -0.000  1.8411  1.7130 -0.1307
 1478TIP3   OH225924   0.892   4.270   3.348  0.1098  0.3649  0.5776
 1478TIP3    H125925   0.896   4.315   3.263  1.0297  0.9011  0.8843
 1478TIP3    H225926   0.861   4.337   3.409  0.0447  0.1524  0.7784
 1479TIP3   OH225927   1.287   4.438   5.650 -0.1913 -0.6446  0.5339
 1479TIP3    H125928   1.216   4.420   5.711  0.4728 -0.3902  1.4000
 1479TIP3    H225929   1.362   4.389   5.684  1.0529  1.9014  1.7228
 1480TIP3   OH225930   4.112   0.765  16.102 -0.2324  0.3183  0.0220
 1480TIP3    H125931   4.069   0.821  16.167  1.0305  1.6961 -0.2748
 1480TIP3    H225932   4.109   0.816  16.021  0.8180 -0.1077 -0.2956
 1481TIP3   OH225933   0.966   4.022   4.141 -0.5106  0.2481  0.0951
 1481TIP3    H125934   1.029   3.955   4.168 -0.3875 -1.2193 -3.2864
 1481TIP3    H225935   1.017   4.081   4.085 -1.2276  1.7243  0.9324
 1482TIP3   OH225936   1.578   6.520  14.556  0.6770 -0.1236 -0.6430
 1482TIP3    H125937   1.526   6.443  14.577 -2.1831  1.3311 -1.7732
 1482TIP3    H225938   1.604   6.556  14.641  2.6964 -2.6149 -0.1105
 1483TIP3   OH225939   1.785   6.273  12.376  0.1388 -0.7442  0.1079
 1483TIP3    H125940   1.735   6.198  12.345  0.3449 -0.5380 -0.7388
 1483TIP3    H225941   1.834   6.303  12.300 -0.3798  0.6121  0.2807
 1484TIP3   OH225942   5.507   2.190  11.269 -0.1015  0.0635  0.0283
 1484TIP3    H125943   5.489   2.280  11.243 -0.5297  0.2140  0.8169
 1484TIP3    H225944   5.574   2.160  11.208 -0.6545  0.5943 -0.8661
 1485TIP3   OH225945   3.084   2.520  15.953  0.4307  0.3953  0.7910
 1485TIP3    H125946   3.157   2.462  15.929 -0.0666 -1.3030  3.0072
 1485TIP3    H225947   3.124   2.606  15.964  1.3473  0.3715 -1.8172
 1486TIP3   OH225948   4.306   0.662   1.807  0.4443 -0.0841 -0.3952
 1486TIP3    H125949   4.315   0.742   1.859  1.2479  0.1587 -0.8936
 1486TIP3    H225950   4.393   0.623   1.807  0.4591 -0.0841 -1.5552
 1487TIP3   OH225951   5.325   5.170  17.063  0.6640  0.7187  0.5377
 1487TIP3    H125952   5.237   5.158  17.099 -0.0380  0.2552 -1.1865
 1487TIP3    H225953   5.326   5.260  17.032  0.1055  0.2208 -1.0483
 1488TIP3   OH225954   0.828   2.074   4.382  0.4446  0.1736 -0.5956
 1488TIP3    H125955   0.915   2.069   4.420  0.0724  1.4739  0.5218
 1488TIP3    H225956   0.828   2.157   4.334 -0.0063 -0.0687 -1.0216
 1489TIP3   OH225957   4.563   3.344   1.684  0.3151 -0.0062 -0.4053
 1489TIP3    H125958   4.496   3.300   1.737  0.1487  0.2681 -0.3847
 1489TIP3    H225959   4.561   3.300   1.600  1.0570 -0.9111  0.0233
 1490TIP3   OH225960   5.097   5.003   1.429 -0.0846 -0.8104  0.2686
 1490TIP3    H125961   5.057   4.993   1.516 -0.0479 -1.4654  0.2128
 1490TIP3    H225962   5.024   5.027   1.372 -0.4256 -2.0518  0.1556
 1491TIP3   OH225963   2.023   3.647   0.674 -0.4348 -0.6780  0.2949
 1491TIP3    H125964   2.009   3.683   0.762 -0.5693  1.2559 -0.4723
 1491TIP3    H225965   2.112   3.613   0.675 -0.5725 -1.0465  1.2746
 1492TIP3   OH225966   6.331   0.258   3.224 -0.9452 -0.1076  0.1565
 1492TIP3    H125967   6.321   0.169   3.190 -0.0729 -0.2363  0.2134
 1492TIP3    H225968   6.401   0.250   3.289 -0.6285  0.6871 -0.0817
 1493TIP3   OH225969   4.846   6.024   2.870 -0.5896  0.7389  0.6117
 1493TIP3    H125970   4.799   6.030   2.953 -0.2796  0.4100  0.8108
 1493TIP3    H225971   4.869   5.932   2.862 -0.0892  0.8755  0.4559
 1494TIP3   OH225972   5.474   4.766   3.694 -0.3751  0.7609 -0.5018
 1494TIP3    H125973   5.565   4.780   3.668  0.0213 -2.2429 -1.0810
 1494TIP3    H225974   5.432   4.730   3.616 -1.9210  1.4632 -0.0309
 1495TIP3   OH225975   4.190   4.516  12.447  0.0329 -0.0528 -0.1934
 1495TIP3    H125976   4.279   4.548  12.432  0.3861 -0.5716  0.7482
 1495TIP3    H225977   4.188   4.429  12.407 -0.5644  0.5925 -1.6639
 1496TIP3   OH225978   1.428   4.646  13.099 -0.2108  0.0243  1.0694
 1496TIP3    H125979   1.341   4.607  13.102 -0.9410  1.5379  0.3406
 1496TIP3    H225980   1.453   4.641  13.007 -0.7648  2.1609  0.7663
 1497TIP3   OH225981   0.172   3.395   0.147  0.3902  0.4316  0.1142
 1497TIP3    H125982   0.219   3.462   0.097  0.4602  0.1835 -0.1522
 1497TIP3    H225983   0.164   3.321   0.087 -1.6541  0.9900 -0.3504
 1498TIP3   OH225984   0.618   0.064  10.316 -0.2342 -0.6078  0.4142
 1498TIP3    H125985   0.570  -0.018  10.313 -1.0851 -0.1631  1.3534
 1498TIP3    H225986   0.695   0.046  10.370  0.5546 -1.2537 -0.8839
 1499TIP3   OH225987   1.950   1.779   3.605  0.6286  0.0943 -0.1249
 1499TIP3    H125988   1.918   1.735   3.526 -1.3054  0.2164  0.5308
 1499TIP3    H225989   1.930   1.871   3.591  1.2791  0.2671  0.0586
 1500TIP3   OH225990   2.026   0.804  14.728 -0.6297 -0.7349  0.4677
 1500TIP3    H125991   1.975   0.723  14.726 -2.4321  0.3063 -2.2481
 1500TIP3    H225992   1.967   0.867  14.770 -0.2869 -0.2467  0.2164
 1501TIP3   OH225993   3.816   0.446  11.912 -0.0067  0.0434  0.2173
 1501TIP3    H125994   3.871   0.368  11.901  2.3435  1.6462 -0.0951
 1501TIP3    H225995   3.800   0.450  12.006  0.2172 -0.6025  0.2885
 1502TIP3   OH225996   0.479   5.581   3.658 -0.1715  0.3112 -0.4192
 1502TIP3    H125997   0.427   5.661   3.648  1.3258  1.0435 -3.6873
 1502TIP3    H225998   0.567   5.611   3.679  0.2965 -0.4569 -1.1751
 1503TIP3   OH225999   6.216   1.236   3.184 -0.0106 -0.1722  0.0273
 1503TIP3    H126000   6.140   1.279   3.146 -1.0298 -2.0698 -0.2288
 1503TIP3    H226001   6.200   1.234   3.278 -2.3974 -4.0718 -0.2564
 1504TIP3   OH226002   2.311   1.100  12.654  0.1306 -0.3352 -0.1064
 1504TIP3    H126003   2.348   1.074  12.570 -0.3685 -1.3587 -0.0304
 1504TIP3    H226004   2.216   1.100  12.640  0.0536 -0.1874  0.3647
 1505TIP3   OH226005   1.849   6.274  15.653 -0.0491  0.5290 -0.3299
 1505TIP3    H126006   1.924   6.323  15.620  1.0545  0.9398  2.5078
 1505TIP3    H226007   1.788   6.341  15.683 -1.0168  0.1724 -1.4210
 1506TIP3   OH226008   3.443   5.473  15.204 -0.6335  0.2702  0.2037
 1506TIP3    H126009   3.438   5.504  15.295 -0.1246  0.7118  0.0809
 1506TIP3    H226010   3.440   5.552  15.151  2.4104  0.3146 -0.0646
 1507TIP3   OH226011   3.172   2.655   1.585 -0.4870  0.6249 -0.1921
 1507TIP3    H126012   3.207   2.568   1.568 -1.2300  0.2629  0.0625
 1507TIP3    H226013   3.156   2.692   1.498 -1.9229 -0.2405 -0.3325
 1508TIP3   OH226014   4.883   6.231  13.848  0.2177  0.3877 -0.1857
 1508TIP3    H126015   4.923   6.288  13.914  1.5592 -1.5097  0.6928
 1508TIP3    H226016   4.790   6.254  13.852  0.6906  2.5347  0.0830
 1509TIP3   OH226017   2.075   4.298   6.247  0.0794 -0.3275  0.7042
 1509TIP3    H126018   2.170   4.305   6.239 -0.1569  0.3318 -2.6479
 1509TIP3    H226019   2.051   4.371   6.304  1.3408  1.7961 -1.2955
 1510TIP3   OH226020   4.011   4.827   1.001 -0.3512  0.0961  0.5223
 1510TIP3    H126021   4.058   4.909   1.015 -0.1961 -0.0208  0.6873
 1510TIP3    H226022   3.988   4.797   1.089 -1.0554  0.3369  0.4231
 1511TIP3   OH226023   0.632   3.238   0.350  0.4541 -0.1859 -0.4839
 1511TIP3    H126024   0.679   3.260   0.430  0.6311 -0.6733 -0.4497
 1511TIP3    H226025   0.542   3.266   0.367  0.7964  1.0602 -0.6810
 1512TIP3   OH226026   5.182   5.915   1.300 -0.2077 -0.0618  0.1517
 1512TIP3    H126027   5.132   5.977   1.247 -2.1133 -1.2142  0.4992
 1512TIP3    H226028   5.117   5.875   1.358  1.4471 -0.4015  1.8683
 1513TIP3   OH226029   1.562   1.300   3.977  0.0480 -0.0117 -0.0372
 1513TIP3    H126030   1.560   1.260   3.890  1.3791 -0.4845  0.1299
 1513TIP3    H226031   1.627   1.250   4.025 -0.7631  0.1587  1.2942
 1514TIP3   OH226032   1.607   0.197   0.455 -0.6156  0.5526  0.2383
 1514TIP3    H126033   1.581   0.218   0.545 -0.3904  0.3563  0.3498
 1514TIP3    H226034   1.675   0.131   0.465  0.3536  1.4830 -0.0204
 1515TIP3   OH226035   0.226   2.857   1.506  0.0028  0.1994  0.0238
 1515TIP3    H126036   0.208   2.900   1.590  2.2806  1.2426  0.0429
 1515TIP3    H226037   0.263   2.925   1.451 -1.1810 -0.5491 -1.7710
 1516TIP3   OH226038   6.282   2.496  14.988  0.7103  0.5572  0.5907
 1516TIP3    H126039   6.368   2.454  14.988  2.0727  3.1318 -0.8488
 1516TIP3    H226040   6.284   2.553  15.065  0.3191  0.6757  0.5134
 1517TIP3   OH226041   4.066   1.825   3.052 -0.0979 -0.4510  0.2811
 1517TIP3    H126042   4.038   1.835   2.961  1.9998 -0.0403 -0.3617
 1517TIP3    H226043   4.017   1.892   3.099  0.1660  0.5841 -0.8722
 1518TIP3   OH226044   1.656   3.786  16.092 -0.0638  0.6896 -0.1137
 1518TIP3    H126045   1.717   3.852  16.124  0.5188 -0.3276  0.9588
 1518TIP3    H226046   1.709   3.708  16.080 -0.8926  0.1769 -0.5693
 1519TIP3   OH226047   6.268   2.852   5.551  0.0801  0.2758 -0.2665
 1519TIP3    H126048   6.282   2.798   5.474  1.5062 -0.4903  0.4900
 1519TIP3    H226049   6.174   2.845   5.569  0.0781 -1.2282 -0.7223
 1520TIP3   OH226050   2.609   0.712  13.074 -0.0071 -0.6845 -0.3772
 1520TIP3    H126051   2.561   0.754  13.146 -0.2613  0.5390 -1.2410
 1520TIP3    H226052   2.541   0.664  13.026  0.1601 -1.4864  0.1527
 1521TIP3   OH226053   5.578   2.955  15.444 -0.1171 -0.3189  0.0150
 1521TIP3    H126054   5.661   2.915  15.468 -0.8776 -1.1452  1.4051
 1521TIP3    H226055   5.539   2.894  15.382  0.0611 -0.2137 -0.2007
 1522TIP3   OH226056   5.562   1.396  16.403 -0.0788  0.0405 -0.4882
 1522TIP3    H126057   5.541   1.431  16.489  1.2915  0.8003 -0.4384
 1522TIP3    H226058   5.603   1.311  16.421  0.7668  0.4727 -0.3453
 1523TIP3   OH226059   2.658   2.746   2.970  0.8723 -0.6664  0.7143
 1523TIP3    H126060   2.617   2.828   2.944 -0.9438 -1.3600  1.2394
 1523TIP3    H226061   2.747   2.752   2.936 -0.5785 -0.5244 -3.7187
 1524TIP3   OH226062   1.264   1.230   4.558 -0.0363 -0.3835 -0.1403
 1524TIP3    H126063   1.234   1.253   4.646  1.4590  0.0885  0.2598
 1524TIP3    H226064   1.307   1.146   4.568  0.3467 -0.2189 -0.3774
 1525TIP3   OH226065   2.909   0.771   0.706 -0.4543 -0.1822  0.0092
 1525TIP3    H126066   2.944   0.686   0.680 -1.8796 -0.2861 -1.8041
 1525TIP3    H226067   2.875   0.757   0.794  1.7801 -0.7034  0.8499
 1526TIP3   OH226068   2.335   0.546  13.152  0.4649  0.0319  0.1762
 1526TIP3    H126069   2.249   0.510  13.174  0.8686 -0.8158  0.3962
 1526TIP3    H226070   2.398   0.488  13.196  1.2075 -0.2461 -1.1960
 1527TIP3   OH226071   3.715   6.278  13.866 -0.3616 -0.1129 -0.2420
 1527TIP3    H126072   3.808   6.298  13.857 -0.4436  0.1113 -0.5792
 1527TIP3    H226073   3.671   6.336  13.805 -0.6060 -1.2766 -1.2171
 1528TIP3   OH226074   5.749   1.942   2.443  0.2120  0.1708  0.8258
 1528TIP3    H126075   5.699   2.021   2.464 -0.5025 -0.9381  3.8531
 1528TIP3    H226076   5.805   1.929   2.519  1.8068 -1.1572 -0.5126
 1529TIP3   OH226077   4.787   2.560   0.333 -0.2228  0.8126  0.4431
 1529TIP3    H126078   4.745   2.628   0.385  1.2118  0.3527  2.3144
 1529TIP3    H226079   4.868   2.600   0.302 -0.6366  0.7820 -0.7248
 1530TIP3   OH226080   0.694   3.206   1.549 -0.3894 -0.0598  0.1576
 1530TIP3    H126081   0.696   3.187   1.456 -1.1072  2.0814 -0.3547
 1530TIP3    H226082   0.746   3.136   1.589  0.0671 -0.9328 -1.8309
 1531TIP3   OH226083   0.530   3.258   2.551 -0.0859 -0.3347 -0.2698
 1531TIP3    H126084   0.564   3.301   2.629 -0.4891  0.9157 -0.7523
 1531TIP3    H226085   0.562   3.168   2.557  0.0577 -0.2080  1.2198
 1532TIP3   OH226086   6.105   3.040  14.151 -0.0301 -0.1631  0.0052
 1532TIP3    H126087   6.155   3.093  14.089  0.5735 -1.2967 -0.5001
 1532TIP3    H226088   6.027   3.012  14.102 -1.1826  1.5472  0.7712
 1533TIP3   OH226089   1.557   5.678   6.214 -0.2157  0.1383  0.5095
 1533TIP3    H126090   1.594   5.740   6.151 -0.9002 -1.5279 -1.6790
 1533TIP3    H226091   1.627   5.616   6.232 -0.2564  0.1712  0.7924
 1534TIP3   OH226092   5.352   2.696   3.141  0.0817 -0.5251  0.1096
 1534TIP3    H126093   5.418   2.750   3.184 -1.1864  0.3783  1.0065
 1534TIP3    H226094   5.287   2.758   3.109 -1.6007 -1.4878  1.4728
 1535TIP3   OH226095   3.168   0.698  15.978 -0.2301  0.2846  0.5533
 1535TIP3    H126096   3.165   0.707  15.882  0.7930  1.4937  0.6117
 1535TIP3    H226097   3.257   0.669  15.997 -0.1612  0.8736  1.1862
 1536TIP3   OH226098   6.696   6.632  13.429 -0.2376  0.0101  0.3421
 1536TIP3    H126099   6.649   6.615  13.347 -0.0073 -0.4697  0.3101
 1536TIP3    H226100   6.726   6.723  13.420 -1.0351  0.2776  0.3090
 1537TIP3   OH226101   4.640   2.774   5.937 -1.1815 -0.0818 -0.7534
 1537TIP3    H126102   4.632   2.678   5.943  0.8949 -0.2677 -0.1014
 1537TIP3    H226103   4.670   2.790   5.848 -0.1747 -0.1895 -0.4491
 1538TIP3   OH226104   0.315   1.639  13.810 -0.5373  0.0021  0.2629
 1538TIP3    H126105   0.359   1.714  13.850 -2.1193  1.3066 -0.3235
 1538TIP3    H226106   0.222   1.657  13.822 -1.0071 -0.8022 -1.7629
 1539TIP3   OH226107   0.176   5.327   0.491 -0.0548 -0.4164  0.4778
 1539TIP3    H126108   0.183   5.422   0.480  0.1323 -0.5352 -0.5317
 1539TIP3    H226109   0.194   5.312   0.584 -1.3918  0.6540  0.9328
 1540TIP3   OH226110   1.011   4.348  15.761 -0.1560 -0.5146 -0.0916
 1540TIP3    H126111   0.930   4.337  15.810  0.9568  1.5620  2.4605
 1540TIP3    H226112   1.079   4.311  15.818  0.8314 -1.3640 -1.7468
 1541TIP3   OH226113   3.301   0.456   2.149 -0.5300  0.9248  0.6867
 1541TIP3    H126114   3.388   0.458   2.107 -0.7329 -0.4605  0.1699
 1541TIP3    H226115   3.268   0.368   2.132 -1.5937  1.0839  1.8214
 1542TIP3   OH226116   4.426   0.411   4.717  0.4389  0.3488 -0.0031
 1542TIP3    H126117   4.469   0.488   4.680  0.3165  1.8288  2.7170
 1542TIP3    H226118   4.498   0.352   4.741  0.7086  0.8482  0.4375
 1543TIP3   OH226119   5.469   1.805   5.638 -0.1997  0.5830  0.1933
 1543TIP3    H126120   5.487   1.839   5.550 -1.7243 -0.0438 -0.3814
 1543TIP3    H226121   5.376   1.786   5.639  0.2660 -2.1231  0.9900
 1544TIP3   OH226122   5.599   4.162  12.228 -0.3043  0.0198 -0.1381
 1544TIP3    H126123   5.524   4.184  12.283 -1.1722 -0.6460 -1.0136
 1544TIP3    H226124   5.674   4.205  12.270 -0.3838 -2.6140  3.0744
 1545TIP3   OH226125   2.446   5.894   4.650  0.7772 -0.9509  0.0780
 1545TIP3    H126126   2.459   5.880   4.557 -0.1725  1.3632 -0.4723
 1545TIP3    H226127   2.528   5.934   4.680  0.6529 -0.5980 -0.0429
 1546TIP3   OH226128   0.620   4.865   5.810  0.0482  0.2583  0.0560
 1546TIP3    H126129   0.684   4.839   5.743  0.5033 -1.1664  1.0004
 1546TIP3    H226130   0.568   4.786   5.825 -2.3225  1.4813 -1.0249
 1547TIP3   OH226131   0.209   4.900  16.173 -0.2322  0.2974  0.0924
 1547TIP3    H126132   0.140   4.873  16.111  1.0172  0.5411 -1.4580
 1547TIP3    H226133   0.240   4.818  16.211  0.4400 -0.0981 -1.2321
 1548TIP3   OH226134   4.926   5.476   3.781  0.0384 -0.2782  0.0741
 1548TIP3    H126135   4.976   5.557   3.775 -0.4800  0.0483  0.1255
 1548TIP3    H226136   4.913   5.462   3.875  0.7707 -0.8247  0.1017
 1549TIP3   OH226137   3.385   0.856  16.221 -0.1988 -0.1276  0.4420
 1549TIP3    H126138   3.379   0.840  16.127 -0.2028  0.3413  0.3633
 1549TIP3    H226139   3.354   0.946  16.232 -1.7236 -0.7041  1.0744
 1550TIP3   OH226140   4.130   6.359   1.576  0.4338 -0.0209  0.4019
 1550TIP3    H126141   4.203   6.361   1.638  0.4715 -1.4565  0.4222
 1550TIP3    H226142   4.053   6.340   1.630  0.0281  1.3342  0.3598
 1551TIP3   OH226143   2.494   0.326  12.384  0.1752  0.1261  0.1689
 1551TIP3    H126144   2.417   0.334  12.328 -0.1446 -0.3395  0.5356
 1551TIP3    H226145   2.465   0.362  12.468 -0.0185 -1.1253  0.6548
 1552TIP3   OH226146   1.297   4.154   4.970 -0.0832 -0.1736 -0.0059
 1552TIP3    H126147   1.346   4.159   4.888 -2.4216  0.2880 -1.4774
 1552TIP3    H226148   1.357   4.189   5.036  1.5577  0.3156 -1.6638
 1553TIP3   OH226149   1.975   1.660   1.519 -0.1977 -0.0596 -0.4445
 1553TIP3    H126150   1.895   1.709   1.537 -0.2100 -0.3040  0.2320
 1553TIP3    H226151   2.043   1.707   1.567  0.0803  0.1941 -1.0858
 1554TIP3   OH226152   0.343   3.587  14.991 -0.1663  0.0147  0.1942
 1554TIP3    H126153   0.378   3.666  15.032  0.1232  0.0998 -0.2197
 1554TIP3    H226154   0.257   3.612  14.958  1.4087  1.3200 -3.4312
 1555TIP3   OH226155   3.457   3.787  14.123  0.0010  0.1921 -0.0446
 1555TIP3    H126156   3.483   3.725  14.055 -0.7268  0.3851 -0.5061
 1555TIP3    H226157   3.361   3.791  14.117  0.0778  2.2146 -0.7832
 1556TIP3   OH226158   0.324   5.569  16.722 -0.0471  0.1365 -0.0807
 1556TIP3    H126159   0.251   5.542  16.779  0.4514 -0.0408  0.4848
 1556TIP3    H226160   0.373   5.488  16.706  1.6427  0.6705  1.8876
 1557TIP3   OH226161   2.932   0.525  10.666 -0.0406 -0.6288  0.3334
 1557TIP3    H126162   3.015   0.495  10.703  0.3370 -0.5402 -0.4126
 1557TIP3    H226163   2.880   0.446  10.653 -0.8187 -0.5380  2.4874
 1558TIP3   OH226164   2.284   5.997  12.799  0.6162 -0.4742 -0.0231
 1558TIP3    H126165   2.256   6.015  12.889  0.6664  2.0102 -0.4575
 1558TIP3    H226166   2.205   6.009  12.746  1.1203  0.4992 -0.5670
 1559TIP3   OH226167   1.690   2.296   1.382 -0.6626 -0.4467 -0.2117
 1559TIP3    H126168   1.714   2.250   1.301  0.5233  1.2336 -0.8775
 1559TIP3    H226169   1.773   2.330   1.415 -1.5389  1.6690 -0.0604
 1560TIP3   OH226170   5.222   1.772  16.219 -0.2606 -0.3408 -0.3019
 1560TIP3    H126171   5.129   1.764  16.197  0.0763  0.0723 -2.0491
 1560TIP3    H226172   5.262   1.692  16.185  0.2329  0.1466 -0.8970
 1561TIP3   OH226173   5.290   2.968   3.519  0.1166 -0.4390  0.1178
 1561TIP3    H126174   5.369   2.987   3.468 -0.2431  1.5914  0.2447
 1561TIP3    H226175   5.246   3.052   3.528 -1.4400 -1.3044  1.1363
 1562TIP3   OH226176   0.274   3.347   3.560 -0.4409  0.4335 -0.1963
 1562TIP3    H126177   0.203   3.328   3.621  1.4945 -0.1692  2.0175
 1562TIP3    H226178   0.295   3.262   3.520 -0.6093  0.5186 -0.4722
 1563TIP3   OH226179   3.540   6.440  15.074  0.0166 -0.3428 -0.5432
 1563TIP3    H126180   3.466   6.499  15.085  0.9053  0.5350  1.0762
 1563TIP3    H226181   3.609   6.495  15.038 -0.3643 -1.3863 -3.0709
 1564TIP3   OH226182   5.600   6.579   2.904  0.3058  0.1216 -0.0189
 1564TIP3    H126183   5.531   6.631   2.863 -1.4557 -3.0550 -1.3988
 1564TIP3    H226184   5.563   6.552   2.988  0.2414 -0.7547 -0.3202
 1565TIP3   OH226185   6.424   2.311   0.836  0.0106 -0.7426  0.0169
 1565TIP3    H126186   6.510   2.300   0.797  0.2408  0.7918  0.0234
 1565TIP3    H226187   6.432   2.389   0.891 -1.7760  0.3641 -1.1742
 1566TIP3   OH226188   4.274   6.240   4.741 -0.5222  0.5895  0.1708
 1566TIP3    H126189   4.194   6.257   4.790 -0.1055 -0.5502  1.2917
 1566TIP3    H226190   4.343   6.281   4.792 -0.1414 -0.2057  0.3066
 1567TIP3   OH226191   6.396   5.197   6.004  0.2126  0.4617 -0.0177
 1567TIP3    H126192   6.302   5.178   6.013 -0.2407  1.8460 -1.3277
 1567TIP3    H226193   6.440   5.121   6.041 -1.4240  0.0044  1.0930
 1568TIP3   OH226194   1.257   6.452   3.634 -0.3420 -0.1066 -0.0073
 1568TIP3    H126195   1.164   6.469   3.651 -0.0567  0.5752  0.9510
 1568TIP3    H226196   1.303   6.518   3.685  0.7218 -1.3556  0.7009
 1569TIP3   OH226197   2.059   1.619  11.194  0.2786  0.8968 -0.1483
 1569TIP3    H126198   1.969   1.648  11.210  0.5620  1.1250  1.1141
 1569TIP3    H226199   2.067   1.618  11.098 -0.9411  1.2459 -0.2715
 1570TIP3   OH226200   2.497   2.556   3.079  0.2002 -0.4391 -0.6341
 1570TIP3    H126201   2.529   2.626   3.022  2.0720 -1.0660 -0.4033
 1570TIP3    H226202   2.567   2.491   3.080 -0.7874 -1.5378  0.5080
 1571TIP3   OH226203   4.017   0.749   0.759  0.4421  0.1403 -0.0429
 1571TIP3    H126204   3.942   0.808   0.756 -0.0569 -0.5150 -0.8145
 1571TIP3    H226205   3.983   0.668   0.797  1.7600  1.1718  3.8580
 1572TIP3   OH226206   1.899   1.447   5.504  0.6502 -0.1527  0.0801
 1572TIP3    H126207   1.945   1.524   5.472 -0.7921 -0.2007 -2.3351
 1572TIP3    H226208   1.968   1.381   5.516  1.6372  0.8876  0.3028
 1573TIP3   OH226209   5.261   4.655  14.459 -0.7559 -0.2014 -0.2407
 1573TIP3    H126210   5.329   4.681  14.397 -1.0320  0.0155 -0.4526
 1573TIP3    H226211   5.220   4.578  14.420  0.1515 -1.0533  0.4515
 1574TIP3   OH226212   1.577   3.852   0.321 -0.1268  0.0494 -0.6600
 1574TIP3    H126213   1.585   3.771   0.272  2.8502  0.5986 -1.3010
 1574TIP3    H226214   1.646   3.847   0.387 -1.2304  1.1913  0.6455
 1575TIP3   OH226215   6.488   6.684  15.136 -0.4141  0.2426 -0.5319
 1575TIP3    H126216   6.458   6.645  15.055 -0.8624  0.1412 -0.3207
 1575TIP3    H226217   6.582   6.698  15.123  0.2024 -2.6782  0.0754
 1576TIP3   OH226218   4.357   3.160  15.652 -0.1625 -0.4053  0.3754
 1576TIP3    H126219   4.293   3.184  15.584 -0.7424 -0.0004  1.0460
 1576TIP3    H226220   4.442   3.167  15.609 -0.3833  1.6556  0.1695
 1577TIP3   OH226221   2.543   6.685  11.168  0.9155 -0.3165 -0.3301
 1577TIP3    H126222   2.628   6.660  11.203  0.8389  1.2808  1.1698
 1577TIP3    H226223   2.548   6.664  11.075  2.3834 -1.6416  0.0029
 1578TIP3   OH226224   4.420   5.802   0.193 -0.3907 -0.4843 -0.6003
 1578TIP3    H126225   4.339   5.829   0.151 -1.0729 -1.8737 -0.2178
 1578TIP3    H226226   4.395   5.781   0.283  0.4960 -0.3966 -0.3206
 1579TIP3   OH226227   2.913   5.225   0.961  0.2616 -0.5029  0.0221
 1579TIP3    H126228   2.843   5.207   0.898  0.6969 -3.5435  0.2598
 1579TIP3    H226229   2.963   5.296   0.921 -0.6788 -0.9399 -2.0951
 1580TIP3   OH226230   1.388   4.151   6.692  0.1215  0.5771 -0.2538
 1580TIP3    H126231   1.308   4.146   6.744 -0.2985 -0.5577 -0.9827
 1580TIP3    H226232   1.396   4.244   6.670  0.3588  1.1095  1.8604
 1581TIP3   OH226233   3.700   6.082  11.905 -0.4546 -0.4541 -0.4367
 1581TIP3    H126234   3.740   6.073  11.819 -2.2438 -0.2699 -1.3351
 1581TIP3    H226235   3.610   6.049  11.894 -1.8297  2.5811  0.4333
 1582TIP3   OH226236   4.050   4.903   5.762 -0.1354  0.6318 -0.1001
 1582TIP3    H126237   4.142   4.922   5.783  0.0000  1.1276 -1.0976
 1582TIP3    H226238   4.054   4.854   5.681 -0.7679  0.8187 -0.2463
 1583TIP3   OH226239   5.798   0.946  11.860  0.1226 -0.3279  0.0892
 1583TIP3    H126240   5.784   1.021  11.918 -1.5010 -0.2679 -0.3238
 1583TIP3    H226241   5.893   0.938  11.854  0.3300  0.6830  1.4292
 1584TIP3   OH226242   3.413   4.725   5.029  0.0920 -0.2322 -0.7233
 1584TIP3    H126243   3.423   4.770   5.113 -0.1141 -1.1468 -0.1945
 1584TIP3    H226244   3.421   4.794   4.963 -1.3724  0.7818  0.0993
 1585TIP3   OH226245   2.245   4.672  11.024 -0.0880 -0.5676  0.0490
 1585TIP3    H126246   2.155   4.701  11.015 -0.1719 -0.7348  0.3492
 1585TIP3    H226247   2.266   4.683  11.117  0.4452  0.1777 -0.1498
 1586TIP3   OH226248   0.007   2.881   2.914  0.0516 -0.4281  0.2095
 1586TIP3    H126249  -0.029   2.879   3.003 -0.7410  2.5588  0.0666
 1586TIP3    H226250   0.071   2.953   2.916  0.4428 -0.7057 -1.4860
 1587TIP3   OH226251   1.996   2.537  15.414 -0.0588  0.1638  0.2505
 1587TIP3    H126252   2.028   2.603  15.353 -0.1518 -0.9649 -1.0688
 1587TIP3    H226253   2.005   2.578  15.500  2.3040  0.9060 -0.2867
 1588TIP3   OH226254   3.510   6.701  11.363  0.0721 -0.3647 -0.3782
 1588TIP3    H126255   3.536   6.620  11.407  1.4634 -0.0698 -0.6069
 1588TIP3    H226256   3.459   6.749  11.429 -0.5184 -1.2908 -0.1493
 1589TIP3   OH226257   2.172   1.764   1.681  0.8063 -0.1975 -0.0726
 1589TIP3    H126258   2.147   1.771   1.774 -1.4008  1.2276 -0.6765
 1589TIP3    H226259   2.235   1.835   1.668  0.3086  0.2936  0.1358
 1590TIP3   OH226260   4.433   4.745   1.924 -0.4123  0.2592 -0.1112
 1590TIP3    H126261   4.518   4.705   1.905  0.0240  1.4152 -0.6702
 1590TIP3    H226262   4.447   4.839   1.913 -1.2316  0.6656  1.9071
 1591TIP3   OH226263   3.304   5.000   1.366  0.1433 -0.0963  0.4626
 1591TIP3    H126264   3.393   5.001   1.333  0.1593 -0.7707  0.4692
 1591TIP3    H226265   3.266   4.920   1.329 -0.4499  0.1726  0.4760
 1592TIP3   OH226266   3.430   2.153   5.968 -0.4129  1.0353  0.0808
 1592TIP3    H126267   3.381   2.191   5.895 -0.3728  2.8492  0.9315
 1592TIP3    H226268   3.515   2.197   5.965  0.5467 -0.7540 -0.2861
 1593TIP3   OH226269   2.619   3.486   5.599 -0.0219  0.1161 -0.1770
 1593TIP3    H126270   2.650   3.476   5.689  0.6160  0.5182 -0.3457
 1593TIP3    H226271   2.691   3.454   5.545 -0.7013 -0.8547 -0.5370
 1594TIP3   OH226272   1.445   3.426  10.925 -0.0204  0.1917  0.7883
 1594TIP3    H126273   1.370   3.485  10.918  0.1859  0.5787  1.7644
 1594TIP3    H226274   1.467   3.406  10.834 -0.8761  0.6136  0.4724
 1595TIP3   OH226275   6.665   5.162   5.782  0.3156 -0.0225  0.0039
 1595TIP3    H126276   6.717   5.229   5.737  0.8155  0.6989  1.5988
 1595TIP3    H226277   6.666   5.188   5.874 -0.2593 -1.7283  0.5301
 1596TIP3   OH226278   4.557   5.194   5.057  0.1951 -0.2816 -0.4685
 1596TIP3    H126279   4.571   5.112   5.103 -2.7572 -1.4209 -1.3685
 1596TIP3    H226280   4.531   5.168   4.969  0.6387  1.6952 -1.2381
 1597TIP3   OH226281   1.514   6.163   6.105 -0.4004  0.0199  0.2584
 1597TIP3    H126282   1.561   6.243   6.125 -0.0314 -0.2676  0.5502
 1597TIP3    H226283   1.486   6.129   6.190 -1.7546  0.5523  0.0523
 1598TIP3   OH226284   1.382   4.418  11.838 -0.3764 -0.2183 -0.1329
 1598TIP3    H126285   1.309   4.418  11.899 -0.0079 -3.2442  0.4748
 1598TIP3    H226286   1.460   4.417  11.893  0.0429  0.0214 -0.7059
 1599TIP3   OH226287   6.296   2.694   1.201  0.4097  0.0764 -0.0637
 1599TIP3    H126288   6.256   2.696   1.289  0.8865  1.0320  0.1421
 1599TIP3    H226289   6.228   2.729   1.144  0.6459  0.9432  0.1688
 1600TIP3   OH226290   3.325   1.841  11.130 -0.3960  0.5852 -0.1818
 1600TIP3    H126291   3.377   1.777  11.178 -2.5060 -2.2043 -1.3150
 1600TIP3    H226292   3.343   1.823  11.038 -1.1257  1.5570 -0.5313
 1601TIP3   OH226293   1.170   5.675  16.839 -0.1796  0.7751 -0.0507
 1601TIP3    H126294   1.240   5.707  16.896 -0.6881  0.5917  0.7004
 1601TIP3    H226295   1.214   5.645  16.760  1.0418 -2.6728  1.7568
 1602TIP3   OH226296   0.311   1.068   0.213  0.3136 -0.2282 -0.2516
 1602TIP3    H126297   0.278   1.153   0.242 -1.4462 -0.9476 -0.0289
 1602TIP3    H226298   0.233   1.019   0.188  1.3639 -1.4803 -1.2291
 1603TIP3   OH226299   2.506   5.289   2.175 -0.2883  0.7565  0.4145
 1603TIP3    H126300   2.529   5.377   2.204  1.1804  0.7694 -0.7150
 1603TIP3    H226301   2.578   5.234   2.206  0.6944  0.5687 -2.0148
 1604TIP3   OH226302   1.062   5.390   2.250  0.0830 -0.0481  0.0564
 1604TIP3    H126303   1.030   5.466   2.299  2.9772  0.3870  1.4505
 1604TIP3    H226304   0.999   5.321   2.270  0.2087  0.5859  3.0881
 1605TIP3   OH226305   4.449   6.456  16.754 -0.2736  0.4200 -0.4215
 1605TIP3    H126306   4.443   6.405  16.835  0.3048 -1.6061 -1.5753
 1605TIP3    H226307   4.474   6.544  16.782 -2.6742  0.5085  1.7726
 1606TIP3   OH226308   4.997   3.174   1.949 -0.1008  0.0417 -0.7728
 1606TIP3    H126309   5.083   3.155   1.912  0.4416 -1.5058  1.0851
 1606TIP3    H226310   4.935   3.135   1.887  0.6266 -0.2988 -1.3010
 1607TIP3   OH226311   4.575   1.329  11.919 -0.1988 -0.0149 -0.2626
 1607TIP3    H126312   4.532   1.368  11.995  0.1057  1.8993 -0.9891
 1607TIP3    H226313   4.638   1.267  11.955 -1.1150 -0.2677  0.9557
 1608TIP3   OH226314   2.316   6.771  13.610  0.0967  0.5657  0.3711
 1608TIP3    H126315   2.332   6.771  13.704 -1.3746  0.0464  0.6491
 1608TIP3    H226316   2.221   6.770  13.602  0.1993  0.0059 -1.1170
 1609TIP3   OH226317   2.956   1.527  15.209  0.6798  0.1145  0.0519
 1609TIP3    H126318   3.039   1.519  15.161  0.2444 -2.2518 -0.4546
 1609TIP3    H226319   2.973   1.594  15.275  2.9964 -0.2314 -0.0891
 1610TIP3   OH226320   3.613   4.013  15.712 -0.4648  0.3399  0.0429
 1610TIP3    H126321   3.540   3.995  15.652  0.7205  1.6395 -1.9241
 1610TIP3    H226322   3.590   4.097  15.752 -0.5947  0.1797  0.3005
 1611TIP3   OH226323   2.884   0.074   1.201  0.1624  0.1031  0.6920
 1611TIP3    H126324   2.820   0.054   1.270  0.2318  0.9004  1.0005
 1611TIP3    H226325   2.835   0.064   1.119  0.3540 -1.8853  0.7779
 1612TIP3   OH226326   1.019   0.800   0.407 -0.4571 -0.2761 -0.1051
 1612TIP3    H126327   0.949   0.865   0.395 -0.0571  0.2566  0.3989
 1612TIP3    H226328   1.077   0.839   0.471  0.7816 -0.3418 -1.1574
 1613TIP3   OH226329   6.169   6.085  14.666 -0.1576  0.4809 -0.3330
 1613TIP3    H126330   6.109   6.151  14.631 -1.0599 -0.0328  0.1885
 1613TIP3    H226331   6.119   6.043  14.737  0.9112  0.1907  0.2692
 1614TIP3   OH226332   6.743   1.228   2.276  0.3452 -0.5183 -0.3287
 1614TIP3    H126333   6.657   1.194   2.302  0.5551 -1.2131 -0.5202
 1614TIP3    H226334   6.723   1.302   2.218 -0.1244 -0.5491 -0.2107
 1615TIP3   OH226335   6.159   5.903   0.204  0.0906 -0.4159  0.4050
 1615TIP3    H126336   6.206   5.827   0.170 -0.3011 -0.3066 -0.4095
 1615TIP3    H226337   6.225   5.971   0.212  0.2953 -0.6141  0.4188
 1616TIP3   OH226338   3.580   0.017  12.013  0.0139  0.7922 -0.4515
 1616TIP3    H126339   3.488   0.036  12.027  0.1578  2.8788 -1.9050
 1616TIP3    H226340   3.585  -0.011  11.921  1.0870  3.2406 -1.2235
 1617TIP3   OH226341   5.541   0.919   1.724 -0.7469 -0.2609  0.1800
 1617TIP3    H126342   5.546   1.002   1.773 -0.3409  0.6156 -1.2831
 1617TIP3    H226343   5.626   0.912   1.682 -0.7341 -1.5191  0.3927
 1618TIP3   OH226344   6.526   5.376  14.796 -0.7279  0.3640  0.2366
 1618TIP3    H126345   6.577   5.308  14.752  0.4907  0.9624  0.6597
 1618TIP3    H226346   6.537   5.453  14.740  2.5505  1.7256  2.4318
 1619TIP3   OH226347   1.229   5.848   3.444 -0.6772 -0.0555 -0.1672
 1619TIP3    H126348   1.224   5.939   3.416  0.3064  0.2898  0.7094
 1619TIP3    H226349   1.158   5.838   3.508 -0.9373  0.0267 -0.4453
 1620TIP3   OH226350   3.653   2.496   5.039  0.0293  0.8249 -0.0174
 1620TIP3    H126351   3.610   2.415   5.012 -1.0657  1.6576 -0.8987
 1620TIP3    H226352   3.709   2.471   5.112  0.2024 -0.8320 -0.6848
 1621TIP3   OH226353   2.012   3.640   5.514 -0.3021  0.2203  0.5642
 1621TIP3    H126354   2.104   3.656   5.536 -0.6156  0.4753  1.7940
 1621TIP3    H226355   1.973   3.728   5.508 -0.2098  0.1657 -1.2332
 1622TIP3   OH226356   5.462   6.774  12.779  0.1609 -0.1371 -0.7885
 1622TIP3    H126357   5.440   6.866  12.764  1.0483  0.5275  1.6019
 1622TIP3    H226358   5.530   6.755  12.714 -0.9586  0.4481 -2.1918
 1623TIP3   OH226359   5.130   4.825   2.619 -0.5338 -0.6000 -0.6051
 1623TIP3    H126360   5.092   4.754   2.672 -2.1811 -0.6298 -1.7484
 1623TIP3    H226361   5.114   4.904   2.671  0.4337 -0.9231  0.2220
 1624TIP3   OH226362   4.205   0.351  15.515 -0.1924 -0.3157 -0.0198
 1624TIP3    H126363   4.167   0.281  15.463  3.2033 -1.0714 -1.8104
 1624TIP3    H226364   4.160   0.431  15.486 -1.0370 -1.2154 -1.2509
 1625TIP3   OH226365   4.184   1.394  16.890  0.8427 -0.1963 -0.6823
 1625TIP3    H126366   4.210   1.368  16.979 -0.1719 -2.3799 -0.9461
 1625TIP3    H226367   4.206   1.318  16.836 -0.6182  0.1979 -1.9049
 1626TIP3   OH226368   2.239   4.183  15.904 -0.3501  0.4154 -0.3249
 1626TIP3    H126369   2.187   4.113  15.944  0.5457 -0.9681 -1.5117
 1626TIP3    H226370   2.304   4.206  15.971 -0.2632 -0.3175 -0.1489
 1627TIP3   OH226371   1.713   1.254  13.613 -0.3756 -0.3134 -0.0764
 1627TIP3    H126372   1.791   1.199  13.621  0.3992  0.8979  1.3318
 1627TIP3    H226373   1.712   1.305  13.694 -2.3144  0.1347 -0.3367
 1628TIP3   OH226374   2.230   6.318  12.718 -0.1805  0.0375  0.3700
 1628TIP3    H126375   2.175   6.255  12.670 -0.8661  0.7337  0.2132
 1628TIP3    H226376   2.307   6.329  12.663  0.1643 -0.9899  0.6128
 1629TIP3   OH226377   2.288   4.551  13.456 -0.1267  0.3274  0.1352
 1629TIP3    H126378   2.279   4.644  13.437 -0.4455  0.1268 -0.7158
 1629TIP3    H226379   2.222   4.508  13.401 -0.8414 -0.3030  1.4295
 1630TIP3   OH226380   0.072   1.160  15.769  0.5498  0.3616 -0.4073
 1630TIP3    H126381   0.135   1.106  15.721  0.7574 -0.0853  0.3442
 1630TIP3    H226382   0.119   1.241  15.786 -0.3454  1.5474 -3.0715
 1631TIP3   OH226383   5.091   1.128  11.995 -0.1932  0.1135  0.4147
 1631TIP3    H126384   5.165   1.136  11.934 -0.5826 -0.3979 -0.1397
 1631TIP3    H226385   5.042   1.053  11.962 -1.2658  0.7827  0.4526
 1632TIP3   OH226386   6.635   5.703   3.474 -0.0628  0.8820 -0.6224
 1632TIP3    H126387   6.613   5.753   3.553  1.3075 -0.0434  0.3967
 1632TIP3    H226388   6.731   5.706   3.470 -0.1266  1.3447 -2.5706
 1633TIP3   OH226389   5.088   0.282  14.652 -0.0897 -0.4637  0.1324
 1633TIP3    H126390   5.165   0.272  14.597  0.1233  0.4297  0.2579
 1633TIP3    H226391   5.107   0.358  14.707 -1.3113  0.1578 -0.2665
 1634TIP3   OH226392   5.738   6.149  13.595  0.0480 -0.2486 -0.2171
 1634TIP3    H126393   5.776   6.099  13.523  0.2334  0.5155 -0.6600
 1634TIP3    H226394   5.690   6.220  13.552  0.3722  0.3656  0.4166
 1635TIP3   OH226395   0.610   2.700  16.293  0.2691 -0.1667  0.3491
 1635TIP3    H126396   0.591   2.788  16.261 -1.0870 -1.0406 -1.4406
 1635TIP3    H226397   0.679   2.667  16.236 -0.6666 -0.9801 -0.3391
 1636TIP3   OH226398   2.688   3.027   5.479 -0.4638 -0.4267  0.2110
 1636TIP3    H126399   2.608   2.983   5.450 -1.5472  0.0951  2.1970
 1636TIP3    H226400   2.748   2.956   5.501 -0.6404 -0.8350 -0.5986
 1637TIP3   OH226401   0.915   5.116   0.033 -0.0898  0.0426  0.4211
 1637TIP3    H126402   0.991   5.114   0.091  0.3890 -0.6987 -0.2130
 1637TIP3    H226403   0.947   5.082  -0.050 -1.0507 -0.0024  0.0532
 1638TIP3   OH226404   1.334   0.200  16.920 -0.1837  0.0941  0.2490
 1638TIP3    H126405   1.342   0.107  16.939 -0.8993 -0.2360 -0.9543
 1638TIP3    H226406   1.381   0.243  16.991 -1.8198 -1.0760  2.1506
 1639TIP3   OH226407   5.398   5.002   6.552  0.0251 -0.3101  0.1369
 1639TIP3    H126408   5.490   5.002   6.576  0.0266 -0.1775  0.1323
 1639TIP3    H226409   5.389   4.932   6.487  0.1933 -0.0782 -0.1369
 1640TIP3   OH226410   0.908   0.006   2.010  0.1252  0.5642  0.2746
 1640TIP3    H126411   0.883   0.081   1.956  0.3102  1.0099  0.8077
 1640TIP3    H226412   0.825  -0.031   2.039 -0.0234 -0.3202 -1.1650
 1641TIP3   OH226413   4.974   6.793   3.019  0.1511 -0.4426  0.2464
 1641TIP3    H126414   5.062   6.827   3.028 -0.2896  0.2368  2.4072
 1641TIP3    H226415   4.944   6.778   3.109 -2.4405  0.6890 -0.3419
 1642TIP3   OH226416   5.344   6.187   3.132  0.0166  0.1175 -0.9986
 1642TIP3    H126417   5.281   6.215   3.198 -0.8958 -1.3625 -1.1892
 1642TIP3    H226418   5.291   6.142   3.066  1.3047 -1.4820 -0.9879
 1643TIP3   OH226419   2.002   6.653  16.479  0.4984 -0.2068 -0.0434
 1643TIP3    H126420   2.046   6.576  16.514  1.2645 -0.1768 -0.8723
 1643TIP3    H226421   1.912   6.625  16.462  0.7177 -0.8646 -0.1451
 1644TIP3   OH226422   2.044   1.694   0.363  0.2646 -0.8497  0.3561
 1644TIP3    H126423   1.964   1.675   0.411 -1.1634 -0.4955 -1.7380
 1644TIP3    H226424   2.112   1.700   0.430 -1.5390 -0.6412  2.2549
 1645TIP3   OH226425   1.409   3.060  15.767 -0.1450  0.2457 -0.4737
 1645TIP3    H126426   1.361   3.130  15.722  0.9089  0.2953 -1.5555
 1645TIP3    H226427   1.497   3.095  15.781 -0.3134  0.0642  1.2824
 1646TIP3   OH226428   0.858   1.714   3.516 -0.0864  0.0874  0.2363
 1646TIP3    H126429   0.802   1.643   3.485 -1.0393  1.0143 -0.2508
 1646TIP3    H226430   0.942   1.673   3.535  0.2498 -0.7307 -2.6010
 1647TIP3   OH226431   2.392   4.143   1.521  0.1756 -0.0185  0.3513
 1647TIP3    H126432   2.464   4.117   1.578  2.0589  2.0005 -0.9092
 1647TIP3    H226433   2.377   4.236   1.541 -0.2693  0.2932 -1.2104
 1648TIP3   OH226434   2.922   0.204  10.890 -0.4275 -0.3475  0.4054
 1648TIP3    H126435   2.864   0.262  10.840  1.0396  0.4957 -0.4082
 1648TIP3    H226436   2.920   0.121  10.842  2.1385  0.8729 -2.1729
 1649TIP3   OH226437   3.973   1.623   3.253  0.1299  0.0412 -0.2024
 1649TIP3    H126438   3.911   1.557   3.222  0.7404 -0.2100 -0.9186
 1649TIP3    H226439   3.989   1.679   3.177  1.7500 -0.6524 -0.4232
 1650TIP3   OH226440   6.254   4.994   5.751 -0.1520  0.4511 -0.1022
 1650TIP3    H126441   6.165   5.011   5.780 -0.2746 -0.9123  0.3811
 1650TIP3    H226442   6.248   4.916   5.696  1.0060 -1.1580  1.8814
 1651TIP3   OH226443   1.334   2.335  13.889  0.2764  0.9226  0.5125
 1651TIP3    H126444   1.250   2.290  13.886  0.4062  0.6901  0.1376
 1651TIP3    H226445   1.379   2.305  13.810  0.4249  1.6096  0.3302
 1652TIP3   OH226446   2.394   4.556  16.268  0.3192 -0.1388  0.4613
 1652TIP3    H126447   2.340   4.635  16.260  0.1166 -0.0821  2.1182
 1652TIP3    H226448   2.464   4.569  16.203  0.2558  1.3783  0.6469
 1653TIP3   OH226449   4.300   5.488  14.242 -0.3363  0.0903 -0.4691
 1653TIP3    H126450   4.340   5.405  14.216 -2.2173 -1.2401  0.5893
 1653TIP3    H226451   4.299   5.540  14.162  1.2536 -0.7331 -1.0639
 1654TIP3   OH226452   2.958   0.277  16.268 -0.2144  0.1235 -0.1735
 1654TIP3    H126453   2.942   0.290  16.174  1.0020 -0.3417 -0.4656
 1654TIP3    H226454   2.888   0.326  16.311 -2.5693 -2.0105 -1.3192
 1655TIP3   OH226455   2.114   4.920   2.051  0.2532 -0.0883 -0.8596
 1655TIP3    H126456   2.131   4.829   2.027  1.3877  0.1904 -1.2014
 1655TIP3    H226457   2.100   4.917   2.145  1.4642 -0.4915 -0.6665
 1656TIP3   OH226458   0.735   6.658   1.754 -0.4333 -0.1848 -0.2766
 1656TIP3    H126459   0.676   6.652   1.829  1.0245 -2.3160  0.8005
 1656TIP3    H226460   0.741   6.568   1.722  0.0020  0.4717 -2.1791
 1657TIP3   OH226461   4.413   5.679  16.865  0.3441  0.1949 -0.0938
 1657TIP3    H126462   4.375   5.616  16.927  2.6581  1.9700  3.4639
 1657TIP3    H226463   4.493   5.637  16.835  0.7509  0.4988  0.5374
 1658TIP3   OH226464   0.679   1.335  15.014 -0.2469  0.1855  0.6003
 1658TIP3    H126465   0.621   1.281  14.960  2.2515 -1.5859 -0.5755
 1658TIP3    H226466   0.728   1.388  14.950  0.2713  0.7126  1.4209
 1659TIP3   OH226467   5.690   1.266   5.254  0.5489  0.3569 -0.4912
 1659TIP3    H126468   5.704   1.260   5.159  1.3983 -0.5002 -0.3356
 1659TIP3    H226469   5.612   1.214   5.270 -0.8794  2.2693 -0.9588
 1660TIP3   OH226470   0.737   6.157   4.775  0.4222 -0.7042 -0.7289
 1660TIP3    H126471   0.816   6.172   4.827  0.4963  0.0061 -1.0295
 1660TIP3    H226472   0.668   6.203   4.823  0.6342  0.6016 -1.6268
 1661TIP3   OH226473   2.502   2.377  16.632 -0.6898  0.3460 -0.1652
 1661TIP3    H126474   2.560   2.379  16.556 -0.8942  1.1850 -0.3063
 1661TIP3    H226475   2.532   2.450  16.686  0.5650 -1.2249  1.4111
 1662TIP3   OH226476   0.464   5.724   1.501  0.0505  0.3946  0.7254
 1662TIP3    H126477   0.559   5.731   1.500  0.0229  0.9319  1.3610
 1662TIP3    H226478   0.442   5.703   1.592 -0.4934  1.1200  0.7650
 1663TIP3   OH226479   5.374   3.658   4.706  0.6911  0.2965 -0.0388
 1663TIP3    H126480   5.388   3.657   4.611 -1.3595 -2.4367 -0.4229
 1663TIP3    H226481   5.291   3.704   4.717  2.1386  2.9092  0.7763
 1664TIP3   OH226482   0.446   2.193  12.773 -0.5523 -0.4176  0.5555
 1664TIP3    H126483   0.524   2.152  12.735 -0.7476 -0.9992  0.7762
 1664TIP3    H226484   0.406   2.124  12.826 -1.7920 -0.4555 -0.3928
 1665TIP3   OH226485   1.470   6.396   6.354 -0.0668 -0.0652  0.4866
 1665TIP3    H126486   1.404   6.460   6.377 -1.2080 -1.2459  0.5923
 1665TIP3    H226487   1.498   6.421   6.266  1.3387  2.0129  1.4276
 1666TIP3   OH226488   0.367   3.924  14.395  0.1921 -0.0816 -0.0037
 1666TIP3    H126489   0.373   4.000  14.338  0.8300  0.1069  0.3038
 1666TIP3    H226490   0.403   3.852  14.342  1.6479  0.2725  0.4554
 1667TIP3   OH226491   6.011   4.350   0.985 -0.0993 -0.1397 -0.3570
 1667TIP3    H126492   6.051   4.412   0.924  1.3895 -0.0641  0.6285
 1667TIP3    H226493   5.985   4.275   0.931  2.3723 -0.6507 -0.9745
 1668TIP3   OH226494   0.854   2.641   5.455 -0.0654 -0.1623 -0.4472
 1668TIP3    H126495   0.946   2.662   5.471 -0.0197 -0.6444 -0.0507
 1668TIP3    H226496   0.856   2.581   5.380 -0.0017 -0.7071 -0.0125
 1669TIP3   OH226497   4.007   6.652  16.448 -0.6282  0.1897  0.7115
 1669TIP3    H126498   4.002   6.672  16.542 -0.7874 -1.3836  1.0677
 1669TIP3    H226499   4.086   6.599  16.439 -1.4981 -1.0635  0.2459
 1670TIP3   OH226500   3.102   3.683   3.959  0.2399  0.0475  0.0843
 1670TIP3    H126501   3.102   3.760   4.015  0.7022 -1.4037  2.1893
 1670TIP3    H226502   3.194   3.674   3.932  1.0330 -1.8121  2.9658
 1671TIP3   OH226503   6.623   5.283  16.311  0.2220  0.3980  0.0396
 1671TIP3    H126504   6.567   5.330  16.249  0.0659  0.1525 -0.0082
 1671TIP3    H226505   6.666   5.216  16.258  0.1697  0.2546  0.1785
 1672TIP3   OH226506   3.333   4.790   2.581  0.0551 -0.3322  0.1986
 1672TIP3    H126507   3.380   4.833   2.510 -0.3420 -1.0527 -0.5198
 1672TIP3    H226508   3.401   4.753   2.637  0.3567 -0.5593 -0.3174
 1673TIP3   OH226509   4.296   4.707   3.638 -0.1653 -0.3872  0.1529
 1673TIP3    H126510   4.270   4.717   3.729 -1.7274  0.4149 -0.3378
 1673TIP3    H226511   4.340   4.622   3.635  0.2892 -0.2390  1.7155
 1674TIP3   OH226512   0.926   1.772   0.410  0.0543  0.4183  0.2505
 1674TIP3    H126513   0.842   1.814   0.428 -0.4595 -0.8594  0.9912
 1674TIP3    H226514   0.990   1.830   0.451 -0.2616  2.2716 -1.7329
 1675TIP3   OH226515   3.575   3.560  14.754  0.3627  0.4417 -0.2171
 1675TIP3    H126516   3.563   3.621  14.682  2.8461  0.9688 -0.2524
 1675TIP3    H226517   3.591   3.615  14.830  0.5217 -0.1355  0.1718
 1676TIP3   OH226518   1.781   5.386   3.367 -0.1443  0.4619 -0.2603
 1676TIP3    H126519   1.799   5.468   3.413 -2.0802 -0.6407  2.8424
 1676TIP3    H226520   1.861   5.334   3.377  0.4726  1.3101 -0.7099
 1677TIP3   OH226521   3.103   0.053   1.645  0.0067  0.5734  0.0469
 1677TIP3    H126522   3.139  -0.002   1.575  1.0303 -0.4369  1.3214
 1677TIP3    H226523   3.175   0.112   1.668 -0.1250  0.5107  0.6398
 1678TIP3   OH226524   6.311   0.253  16.964 -0.2859  0.4130 -0.1970
 1678TIP3    H126525   6.252   0.177  16.969 -2.1463  1.8546  2.0093
 1678TIP3    H226526   6.321   0.270  16.870 -1.2240 -1.5067 -0.6888
 1679TIP3   OH226527   6.671   3.801   1.330  0.2064  0.1238 -0.5493
 1679TIP3    H126528   6.665   3.896   1.317  2.3326  0.1479 -1.7995
 1679TIP3    H226529   6.764   3.782   1.324 -0.2093 -2.1094 -0.6719
 1680TIP3   OH226530   2.500   4.468  11.973 -0.0295 -0.3231  0.5059
 1680TIP3    H126531   2.477   4.500  11.885 -0.8536 -1.5190  0.2568
 1680TIP3    H226532   2.587   4.502  11.989 -0.2439  0.7041 -0.3906
 1681TIP3   OH226533   0.128   4.844  16.958  0.2749  0.8102 -0.1985
 1681TIP3    H126534   0.054   4.784  16.943 -0.3862  0.9583  2.0364
 1681TIP3    H226535   0.127   4.903  16.883 -0.9369 -0.1312 -0.9626
 1682TIP3   OH226536   1.740   4.125  15.167  0.5107 -0.0740 -0.2919
 1682TIP3    H126537   1.689   4.193  15.121  0.4477  0.2917  0.3057
 1682TIP3    H226538   1.771   4.067  15.097  1.2019  0.9886 -0.9069
 1683TIP3   OH226539   4.685   6.723  11.116 -0.0736  0.5045  0.4789
 1683TIP3    H126540   4.643   6.650  11.069  0.7172  0.9718 -1.0000
 1683TIP3    H226541   4.620   6.749  11.181  0.8717 -3.7487  3.5842
 1684TIP3   OH226542   4.482   1.245  12.788  0.2554  0.0729  0.2669
 1684TIP3    H126543   4.499   1.338  12.772 -0.1841  0.0580 -0.3231
 1684TIP3    H226544   4.392   1.232  12.759  0.5560 -0.6992 -0.3731
 1685TIP3   OH226545   2.127   3.192  12.640  0.2670  0.1373 -1.2322
 1685TIP3    H126546   2.109   3.163  12.551 -1.1848  0.5317 -1.0923
 1685TIP3    H226547   2.082   3.129  12.696  0.7094  0.2067 -0.7904
 1686TIP3   OH226548   1.745   6.136  14.243  0.9846 -0.1553  0.4531
 1686TIP3    H126549   1.780   6.050  14.265 -0.5901 -0.8909  0.2137
 1686TIP3    H226550   1.650   6.126  14.251  0.6887  1.1565 -0.9241
 1687TIP3   OH226551   4.986   1.394  12.864 -0.1919 -0.4541  0.2998
 1687TIP3    H126552   5.044   1.458  12.905 -0.6432 -0.3774  0.8283
 1687TIP3    H226553   4.967   1.331  12.933 -1.0847 -0.2399  0.2630
 1688TIP3   OH226554   3.726   3.470   5.590 -0.8282  0.1134 -0.1177
 1688TIP3    H126555   3.667   3.425   5.529 -1.4287  0.2625  0.3405
 1688TIP3    H226556   3.702   3.435   5.676 -2.4509  2.4478  0.4674
 1689TIP3   OH226557   0.448   4.309   4.519 -0.1235 -0.3512 -0.1278
 1689TIP3    H126558   0.531   4.352   4.497 -1.7088  2.1187 -1.8237
 1689TIP3    H226559   0.400   4.374   4.569 -2.1808 -0.5366 -1.7452
 1690TIP3   OH226560   6.425   3.062   4.042  0.0425 -0.1263 -0.2020
 1690TIP3    H126561   6.421   3.152   4.009 -2.5279 -0.0192  0.2145
 1690TIP3    H226562   6.421   3.008   3.963  0.1650  0.1138 -0.3766
 1691TIP3   OH226563   4.028   6.605   6.612  0.4827 -0.1618 -0.4743
 1691TIP3    H126564   4.097   6.670   6.609  0.3152  0.2571  2.2926
 1691TIP3    H226565   4.073   6.523   6.632  0.3080 -0.1034  0.1785
 1692TIP3   OH226566   5.776   2.837   5.230  0.5364  0.5568  0.5349
 1692TIP3    H126567   5.822   2.907   5.275 -0.5220  2.0415 -0.5825
 1692TIP3    H226568   5.842   2.768   5.219  0.8783  0.1764  4.0613
 1693TIP3   OH226569   1.940   5.128   4.005 -0.1127  0.4831 -0.1033
 1693TIP3    H126570   1.916   5.202   3.948 -0.2702  0.8173  0.3950
 1693TIP3    H226571   2.026   5.151   4.039  0.4120 -0.1685 -0.9601
 1694TIP3   OH226572   3.245   2.404   3.873  0.1650 -0.2171 -0.2007
 1694TIP3    H126573   3.197   2.359   3.942  3.4610 -1.1402  1.7004
 1694TIP3    H226574   3.221   2.496   3.882  0.2810 -0.3635  2.0522
 1695TIP3   OH226575   4.216   3.278   4.670 -0.0869 -0.1171 -0.5247
 1695TIP3    H126576   4.220   3.261   4.576  0.5146 -0.4559 -0.4445
 1695TIP3    H226577   4.210   3.190   4.709 -0.3439  0.0230 -0.2508
 1696TIP3   OH226578   5.548   4.050  14.628  0.1274 -0.1556 -0.3865
 1696TIP3    H126579   5.527   4.016  14.715 -1.4921  0.0516 -0.6557
 1696TIP3    H226580   5.636   4.087  14.636  0.3470 -0.9290  0.9197
 1697TIP3   OH226581   4.842   1.683  14.591 -0.7865 -0.7126 -0.0940
 1697TIP3    H126582   4.886   1.768  14.589 -1.4427 -0.3712 -0.4229
 1697TIP3    H226583   4.752   1.702  14.563 -1.2462 -1.3396  0.8847
 1698TIP3   OH226584   4.925   4.850  16.512 -0.4110 -0.3245 -0.2618
 1698TIP3    H126585   4.953   4.799  16.436 -1.2610 -0.3908 -0.5419
 1698TIP3    H226586   4.894   4.933  16.475 -0.5383 -0.2367  0.0375
 1699TIP3   OH226587   0.504   4.901   2.324 -0.3505  0.0201 -0.8967
 1699TIP3    H126588   0.586   4.884   2.371 -0.4750  0.1751 -0.6200
 1699TIP3    H226589   0.528   4.898   2.232 -0.2035 -0.8289 -0.8455
 1700TIP3   OH226590   0.718   3.607   4.697  0.5685 -0.0180  0.3067
 1700TIP3    H126591   0.706   3.686   4.749 -1.4855 -0.7404  1.0264
 1700TIP3    H226592   0.809   3.580   4.714  1.3560  2.2089 -0.0861
 1701TIP3   OH226593   1.604   6.602  15.296 -0.6167  0.4055  0.7429
 1701TIP3    H126594   1.685   6.614  15.347 -0.5725 -0.1254  0.8015
 1701TIP3    H226595   1.541   6.568  15.360  0.0917 -2.5862 -0.0006
 1702TIP3   OH226596   2.647   2.571   5.737  0.2058  0.3864 -0.4905
 1702TIP3    H126597   2.561   2.548   5.773 -0.6735  0.2004 -2.5538
 1702TIP3    H226598   2.656   2.515   5.659  2.9418 -0.7845  0.5303
 1703TIP3   OH226599   6.372   4.479   3.877 -0.7136 -0.1788 -0.2706
 1703TIP3    H126600   6.333   4.518   3.799 -1.1982 -0.5522 -0.2153
 1703TIP3    H226601   6.364   4.546   3.945 -0.8871 -0.1040 -0.3662
 1704TIP3   OH226602   5.967   3.802  14.828 -0.9265 -0.5516 -0.0831
 1704TIP3    H126603   6.015   3.809  14.746 -0.6366 -3.3848 -0.2766
 1704TIP3    H226604   5.930   3.889  14.843  2.1346  1.0870 -1.2200
 1705TIP3   OH226605   2.736   1.991  12.900  0.1069 -0.7539 -0.3381
 1705TIP3    H126606   2.699   1.976  12.813 -0.8116  1.4275 -0.4003
 1705TIP3    H226607   2.692   1.928  12.956 -0.3900 -1.1949 -1.2011
 1706TIP3   OH226608   4.115   5.340   5.912 -0.5972 -1.2633  0.5423
 1706TIP3    H126609   4.060   5.339   5.991  1.8799 -1.0229  2.3627
 1706TIP3    H226610   4.160   5.255   5.913  1.4974 -0.1943  0.9526
 1707TIP3   OH226611   4.937   3.418   5.262 -0.0739 -0.4548 -0.0783
 1707TIP3    H126612   4.849   3.408   5.226  0.3177 -0.0079 -1.2273
 1707TIP3    H226613   4.955   3.512   5.254  0.1356 -0.3839  1.0808
 1708TIP3   OH226614   2.843   2.005   0.904  0.1590  0.1393  0.6093
 1708TIP3    H126615   2.832   2.092   0.942  0.6402  0.1614  0.7050
 1708TIP3    H226616   2.758   1.985   0.865  0.7364  1.7537 -1.7430
 1709TIP3   OH226617   2.250   5.576   2.964  0.3551 -0.0908 -0.1457
 1709TIP3    H126618   2.305   5.498   2.964  2.8116  1.4863 -2.6123
 1709TIP3    H226619   2.299   5.641   3.015  0.1623  0.9306 -1.2197
 1710TIP3   OH226620   5.660   2.718  14.489  0.8322 -0.2475  0.1321
 1710TIP3    H126621   5.668   2.683  14.578 -1.3260  0.4387  0.6466
 1710TIP3    H226622   5.604   2.656  14.443 -0.6369  0.9803  0.2034
 1711TIP3   OH226623   2.542   0.622  16.787 -0.2041 -0.3982  0.1852
 1711TIP3    H126624   2.564   0.610  16.695 -0.8228  0.4577 -0.0805
 1711TIP3    H226625   2.498   0.541  16.812  2.2319 -1.7496  0.4570
 1712TIP3   OH226626   5.925   1.694  16.845 -0.3767 -0.2827  0.2503
 1712TIP3    H126627   5.987   1.766  16.844  2.3412 -2.4861  0.1284
 1712TIP3    H226628   5.930   1.655  16.758 -2.2414 -0.3287  0.1044
 1713TIP3   OH226629   1.070   5.534  15.010 -0.3729  0.2547 -0.4479
 1713TIP3    H126630   1.039   5.592  15.080 -0.0690  1.3445 -1.1962
 1713TIP3    H226631   0.995   5.527  14.950 -0.3110  0.1031 -0.5082
 1714TIP3   OH226632   4.291   5.555  17.060  0.0779 -0.1993 -0.4019
 1714TIP3    H126633   4.254   5.473  17.092  0.8913 -0.0617  0.9545
 1714TIP3    H226634   4.257   5.621  17.120  0.1631  0.3388 -0.9355
 1715TIP3   OH226635   1.615   4.197   3.822  0.3422 -0.0256  0.5990
 1715TIP3    H126636   1.653   4.270   3.870 -2.2270  1.5662  0.3979
 1715TIP3    H226637   1.532   4.179   3.867 -0.1602 -1.2602 -0.7481
 1716TIP3   OH226638   4.301   4.880  15.058 -0.1657 -0.2348  0.0656
 1716TIP3    H126639   4.286   4.972  15.082 -2.6807 -0.4487 -0.3325
 1716TIP3    H226640   4.323   4.882  14.965  1.7686  0.0674  0.5056
 1717TIP3   OH226641   2.748   5.351  11.196  0.2145 -0.6171 -0.3744
 1717TIP3    H126642   2.797   5.330  11.276 -1.2840 -4.1934 -0.1877
 1717TIP3    H226643   2.813   5.390  11.138  2.4954 -2.0554  1.0332
 1718TIP3   OH226644   0.214   5.145  13.397  0.4257  0.5233 -0.3389
 1718TIP3    H126645   0.208   5.237  13.372  1.2129  0.5344 -0.5094
 1718TIP3    H226646   0.125   5.122  13.426  0.4196  1.5693  0.5427
 1719TIP3   OH226647   1.232   3.155   5.069 -0.1022  0.6329  0.3790
 1719TIP3    H126648   1.241   3.072   5.023 -0.5385  0.6184  0.3163
 1719TIP3    H226649   1.141   3.158   5.096  0.2290  0.4932  1.5429
 1720TIP3   OH226650   1.359   1.276  13.575 -0.6241  0.0676 -0.5972
 1720TIP3    H126651   1.342   1.345  13.511 -0.1757  0.9008  0.1490
 1720TIP3    H226652   1.308   1.201  13.544  0.3480  0.1106 -2.4359
 1721TIP3   OH226653   4.693   2.113  15.149 -0.6449  0.2260  0.0809
 1721TIP3    H126654   4.731   2.123  15.062 -0.1170  1.0879  0.4026
 1721TIP3    H226655   4.614   2.061  15.134  0.4175 -1.2637 -0.6513
 1722TIP3   OH226656   2.008   3.369  13.485 -0.2772 -0.3165 -0.4125
 1722TIP3    H126657   2.064   3.335  13.555  0.6539 -0.0932 -1.0394
 1722TIP3    H226658   1.950   3.296  13.463  2.8343 -2.2802 -2.9680
 1723TIP3   OH226659   5.800   2.596  15.923 -0.2494 -0.4161 -0.0875
 1723TIP3    H126660   5.830   2.514  15.883 -0.2364 -0.2580 -0.4034
 1723TIP3    H226661   5.738   2.633  15.860  0.6852  0.4396 -0.5476
 1724TIP3   OH226662   4.047   1.979  14.084 -0.8744  0.3149 -0.2964
 1724TIP3    H126663   4.031   1.909  14.148  1.5141 -1.2042 -1.2375
 1724TIP3    H226664   4.116   2.033  14.124 -0.3779  0.1880 -0.9721
 1725TIP3   OH226665   6.236   2.532  10.957  0.0771  0.4385  0.1502
 1725TIP3    H126666   6.197   2.473  10.893  0.9520 -0.0887  0.0907
 1725TIP3    H226667   6.330   2.524  10.942  0.3557 -0.3893  2.1045
 1726TIP3   OH226668   6.344   5.799   4.701  0.1578 -0.3184 -0.3692
 1726TIP3    H126669   6.330   5.874   4.759  1.9134 -0.3462  0.1311
 1726TIP3    H226670   6.387   5.836   4.624  1.7142 -0.8892  0.1962
 1727TIP3   OH226671   6.102   0.607  14.057 -0.2995 -0.1215  0.0026
 1727TIP3    H126672   6.019   0.602  14.105 -0.8210  0.6126 -0.7903
 1727TIP3    H226673   6.092   0.542  13.987  0.5372 -1.3355  0.9621
 1728TIP3   OH226674   4.982   5.164   1.675  0.5056  0.0231 -0.2336
 1728TIP3    H126675   4.941   5.079   1.658 -1.1486  0.8275 -0.4391
 1728TIP3    H226676   4.954   5.219   1.602 -0.5360  1.4373  1.1528
 1729TIP3   OH226677   2.231   0.628   5.966 -0.2236 -0.1086  0.1826
 1729TIP3    H126678   2.221   0.721   5.945 -0.6669 -0.5045 -1.5567
 1729TIP3    H226679   2.145   0.602   6.000 -0.2590  0.0119  0.1862
 1730TIP3   OH226680   5.687   5.580  12.891  0.4668  0.1292  0.4207
 1730TIP3    H126681   5.658   5.669  12.871  0.2937  0.2944  1.3774
 1730TIP3    H226682   5.773   5.591  12.931  0.9877 -0.2261 -0.5637
 1731TIP3   OH226683   0.922   4.278  15.440  0.2249 -0.4946  0.2116
 1731TIP3    H126684   0.867   4.273  15.363  0.2937  1.6411 -0.0198
 1731TIP3    H226685   0.947   4.370  15.447  1.2444 -0.8480  2.0670
 1732TIP3   OH226686   2.839   5.235  12.159  0.0068  0.6904  0.4739
 1732TIP3    H126687   2.772   5.168  12.150  0.6492  0.1921 -0.8438
 1732TIP3    H226688   2.793   5.317  12.141 -0.0450  0.2518 -1.6486
 1733TIP3   OH226689   3.398   2.670   4.605  0.2370 -0.3036  0.0093
 1733TIP3    H126690   3.320   2.713   4.569 -1.0819 -2.2473  0.3708
 1733TIP3    H226691   3.380   2.576   4.595  1.7205 -0.8379  1.8311
 1734TIP3   OH226692   5.232   2.324   0.309  0.6040 -0.3150  0.1910
 1734TIP3    H126693   5.208   2.415   0.290  0.8486 -0.3399 -0.2389
 1734TIP3    H226694   5.149   2.281   0.327  0.4882 -0.0004  0.4294
 1735TIP3   OH226695   5.124   2.027  13.418  0.1935  0.5150  0.2145
 1735TIP3    H126696   5.118   2.121  13.401  0.9276  0.5368  0.0473
 1735TIP3    H226697   5.212   2.015  13.453 -0.2696  0.0390  1.2491
 1736TIP3   OH226698   2.094   0.980   3.281  0.2775  0.0823  0.2937
 1736TIP3    H126699   2.047   0.933   3.213 -1.4528  0.6705  1.0283
 1736TIP3    H226700   2.177   1.004   3.241  0.6758 -2.4061 -0.5164
 1737TIP3   OH226701   6.193   2.747  14.510 -0.3842  0.1662 -0.0499
 1737TIP3    H126702   6.109   2.790  14.493 -0.3722  0.9820  1.7123
 1737TIP3    H226703   6.216   2.775  14.599  0.8682 -1.4942  0.1904
 1738TIP3   OH226704   1.536   2.088   2.733  0.0496 -0.1857  0.0141
 1738TIP3    H126705   1.514   2.181   2.725  1.4970  0.1281 -0.6165
 1738TIP3    H226706   1.470   2.043   2.680  0.2542  0.6134 -0.9381
 1739TIP3   OH226707   2.497   1.695   2.794  0.4952  0.2753 -0.0039
 1739TIP3    H126708   2.437   1.675   2.722  0.0437  0.2683  0.3678
 1739TIP3    H226709   2.474   1.785   2.820 -1.6850 -0.8388  2.3399
 1740TIP3   OH226710   1.693   2.202   4.674  0.4104  0.0658  0.2630
 1740TIP3    H126711   1.645   2.205   4.757 -2.2636 -1.3948 -1.0981
 1740TIP3    H226712   1.718   2.293   4.658 -0.1530  0.5704  2.0139
 1741TIP3   OH226713   0.431   0.369   2.316  0.2876  0.1782  0.0920
 1741TIP3    H126714   0.498   0.438   2.317 -0.7933  1.3342 -1.3439
 1741TIP3    H226715   0.355   0.409   2.357  0.3117 -0.9774  1.3126
 1742TIP3   OH226716   3.040   2.682  11.100 -0.8030 -0.2192 -0.1562
 1742TIP3    H126717   3.062   2.605  11.153  1.8809  1.0410  0.7278
 1742TIP3    H226718   3.050   2.756  11.160  1.7044  1.2233 -2.1295
 1743TIP3   OH226719   4.504   3.078  16.240  0.1178  0.2585 -0.7122
 1743TIP3    H126720   4.581   3.129  16.214 -0.0165  1.4077  1.0176
 1743TIP3    H226721   4.540   2.992  16.264  0.6901  0.3939 -1.0552
 1744TIP3   OH226722   4.753   1.496   1.697 -0.4242 -0.4484 -0.1165
 1744TIP3    H126723   4.711   1.522   1.779 -0.0296 -0.4872  0.1004
 1744TIP3    H226724   4.820   1.433   1.723  0.8279  0.7816 -0.2812
 1745TIP3   OH226725   1.879   0.613   0.920  0.0757 -0.0192 -0.0853
 1745TIP3    H126726   1.890   0.518   0.924 -0.0960 -0.0390 -0.0652
 1745TIP3    H226727   1.966   0.646   0.901  0.1076 -0.1912 -0.2476
 1746TIP3   OH226728   6.565   2.488   3.276  0.2505  0.1014 -0.2798
 1746TIP3    H126729   6.651   2.467   3.314  2.3804  0.7463 -4.1926
 1746TIP3    H226730   6.567   2.446   3.190 -3.3429  0.3680 -0.6236
 1747TIP3   OH226731   5.293   1.681  15.649 -0.4549  0.3569 -0.1606
 1747TIP3    H126732   5.327   1.595  15.670 -0.1524  1.0384  2.5122
 1747TIP3    H226733   5.285   1.682  15.554  2.1192 -1.6274 -0.4810
 1748TIP3   OH226734   3.529   1.619  17.175 -0.0292  0.3773  0.4599
 1748TIP3    H126735   3.477   1.684  17.129  0.6487  0.5314 -0.0882
 1748TIP3    H226736   3.578   1.574  17.107 -0.2330 -0.4926  0.8651
 1749TIP3   OH226737   4.300   2.247   2.174  0.0098  0.1308  0.6005
 1749TIP3    H126738   4.357   2.276   2.245  0.0248  2.7098 -0.3664
 1749TIP3    H226739   4.279   2.327   2.126 -0.6066 -1.4109 -1.8720
 1750TIP3   OH226740   2.359   3.403  15.803 -0.6065 -0.5684 -0.0608
 1750TIP3    H126741   2.423   3.337  15.832  0.3862 -0.4869 -1.8858
 1750TIP3    H226742   2.401   3.487  15.822 -0.3492 -0.5137 -0.8070
 1751TIP3   OH226743   2.350   6.657   0.081 -0.1454  0.6954 -0.1241
 1751TIP3    H126744   2.372   6.750   0.083 -0.8531  0.8876 -0.7940
 1751TIP3    H226745   2.396   6.623   0.004  0.4925  0.3815  0.3865
 1752TIP3   OH226746   4.609   1.536  15.395  0.1580 -0.0333 -0.2466
 1752TIP3    H126747   4.520   1.550  15.428 -0.0629 -0.2434 -0.7294
 1752TIP3    H226748   4.637   1.622  15.365 -0.5778 -0.2815 -1.7333
 1753TIP3   OH226749   1.081   3.961   0.038 -0.2429 -0.1639  0.1431
 1753TIP3    H126750   1.143   4.027   0.069 -0.1448  1.4612 -3.1200
 1753TIP3    H226751   0.995   3.996   0.060 -0.1319 -0.1563  0.5713
 1754TIP3   OH226752   5.652   2.349  14.153 -0.4453 -0.2801  0.6233
 1754TIP3    H126753   5.668   2.381  14.242 -0.6162 -2.1949  1.3775
 1754TIP3    H226754   5.731   2.374  14.104 -0.4112  0.9101  1.2557
 1755TIP3   OH226755   0.816   2.384   3.183 -0.2515 -0.4262  0.3363
 1755TIP3    H126756   0.849   2.316   3.124  0.8257  1.1262 -0.9477
 1755TIP3    H226757   0.723   2.392   3.162 -0.5954 -2.0802  1.1332
 1756TIP3   OH226758   3.050   3.525   1.669 -0.3791  0.2184 -0.3175
 1756TIP3    H126759   3.128   3.551   1.718  0.2720 -1.8769 -0.1503
 1756TIP3    H226760   2.978   3.565   1.717  0.4614  0.8008  0.5036
 1757TIP3   OH226761   1.055   5.081  11.783  0.0221  0.2026  0.3963
 1757TIP3    H126762   1.017   5.161  11.819 -0.2410 -0.0770  0.7483
 1757TIP3    H226763   1.133   5.111  11.736  0.1128  0.6237  0.8089
 1758TIP3   OH226764   0.582   2.159   4.862  0.5189 -0.1279 -0.2547
 1758TIP3    H126765   0.592   2.069   4.891  1.4428  0.0454 -0.0110
 1758TIP3    H226766   0.629   2.163   4.779 -0.0509 -0.0184 -0.5803
 1759TIP3   OH226767   2.299   3.672   6.055 -0.4604 -0.5130 -0.2237
 1759TIP3    H126768   2.224   3.731   6.064 -0.4414 -0.3844 -0.8655
 1759TIP3    H226769   2.335   3.666   6.144 -0.8157 -0.0272 -0.0392
 1760TIP3   OH226770   5.057   0.896  12.674 -0.0604  0.5513 -0.1348
 1760TIP3    H126771   4.996   0.936  12.736 -1.7641 -0.2002 -1.2569
 1760TIP3    H226772   5.143   0.929  12.701 -0.8999  1.4216  1.6807
 1761TIP3   OH226773   1.788   0.263  16.622  0.5654 -0.3938 -0.0534
 1761TIP3    H126774   1.701   0.225  16.612 -0.3032  0.6794  2.5796
 1761TIP3    H226775   1.848   0.189  16.609 -0.6656 -1.1349 -1.9715
 1762TIP3   OH226776   6.329   3.325   3.329  0.9890  0.2637 -0.2105
 1762TIP3    H126777   6.234   3.334   3.330  1.0230  0.7232 -0.7603
 1762TIP3    H226778   6.355   3.346   3.239  1.3448 -2.5416 -0.8837
 1763TIP3   OH226779   4.503   4.329  16.516 -0.3467 -0.1942 -0.2751
 1763TIP3    H126780   4.484   4.384  16.592  0.0209 -0.7686  0.2362
 1763TIP3    H226781   4.596   4.345  16.498 -0.6606  0.6854 -1.2183
 1764TIP3   OH226782   4.634   5.091  16.687  0.3469 -0.1559 -0.4308
 1764TIP3    H126783   4.724   5.099  16.718  0.5421 -1.7029 -0.5039
 1764TIP3    H226784   4.626   5.155  16.616  1.0121  0.8236  0.3565
 1765TIP3   OH226785   2.559   5.121   2.768  0.1783  0.3604 -0.3166
 1765TIP3    H126786   2.613   5.199   2.758  0.2760  0.1221 -1.8419
 1765TIP3    H226787   2.495   5.127   2.697  0.4020 -1.1032 -0.6708
 1766TIP3   OH226788   6.504   4.180   3.346 -0.3230 -0.0900 -0.6022
 1766TIP3    H126789   6.518   4.275   3.339  2.2926 -0.2725  0.9634
 1766TIP3    H226790   6.426   4.172   3.401 -0.6847  1.1541 -0.9022
 1767TIP3   OH226791   2.606   3.241  16.460  0.6334 -0.0240  0.6369
 1767TIP3    H126792   2.645   3.188  16.390  0.2414  1.8369 -1.0890
 1767TIP3    H226793   2.603   3.183  16.536  2.4218 -1.6784 -0.4788
 1768TIP3   OH226794   3.185   2.511  17.061  0.1199  0.4537  0.3380
 1768TIP3    H126795   3.253   2.567  17.024 -2.0768  3.1428 -0.0304
 1768TIP3    H226796   3.205   2.423  17.030  2.1035  1.5119 -1.6035
 1769TIP3   OH226797   3.236   5.995   3.199  0.0205  0.0421  0.0671
 1769TIP3    H126798   3.143   5.973   3.208  0.5594 -1.4154  3.4818
 1769TIP3    H226799   3.281   5.910   3.200  1.4919  0.7762 -0.3445
 1770TIP3   OH226800   3.118   6.216  12.952  0.1109 -0.1475 -0.5840
 1770TIP3    H126801   3.023   6.208  12.942 -0.3141  1.9842  1.0953
 1770TIP3    H226802   3.131   6.298  12.999  2.8278 -0.2435 -0.9797
 1771TIP3   OH226803   0.544   3.541  11.365 -0.0365 -0.1576 -0.0647
 1771TIP3    H126804   0.579   3.568  11.280 -1.5884 -0.5299 -0.8544
 1771TIP3    H226805   0.590   3.459  11.384  1.2438  0.5631  0.0939
 1772TIP3   OH226806   0.619   0.460  10.606 -0.0273 -0.3129 -0.4020
 1772TIP3    H126807   0.571   0.387  10.568  1.2273 -0.9076 -0.9188
 1772TIP3    H226808   0.694   0.419  10.651  0.1495  0.5846  0.1599
 1773TIP3   OH226809   6.291   3.808  15.912 -0.0403  0.6623  0.2618
 1773TIP3    H126810   6.319   3.830  16.001  0.3218 -0.5929  0.4778
 1773TIP3    H226811   6.197   3.826  15.912  0.0033  0.9340  0.8106
 1774TIP3   OH226812   0.395   5.625   4.006  0.1610 -0.5120 -0.1164
 1774TIP3    H126813   0.356   5.692   4.060  0.7555  0.3116 -0.6755
 1774TIP3    H226814   0.329   5.605   3.940  0.2214  0.0020 -0.3371
 1775TIP3   OH226815   6.330   0.099  13.577 -0.2426 -0.0399  0.1763
 1775TIP3    H126816   6.275   0.174  13.598 -0.2556  0.0738 -0.2437
 1775TIP3    H226817   6.419   0.128  13.596 -0.2013  0.2523 -0.4354
 1776TIP3   OH226818   3.169   0.546  17.144  0.0470 -0.7599 -0.6586
 1776TIP3    H126819   3.149   0.515  17.056 -0.0448 -2.3542 -0.1016
 1776TIP3    H226820   3.228   0.620  17.130 -0.5730 -0.5049 -2.0756
 1777TIP3   OH226821   4.405   6.795  14.310 -0.3846 -0.4557  1.0742
 1777TIP3    H126822   4.390   6.889  14.316 -1.6266 -0.5135 -0.6650
 1777TIP3    H226823   4.328   6.760  14.265  1.3342 -1.8800 -0.9756
 1778TIP3   OH226824   6.188   4.049   1.909  0.0287  0.5518 -0.0860
 1778TIP3    H126825   6.113   4.016   1.859  0.5080 -0.6483 -0.0477
 1778TIP3    H226826   6.177   4.011   1.996  0.2616  1.0259  0.1545
 1779TIP3   OH226827   5.785   2.286   3.322  0.1420  0.2355 -0.2665
 1779TIP3    H126828   5.780   2.221   3.252  0.4995 -0.5531  0.4197
 1779TIP3    H226829   5.876   2.315   3.322 -0.1151  1.0837 -0.8598
 1780TIP3   OH226830   2.057   5.151  17.251  0.3850  0.2049  0.3591
 1780TIP3    H126831   2.004   5.162  17.330 -0.0737 -1.5901  0.3509
 1780TIP3    H226832   2.095   5.063  17.260  1.0162  0.3094 -1.0193
 1781TIP3   OH226833   3.692   2.431   0.537 -0.5137 -0.6028 -0.2450
 1781TIP3    H126834   3.661   2.518   0.515 -1.5196 -0.8917 -0.0178
 1781TIP3    H226835   3.783   2.429   0.505 -0.9313  0.0299 -1.5589
 1782TIP3   OH226836   4.849   5.138  15.772 -0.1325 -0.1042  0.2895
 1782TIP3    H126837   4.870   5.073  15.705 -1.0684 -1.4093  1.1960
 1782TIP3    H226838   4.754   5.133  15.781  0.0116 -0.3152  2.0279
 1783TIP3   OH226839   5.778   0.257  11.626  0.3994  0.1054 -0.0519
 1783TIP3    H126840   5.734   0.179  11.660 -1.3045 -0.0787 -2.3746
 1783TIP3    H226841   5.718   0.329  11.646  0.1346  0.2138 -1.1393
 1784TIP3   OH226842   6.339   0.302   0.568 -0.1433 -0.1905 -0.0271
 1784TIP3    H126843   6.342   0.335   0.657 -0.1511  2.2061 -0.8486
 1784TIP3    H226844   6.248   0.275   0.555 -0.1940 -0.3335  0.5953
 1785TIP3   OH226845   0.242   3.992   1.479  0.6793  0.1508 -0.0484
 1785TIP3    H126846   0.289   4.047   1.541  0.2865  0.4238  0.0110
 1785TIP3    H226847   0.229   4.047   1.402 -0.4763  0.4538  0.3367
 1786TIP3   OH226848   6.471   0.554  11.844  0.1013  0.0057 -0.3643
 1786TIP3    H126849   6.432   0.581  11.927 -0.8451 -0.7263 -0.5487
 1786TIP3    H226850   6.479   0.635  11.794 -1.2885  0.1760 -0.3442
 1787TIP3   OH226851   5.866   1.869  14.759  0.6541  0.2793  0.5125
 1787TIP3    H126852   5.946   1.864  14.706  1.2573 -3.7716  1.4644
 1787TIP3    H226853   5.872   1.794  14.817 -2.8423  1.1356  2.2232
 1788TIP3   OH226854   4.488   4.955   5.212 -0.4941  0.1422 -0.5981
 1788TIP3    H126855   4.410   4.902   5.226 -0.3283 -0.7209 -2.6349
 1788TIP3    H226856   4.495   5.009   5.291 -1.3738 -1.9353  0.9870
 1789TIP3   OH226857   4.955   1.773   6.375  0.3392  0.0210 -0.0675
 1789TIP3    H126858   5.049   1.769   6.396  0.4849 -0.9657 -0.8024
 1789TIP3    H226859   4.950   1.832   6.300  0.4226 -0.2042 -0.2520
 1790TIP3   OH226860   0.080   5.689  13.223 -0.3232 -0.0415  0.0077
 1790TIP3    H126861   0.163   5.664  13.182  0.0019  1.8064 -0.5480
 1790TIP3    H226862   0.099   5.772  13.266 -1.1690 -0.9818  2.3222
 1791TIP3   OH226863   3.210   5.283   0.198 -0.8751 -0.6416 -0.8184
 1791TIP3    H126864   3.133   5.251   0.151 -1.3015 -0.6549 -0.1171
 1791TIP3    H226865   3.189   5.271   0.290 -0.2634 -0.1122 -0.6017
 1792TIP3   OH226866   6.520   3.202  15.545  0.4815 -0.3417 -0.1243
 1792TIP3    H126867   6.602   3.207  15.594  0.2324 -1.1070  0.3883
 1792TIP3    H226868   6.463   3.147  15.598 -0.0903 -0.4883 -0.8674
 1793TIP3   OH226869   0.954   2.743  11.700  0.2069 -0.1051 -0.3511
 1793TIP3    H126870   0.954   2.826  11.652  2.9813  1.7006  2.3983
 1793TIP3    H226871   0.878   2.750  11.758  0.3930  0.4988 -0.1691
 1794TIP3   OH226872   5.248   4.075  12.748 -0.4942 -0.0628 -0.1316
 1794TIP3    H126873   5.265   4.169  12.743 -1.5254  0.1986  0.8215
 1794TIP3    H226874   5.261   4.053  12.840 -1.2634 -0.6400 -0.1513
 1795TIP3   OH226875   0.196   2.919  17.035 -0.0406 -0.4349  0.1139
 1795TIP3    H126876   0.267   2.884  16.982  0.1517  2.7900 -2.0655
 1795TIP3    H226877   0.116   2.890  16.990  0.1044  1.2290 -1.3228
 1796TIP3   OH226878   6.117   1.387   1.334  0.4587  0.8171  0.2542
 1796TIP3    H126879   6.071   1.351   1.410 -0.0493 -0.4328 -0.6148
 1796TIP3    H226880   6.210   1.379   1.356  0.3894 -1.5415 -0.0787
 1797TIP3   OH226881   2.564   2.825  16.141 -0.2298  0.5670 -0.5502
 1797TIP3    H126882   2.568   2.837  16.046 -1.3723 -0.2780 -0.7344
 1797TIP3    H226883   2.587   2.733  16.155  0.0371  0.7127  0.0026
 1798TIP3   OH226884   2.328   0.762  13.689  0.1836  0.3911 -0.7374
 1798TIP3    H126885   2.283   0.710  13.756  0.9298 -0.1982 -0.6855
 1798TIP3    H226886   2.265   0.768  13.617 -0.0306 -0.3143 -0.6143
 1799TIP3   OH226887   3.371   6.232  14.605 -0.8254  0.2299  0.3855
 1799TIP3    H126888   3.360   6.318  14.645 -0.6977  0.4836 -0.1204
 1799TIP3    H226889   3.291   6.184  14.629  0.4516 -0.6328  3.3668
 1800TIP3   OH226890   4.219   6.747  14.930  0.4712  0.1162 -0.0000
 1800TIP3    H126891   4.200   6.735  14.837 -0.1129 -1.9039  0.3222
 1800TIP3    H226892   4.312   6.729  14.939  0.0314 -2.4715  0.1296
 1801TIP3   OH226893   5.742   2.847  10.739 -0.0824  0.2473 -0.0412
 1801TIP3    H126894   5.676   2.916  10.732 -0.1027  0.1076 -1.3883
 1801TIP3    H226895   5.825   2.890  10.717  0.3772  0.5169  2.0214
 1802TIP3   OH226896   3.834   5.996   3.185  0.2647 -0.3996 -0.5457
 1802TIP3    H126897   3.812   6.089   3.197  0.7324  0.1152 -3.0780
 1802TIP3    H226898   3.766   5.962   3.128 -0.2308 -1.8189  0.8418
 1803TIP3   OH226899   0.741   6.783   0.580  0.3045  0.3435  0.5752
 1803TIP3    H126900   0.824   6.783   0.628  0.2809  0.1804  0.6135
 1803TIP3    H226901   0.705   6.696   0.594  0.8087 -0.0735 -0.6193
 1804TIP3   OH226902   5.646   6.318  11.945 -0.0846 -0.1959 -0.2392
 1804TIP3    H126903   5.632   6.313  12.040  2.5023 -0.5308  0.1895
 1804TIP3    H226904   5.618   6.233  11.912 -0.3793 -0.3251  0.3329
 1805TIP3   OH226905   1.182   4.761  12.195 -0.2722  0.3318 -0.0582
 1805TIP3    H126906   1.107   4.774  12.254  0.1123 -0.0553  0.5269
 1805TIP3    H226907   1.208   4.670  12.210  1.1563  0.8460  0.7546
 1806TIP3   OH226908   0.727   2.915  13.630 -0.1131 -0.2217 -0.2100
 1806TIP3    H126909   0.745   2.993  13.683 -1.1123  0.6943 -1.1636
 1806TIP3    H226910   0.799   2.912  13.567 -0.5260  0.4498 -0.7257
 1807TIP3   OH226911   2.730   6.780   5.465 -0.0656 -0.6099 -0.6363
 1807TIP3    H126912   2.654   6.826   5.429 -0.9471 -1.2681  0.3212
 1807TIP3    H226913   2.736   6.810   5.555  0.4501 -1.0151 -0.5296
 1808TIP3   OH226914   0.997   4.118  10.975 -0.5788  0.1900  0.2746
 1808TIP3    H126915   0.987   4.105  10.881  1.2777  1.4822 -0.1580
 1808TIP3    H226916   1.080   4.076  10.997 -0.7987  0.2440  1.2581
 1809TIP3   OH226917   4.235   2.984   3.448  0.5213  0.4989  0.7624
 1809TIP3    H126918   4.147   2.978   3.409  0.4621  1.8471  0.6523
 1809TIP3    H226919   4.233   2.921   3.520  0.2364 -1.1679 -0.6333
 1810TIP3   OH226920   6.538   4.780   5.703  0.0465  0.0124 -0.1406
 1810TIP3    H126921   6.477   4.789   5.777  0.4718  0.1660  0.1958
 1810TIP3    H226922   6.542   4.867   5.665 -0.8295 -0.2539 -0.8804
 1811TIP3   OH226923   0.268   4.607  12.555  0.4181  0.1657  0.1491
 1811TIP3    H126924   0.362   4.595  12.561  0.2960 -0.1536  2.0627
 1811TIP3    H226925   0.249   4.602  12.461  2.4703  1.7456 -0.4146
 1812TIP3   OH226926   4.908   2.365  14.391 -0.3885 -0.2858 -0.2808
 1812TIP3    H126927   4.979   2.398  14.336 -0.7717  0.3583 -0.3980
 1812TIP3    H226928   4.878   2.286  14.346 -1.6316  0.9831 -1.7997
 1813TIP3   OH226929   0.100   2.425  16.737 -0.5121  0.0808 -0.0603
 1813TIP3    H126930   0.187   2.412  16.699 -0.1830  2.5845 -0.3510
 1813TIP3    H226931   0.042   2.372  16.683  0.9293 -2.7146  0.9439
 1814TIP3   OH226932   0.620   0.393  14.755  0.1285 -0.2118  0.3954
 1814TIP3    H126933   0.607   0.472  14.702  0.3564  0.5217  1.4142
 1814TIP3    H226934   0.564   0.328  14.714 -1.8943  1.1224  0.9159
 1815TIP3   OH226935   5.008   3.779  14.440  0.5554 -0.1531 -0.3417
 1815TIP3    H126936   4.938   3.731  14.396  0.7549  0.0357 -0.8681
 1815TIP3    H226937   5.066   3.710  14.473  1.6241 -0.3026 -2.3577
 1816TIP3   OH226938   2.743   5.687   5.729  0.3384  0.3356 -0.7545
 1816TIP3    H126939   2.765   5.612   5.785 -1.0017  0.1074 -0.4975
 1816TIP3    H226940   2.797   5.676   5.651  0.9261 -0.3184 -0.2613
 1817TIP3   OH226941   5.908   0.421  15.577  0.0472  0.2639 -0.2052
 1817TIP3    H126942   5.980   0.449  15.521  1.7364 -0.2739  1.5982
 1817TIP3    H226943   5.945   0.351  15.632 -1.8291 -0.0030  0.8132
 1818TIP3   OH226944   6.485   2.294  13.263  0.5514 -0.3806  0.1505
 1818TIP3    H126945   6.484   2.220  13.203  1.6481 -0.8413  0.6846
 1818TIP3    H226946   6.520   2.367  13.211  0.9572 -0.6358  0.0619
 1819TIP3   OH226947   2.863   3.737   4.935 -0.1705  0.4830 -0.4177
 1819TIP3    H126948   2.791   3.741   4.873 -1.0667  0.7516  0.6210
 1819TIP3    H226949   2.921   3.809   4.910 -1.1538  1.3722 -0.1820
 1820TIP3   OH226950   0.902   4.484   6.440  0.5369  0.1851  0.6250
 1820TIP3    H126951   0.926   4.576   6.453 -1.2951  0.6173  1.2781
 1820TIP3    H226952   0.810   4.480   6.466  0.0717 -1.4705 -1.0668
 1821TIP3   OH226953   1.156   4.544  13.074  0.1877 -0.6810 -0.5737
 1821TIP3    H126954   1.148   4.455  13.038  0.6324 -0.2014 -1.9283
 1821TIP3    H226955   1.070   4.564  13.109  0.1223 -1.7018 -0.1095
 1822TIP3   OH226956   3.416   6.744   1.633 -0.2033 -0.5768 -0.3626
 1822TIP3    H126957   3.387   6.832   1.659 -1.3902 -1.4112  1.3337
 1822TIP3    H226958   3.507   6.756   1.605 -0.1868  1.1245  0.3117
 1823TIP3   OH226959   5.928   0.840  11.384  0.3782  0.2114 -0.3806
 1823TIP3    H126960   6.006   0.808  11.339 -0.0611 -1.1751 -0.2053
 1823TIP3    H226961   5.892   0.763  11.428 -0.4745  1.0537  0.4671
 1824TIP3   OH226962   2.711   5.766   4.272  1.0013 -0.0761  0.0935
 1824TIP3    H126963   2.747   5.707   4.337  0.1151 -0.8332 -0.0758
 1824TIP3    H226964   2.779   5.773   4.205  2.7515  2.2900  1.9728
 1825TIP3   OH226965   5.722   0.047  14.763  0.4590 -0.1564  0.6717
 1825TIP3    H126966   5.694   0.067  14.852  1.3358  1.5908  0.6165
 1825TIP3    H226967   5.739   0.133  14.724  0.4110 -0.8972 -1.0823
 1826TIP3   OH226968   1.327   1.613   5.816 -0.2324 -0.4243 -0.1095
 1826TIP3    H126969   1.234   1.635   5.806 -0.5327 -1.8538 -0.7663
 1826TIP3    H226970   1.359   1.673   5.883 -1.9599 -0.7606  1.0817
 1827TIP3   OH226971   6.731   1.962  14.397 -0.4606  0.3707  0.1088
 1827TIP3    H126972   6.728   1.926  14.486 -0.8979  1.1731  0.4278
 1827TIP3    H226973   6.727   2.057  14.410  1.3294  0.5993 -0.6710
 1828TIP3   OH226974   4.031   2.863   1.925  0.0201 -0.2012 -0.2485
 1828TIP3    H126975   4.051   2.933   1.988 -0.2037  1.4650 -1.9449
 1828TIP3    H226976   4.117   2.837   1.890  0.3639 -2.4219  1.9069
 1829TIP3   OH226977   5.139   2.328   2.609 -0.0931  0.0667 -0.3107
 1829TIP3    H126978   5.172   2.407   2.651  1.0800 -0.8801  0.6135
 1829TIP3    H226979   5.213   2.267   2.609 -1.4187 -1.6444  0.5385
 1830TIP3   OH226980   4.242   1.246   3.967 -0.7406  0.8283  0.3771
 1830TIP3    H126981   4.190   1.171   3.996  0.0827  0.2704  0.4229
 1830TIP3    H226982   4.202   1.272   3.884 -0.3120 -0.4143 -0.2468
 1831TIP3   OH226983   1.867   5.935  16.499 -0.1095  0.2719  0.4448
 1831TIP3    H126984   1.936   5.902  16.441  0.2825 -1.7436  1.9522
 1831TIP3    H226985   1.866   6.030  16.483  1.3320  0.0373 -1.3728
 1832TIP3   OH226986   6.401   6.721  17.180 -0.2019 -0.0406  0.7383
 1832TIP3    H126987   6.419   6.814  17.164 -1.0259 -0.0742 -0.4758
 1832TIP3    H226988   6.406   6.681  17.094 -2.1487 -0.7202  0.8995
 1833TIP3   OH226989   3.620   3.171   5.758 -1.1364 -0.2338 -0.1568
 1833TIP3    H126990   3.603   3.100   5.820  1.6733 -1.2260 -0.3535
 1833TIP3    H226991   3.643   3.246   5.814 -1.1432 -0.3738  0.0353
 1834TIP3   OH226992   3.653   3.481  11.393  0.2229  0.4615 -0.3927
 1834TIP3    H126993   3.684   3.472  11.303 -0.4665 -2.0613 -0.4640
 1834TIP3    H226994   3.725   3.449  11.447 -0.3208 -0.5336 -0.2391
 1835TIP3   OH226995   5.989   2.560  10.792 -0.6103 -0.6874  0.2815
 1835TIP3    H126996   6.015   2.534  10.703 -1.1344 -1.0469  0.2341
 1835TIP3    H226997   6.003   2.482  10.845 -2.0949 -1.0611  0.1574
 1836TIP3   OH226998   0.488   3.443   3.408  0.3755 -0.3823  0.5363
 1836TIP3    H126999   0.560   3.396   3.449  1.1045 -0.9137 -1.2768
 1836TIP3    H227000   0.422   3.450   3.477  1.8449 -0.5332  2.0157
 1837TIP3   OH227001   5.224   1.829  16.915 -0.0972  0.4433 -0.4626
 1837TIP3    H127002   5.312   1.867  16.911 -0.4586  1.3837  0.3869
 1837TIP3    H227003   5.165   1.903  16.904 -0.8008 -0.1502 -0.7560
 1838TIP3   OH227004   3.284   2.589  15.594 -0.2931  0.2893  0.0329
 1838TIP3    H127005   3.204   2.594  15.647  0.5965  0.7012  1.4073
 1838TIP3    H227006   3.269   2.517  15.533 -0.6194 -1.5768  2.1964
 1839TIP3   OH227007   2.055   2.303   2.731 -0.0385  0.3576  0.4139
 1839TIP3    H127008   1.961   2.290   2.746 -0.2552  1.6673  0.2900
 1839TIP3    H227009   2.076   2.386   2.774  1.1647 -0.1294  0.8100
 1840TIP3   OH227010   4.831   1.403   4.328  1.0028  0.0524 -0.5224
 1840TIP3    H127011   4.814   1.405   4.234  1.5916  0.7037 -0.6217
 1840TIP3    H227012   4.762   1.346   4.363  1.9322 -1.8157 -1.5720
 1841TIP3   OH227013   5.179   3.462  14.928 -1.2170  0.5086  0.2199
 1841TIP3    H127014   5.184   3.409  14.848 -0.3120 -0.2083  0.7243
 1841TIP3    H227015   5.247   3.528  14.917 -1.1362  0.4503  0.3573
 1842TIP3   OH227016   3.209   0.744   2.723  0.3791  0.3191 -0.1877
 1842TIP3    H127017   3.159   0.767   2.802  0.9461  1.3440 -0.1098
 1842TIP3    H227018   3.153   0.681   2.677 -0.5033  0.6300  0.4283
 1843TIP3   OH227019   1.834   6.726   5.451  0.8216  0.4406 -0.0522
 1843TIP3    H127020   1.898   6.795   5.438  0.5089  0.4403 -1.8412
 1843TIP3    H227021   1.772   6.736   5.379 -0.0941 -0.7699  0.5144
 1844TIP3   OH227022   0.239   2.132  13.729 -0.0189 -0.5615  0.0061
 1844TIP3    H127023   0.155   2.127  13.683  0.3237  0.3250 -0.7316
 1844TIP3    H227024   0.293   2.065  13.687  0.2437  0.1430 -0.8162
 1845TIP3   OH227025   3.116   5.426   4.801  0.5707  0.4963 -0.0137
 1845TIP3    H127026   3.022   5.409   4.792  0.0972  2.5507  0.6503
 1845TIP3    H227027   3.145   5.367   4.870 -0.2696  0.0352 -0.0416
 1846TIP3   OH227028   1.426   6.204   6.562  0.1801 -0.0897  0.1179
 1846TIP3    H127029   1.347   6.242   6.600 -0.7858 -1.0926 -0.8131
 1846TIP3    H227030   1.461   6.273   6.505 -0.9983 -0.2130 -0.7941
 1847TIP3   OH227031   3.892   1.326   3.157  0.4951 -0.3502  0.1780
 1847TIP3    H127032   3.964   1.330   3.095  0.1072  1.4840 -0.2232
 1847TIP3    H227033   3.832   1.261   3.121 -0.2817  1.4663 -2.0628
 1848TIP3   OH227034   5.196   0.285   1.465  0.1774  0.1741 -0.4792
 1848TIP3    H127035   5.250   0.206   1.454  1.4613  1.1813 -1.9283
 1848TIP3    H227036   5.256   0.350   1.502 -0.3950  0.9397 -0.8696
 1849TIP3   OH227037   6.607   6.385   5.190  0.8268  0.9887  0.4398
 1849TIP3    H127038   6.535   6.354   5.244  0.3219  1.9446  0.3247
 1849TIP3    H227039   6.619   6.316   5.124 -1.3265  1.7041 -0.7796
 1850TIP3   OH227040   3.860   3.567   1.988  0.1556  0.1987  0.1856
 1850TIP3    H127041   3.842   3.538   2.077 -1.2984  1.3221  0.2894
 1850TIP3    H227042   3.955   3.579   1.986  0.2612 -0.2794  1.4403
 1851TIP3   OH227043   0.684   5.139  11.889 -0.3181 -0.0099  0.2612
 1851TIP3    H127044   0.620   5.129  11.818 -1.1012  3.1389  0.3790
 1851TIP3    H227045   0.738   5.213  11.861 -1.6972  2.4809  3.5462
 1852TIP3   OH227046   2.254   3.270  13.604  0.6978  0.2400  0.4427
 1852TIP3    H127047   2.343   3.271  13.570  0.8819  1.0977  0.9087
 1852TIP3    H227048   2.218   3.186  13.576  1.8211 -0.3401  0.6781
 1853TIP3   OH227049   2.116   2.525   0.190 -0.1217  0.2009  0.6094
 1853TIP3    H127050   2.144   2.506   0.100  1.2913 -0.1059  1.0877
 1853TIP3    H227051   2.109   2.621   0.192  0.3402  0.2467  0.3052
 1854TIP3   OH227052   5.214   4.937  17.257  0.8382 -0.5179 -0.5080
 1854TIP3    H127053   5.246   4.923  17.167  5.2443 -1.6991  0.9918
 1854TIP3    H227054   5.192   4.850  17.288  3.8075 -0.8970  0.8609
 1855TIP3   OH227055   3.446   5.257  12.395  0.0421 -0.2444  0.0155
 1855TIP3    H127056   3.540   5.255  12.379  0.1296 -2.3121  0.5035
 1855TIP3    H227057   3.413   5.327  12.338  1.8881  0.7235  0.0852
 1856TIP3   OH227058   6.496   5.760   0.521 -0.3269  0.4924 -0.2210
 1856TIP3    H127059   6.472   5.667   0.519  0.7104  0.1700  0.8825
 1856TIP3    H227060   6.577   5.765   0.471  0.0341  0.6585  0.3707
 1857TIP3   OH227061   5.600   6.387   0.753 -0.4313  0.4785  0.0482
 1857TIP3    H127062   5.507   6.395   0.732 -0.5749 -0.8736  0.0417
 1857TIP3    H227063   5.622   6.467   0.800 -1.5039  0.9832 -0.2962
 1858TIP3   OH227064   2.718   2.574   0.712  0.0904  0.1492 -0.1221
 1858TIP3    H127065   2.736   2.488   0.674 -0.1662  0.6374 -1.4202
 1858TIP3    H227066   2.778   2.581   0.786  1.3593 -0.4520 -1.0557
 1859TIP3   OH227067   2.464   1.810   0.511 -0.2208 -0.0582 -0.1575
 1859TIP3    H127068   2.464   1.873   0.440 -1.5044  2.5781  1.9751
 1859TIP3    H227069   2.555   1.808   0.542 -0.1815  0.9361 -0.1665
 1860TIP3   OH227070   4.369   3.756   3.809 -0.0403  0.2536  0.0641
 1860TIP3    H127071   4.416   3.700   3.870 -0.0881 -0.1641 -0.2773
 1860TIP3    H227072   4.351   3.700   3.734 -0.7788  0.5115  0.0443
 1861TIP3   OH227073   6.572   6.289   4.176 -0.0302 -0.1884  0.2690
 1861TIP3    H127074   6.543   6.226   4.241  0.5482  0.5993  1.3369
 1861TIP3    H227075   6.642   6.244   4.129 -0.1513 -0.6183  0.4913
 1862TIP3   OH227076   3.457   5.153   0.097  0.1500 -0.6546 -0.2942
 1862TIP3    H127077   3.388   5.184   0.154  1.7492  1.5584  0.5871
 1862TIP3    H227078   3.432   5.183   0.010 -0.3090 -0.4189 -0.0803
 1863TIP3   OH227079   2.963   5.123   1.816  0.0867 -0.2816  0.0049
 1863TIP3    H127080   2.904   5.155   1.884  1.0013 -0.3199  0.8437
 1863TIP3    H227081   2.906   5.073   1.757 -0.5109 -1.6434  1.6398
 1864TIP3   OH227082   5.024   6.251   3.051 -0.6461 -0.3992 -0.5646
 1864TIP3    H127083   5.030   6.245   3.147  0.4750  0.1172 -0.5962
 1864TIP3    H227084   5.033   6.160   3.021 -0.0507 -0.4522 -0.2300
 1865TIP3   OH227085   0.554   1.302  13.053  0.3299 -0.5437  0.1524
 1865TIP3    H127086   0.467   1.307  13.012 -0.2457  3.8541  1.4145
 1865TIP3    H227087   0.539   1.326  13.144  2.8197 -0.2919  0.5638
 1866TIP3   OH227088   3.342   0.684   6.214 -0.0148  0.6755  0.3866
 1866TIP3    H127089   3.348   0.748   6.285 -0.9089  0.1073  0.9938
 1866TIP3    H227090   3.432   0.676   6.182  0.3553  1.1701  1.2588
 1867TIP3   OH227091   4.428   1.039  11.913 -0.1244 -0.0383 -0.3748
 1867TIP3    H127092   4.429   1.133  11.895  1.0561  0.1504  0.5331
 1867TIP3    H227093   4.368   1.029  11.986  0.2393  0.1027 -0.0538
 1868TIP3   OH227094   5.169   5.929  13.405 -0.2057 -0.4683  0.4127
 1868TIP3    H127095   5.240   5.940  13.468 -1.4181 -0.2100  1.7770
 1868TIP3    H227096   5.206   5.873  13.337  0.7100 -2.0118  2.0859
 1869TIP3   OH227097   3.725   5.052  11.091  0.4059  0.8208 -0.2018
 1869TIP3    H127098   3.640   5.091  11.114 -0.2212 -1.1533  1.0395
 1869TIP3    H227099   3.719   5.035  10.997 -1.8488 -2.0706  0.3491
 1870TIP3   OH227100   4.647   4.738   1.209 -0.2312 -0.4903  0.5397
 1870TIP3    H127101   4.593   4.812   1.182 -1.3525 -1.0645  1.1466
 1870TIP3    H227102   4.691   4.768   1.288 -0.2877 -0.2994  0.5006
 1871TIP3   OH227103   5.366   3.166   2.260  0.3645  0.0572 -0.1991
 1871TIP3    H127104   5.323   3.111   2.195  0.2843 -0.9434  0.6692
 1871TIP3    H227105   5.313   3.155   2.339  1.0525  0.4239  0.3240
 1872TIP3   OH227106   6.196   4.775  14.652 -0.3276  0.4953  0.0076
 1872TIP3    H127107   6.136   4.813  14.588 -0.1691  2.6232  1.0297
 1872TIP3    H227108   6.212   4.845  14.715  0.5484 -1.0906  1.6778
 1873TIP3   OH227109   1.418   0.457  15.899  0.3776 -0.1504  0.0080
 1873TIP3    H127110   1.425   0.381  15.957  1.4649  0.0696  0.1901
 1873TIP3    H227111   1.379   0.525  15.953  2.5152  0.4413  0.9274
 1874TIP3   OH227112   1.738   5.377  14.729 -0.0479  0.6186 -0.1176
 1874TIP3    H127113   1.706   5.415  14.647  2.5472  0.1580 -1.4626
 1874TIP3    H227114   1.757   5.286  14.708  1.0352  0.5879  0.8496
 1875TIP3   OH227115   6.461   1.337  15.737 -0.3280  0.2988 -0.4246
 1875TIP3    H127116   6.430   1.251  15.767 -1.7040  0.5985 -0.8949
 1875TIP3    H227117   6.521   1.366  15.805 -1.3782 -0.1828  0.7513
 1876TIP3   OH227118   0.223   2.309  15.510 -0.3835 -0.2511  0.0686
 1876TIP3    H127119   0.209   2.255  15.588 -1.9555  1.4535  1.0610
 1876TIP3    H227120   0.141   2.303  15.462  0.2253 -0.4895 -0.9698
 1877TIP3   OH227121   5.352   4.959  11.913 -0.4555  0.5366 -0.0455
 1877TIP3    H127122   5.409   4.882  11.910 -2.9736 -1.4762  0.0056
 1877TIP3    H227123   5.395   5.023  11.858  0.7215 -1.7027 -1.9143
 1878TIP3   OH227124   5.433   6.140   5.163 -0.2702 -0.3473 -0.0960
 1878TIP3    H127125   5.520   6.115   5.132 -0.4571 -1.6195  0.3357
 1878TIP3    H227126   5.385   6.164   5.084  0.6095  0.8936 -0.2921
 1879TIP3   OH227127   0.008   1.051  12.201  0.2775 -0.3720 -0.1773
 1879TIP3    H127128   0.050   1.095  12.127 -0.5706 -0.2601 -0.6058
 1879TIP3    H227129  -0.047   1.119  12.241  2.0099  0.0650  1.6307
 1880TIP3   OH227130   0.942   3.312  11.622 -0.2686 -0.2744  0.0309
 1880TIP3    H127131   0.936   3.407  11.613 -0.0442 -0.0636  1.8890
 1880TIP3    H227132   1.013   3.288  11.562 -0.2826  0.7317 -0.4107
 1881TIP3   OH227133   2.317   5.113   0.284 -0.5284  0.5487  0.1539
 1881TIP3    H127134   2.322   5.048   0.214  0.5408 -0.3212  1.0028
 1881TIP3    H227135   2.255   5.076   0.348 -0.3489  0.6294  0.3766
 1882TIP3   OH227136   1.057   0.995  13.036  0.0324 -0.2051 -0.4390
 1882TIP3    H127137   1.079   1.087  13.050 -0.2877 -0.1015 -0.5951
 1882TIP3    H227138   0.988   0.977  13.100  1.3613 -0.8552  0.8641
 1883TIP3   OH227139   2.103   1.094   1.247 -0.6507 -0.0134 -0.0761
 1883TIP3    H127140   2.184   1.062   1.287 -0.6269 -1.1385 -0.9665
 1883TIP3    H227141   2.057   1.138   1.318  0.8405  0.8645  0.3840
 1884TIP3   OH227142   3.471   1.527  14.955  0.0407 -0.3486 -0.7507
 1884TIP3    H127143   3.449   1.609  14.911 -0.2652 -0.6430 -1.1610
 1884TIP3    H227144   3.562   1.538  14.982 -0.5060  0.7644  0.7034
 1885TIP3   OH227145   3.382   4.613   1.933 -0.3982  0.5106 -0.4992
 1885TIP3    H127146   3.453   4.553   1.912 -0.4419 -0.4563  1.8232
 1885TIP3    H227147   3.313   4.556   1.969 -1.2240  1.7434 -0.0751
 1886TIP3   OH227148   3.128   6.408   5.867  0.1928  0.1214  0.0819
 1886TIP3    H127149   3.214   6.448   5.855  0.7860 -1.7728 -3.7293
 1886TIP3    H227150   3.131   6.371   5.955  3.4418 -0.1104  0.0135
 1887TIP3   OH227151   2.585   0.569   3.289 -0.4198  0.6038  0.4418
 1887TIP3    H127152   2.582   0.630   3.216 -3.1810 -0.7033 -0.6849
 1887TIP3    H227153   2.612   0.486   3.250 -2.0347 -0.1376  0.8073
 1888TIP3   OH227154   1.895   4.814   4.227 -0.2313 -0.4610 -0.0924
 1888TIP3    H127155   1.990   4.810   4.234 -0.1776  1.1080  0.3785
 1888TIP3    H227156   1.875   4.907   4.223 -1.7940 -0.7492  0.3396
 1889TIP3   OH227157   6.670   1.616  11.081 -0.3778 -0.1302 -0.0577
 1889TIP3    H127158   6.589   1.667  11.088 -0.1499 -0.0368  3.4521
 1889TIP3    H227159   6.738   1.673  11.119  0.6893 -1.5125  0.1724
 1890TIP3   OH227160   5.729   2.783   0.199 -0.4152 -0.4464 -0.5054
 1890TIP3    H127161   5.789   2.726   0.150 -1.2710 -1.0978 -0.8082
 1890TIP3    H227162   5.775   2.800   0.281  0.9785  0.5195 -1.4207
 1891TIP3   OH227163   0.925   1.734  14.816  0.2817  0.3379 -0.2685
 1891TIP3    H127164   1.012   1.704  14.789 -0.3070 -1.6472 -0.1126
 1891TIP3    H227165   0.941   1.813  14.866  1.9004  0.6591 -1.2384
 1892TIP3   OH227166   1.959   1.113  14.301 -0.6515 -0.0005 -0.2183
 1892TIP3    H127167   1.931   1.203  14.290  0.3562  0.2273 -1.0222
 1892TIP3    H227168   2.013   1.094  14.224  0.4349 -0.7826  0.6915
 1893TIP3   OH227169   1.567   0.588  14.806 -0.3443 -0.1349 -0.2665
 1893TIP3    H127170   1.609   0.653  14.749 -2.8893  1.0012 -1.0096
 1893TIP3    H227171   1.564   0.508  14.753  0.7654 -0.2179 -0.2219
 1894TIP3   OH227172   2.954   3.140  12.393  0.2173 -0.1240  0.5095
 1894TIP3    H127173   2.974   3.171  12.481  0.8333  0.9814 -0.0023
 1894TIP3    H227174   3.040   3.128  12.351 -0.0684 -0.6048  0.0439
 1895TIP3   OH227175   1.227   5.862  13.929 -0.3134 -0.4226  0.0872
 1895TIP3    H127176   1.186   5.924  13.869  1.0162 -0.3470 -0.7928
 1895TIP3    H227177   1.256   5.916  14.003  0.4342 -0.0336 -0.4660
 1896TIP3   OH227178   0.723   6.122   4.073  0.2111 -0.0421 -0.4298
 1896TIP3    H127179   0.762   6.187   4.014  0.2253  1.0669  0.7522
 1896TIP3    H227180   0.759   6.143   4.159 -1.8932  0.1164  0.4656
 1897TIP3   OH227181   6.563   5.184  12.934  0.0242 -0.6173  0.4547
 1897TIP3    H127182   6.474   5.187  12.967  0.1901 -0.8389  0.9334
 1897TIP3    H227183   6.598   5.271  12.953 -0.7281  0.1816 -1.5919
 1898TIP3   OH227184   2.652   5.531  13.302  0.3951  0.3859 -0.2337
 1898TIP3    H127185   2.736   5.578  13.300 -0.2877  1.6551 -0.3799
 1898TIP3    H227186   2.622   5.540  13.393  0.4558 -0.1510 -0.1573
 1899TIP3   OH227187   0.924   0.021   4.940 -0.5366  0.2320 -0.0550
 1899TIP3    H127188   0.936  -0.026   4.857 -1.1683 -1.2275  0.6401
 1899TIP3    H227189   0.992  -0.014   4.998 -1.8680 -0.8982  0.8914
 1900TIP3   OH227190   5.293   0.848   5.825 -0.1814 -0.1778 -0.7350
 1900TIP3    H127191   5.203   0.863   5.797 -0.4995  0.6168  0.6175
 1900TIP3    H227192   5.285   0.810   5.913  0.7906 -0.8575 -0.9186
 1901TIP3   OH227193   6.486   5.509  14.006 -0.3550  0.2419 -0.5204
 1901TIP3    H127194   6.455   5.585  14.054 -1.3197  0.2980 -1.2054
 1901TIP3    H227195   6.470   5.531  13.914 -0.4092 -0.6879 -0.7419
 1902TIP3   OH227196   4.295   1.229   5.521 -0.4735  0.0403  0.3770
 1902TIP3    H127197   4.296   1.178   5.602 -0.0468 -1.3214 -0.4532
 1902TIP3    H227198   4.203   1.228   5.493 -0.3427 -1.0173 -0.0634
 1903TIP3   OH227199   0.179   6.598  15.689  0.1566  0.0006  0.1664
 1903TIP3    H127200   0.261   6.554  15.709 -0.2098 -1.1099 -0.6289
 1903TIP3    H227201   0.115   6.527  15.680 -0.3022  0.5854 -1.9554
 1904TIP3   OH227202   6.242   2.704   3.307 -0.3306  0.2173 -0.5465
 1904TIP3    H127203   6.174   2.768   3.287  0.5782  1.1258 -0.7681
 1904TIP3    H227204   6.215   2.666   3.391 -0.5069  1.4041 -0.0523
 1905TIP3   OH227205   1.907   4.072   2.907  0.1677  0.7734 -0.2593
 1905TIP3    H127206   1.823   4.092   2.865 -0.6092 -1.7039 -0.0670
 1905TIP3    H227207   1.886   4.069   3.001  0.1983 -0.7697 -0.2735
 1906TIP3   OH227208   0.108   6.733  12.000  0.2425  0.2858 -0.4635
 1906TIP3    H127209   0.145   6.708  11.915 -0.8263 -1.8306 -0.3918
 1906TIP3    H227210   0.013   6.730  11.985  0.0108  2.8842  0.0554
 1907TIP3   OH227211   3.744   5.376   0.764 -0.3366  0.3617  0.3653
 1907TIP3    H127212   3.713   5.414   0.846 -0.3861  0.3450  0.3548
 1907TIP3    H227213   3.829   5.417   0.748 -1.5591  2.5583 -1.0458
 1908TIP3   OH227214   1.243   5.182   1.770  0.2222  0.3692  0.4127
 1908TIP3    H127215   1.329   5.141   1.780  0.1358 -0.1161 -0.7008
 1908TIP3    H227216   1.213   5.196   1.860  0.8385 -0.7786  0.8214
 1909TIP3   OH227217   2.501   0.911   3.747  0.0716 -0.2595 -0.1360
 1909TIP3    H127218   2.463   0.824   3.736 -0.5450 -0.4934  3.0125
 1909TIP3    H227219   2.430   0.971   3.726 -0.3736 -0.5773  0.4509
 1910TIP3   OH227220   6.302   1.188   1.580  0.2858 -0.0100 -0.0914
 1910TIP3    H127221   6.218   1.160   1.543 -0.3991  0.3071  1.1822
 1910TIP3    H227222   6.356   1.109   1.579 -0.4774 -0.5465  0.3194
 1911TIP3   OH227223   0.194   3.096   0.342 -0.4546  0.1757 -0.0689
 1911TIP3    H127224   0.254   3.024   0.359  0.2215  0.3105 -1.6983
 1911TIP3    H227225   0.116   3.076   0.394 -0.0205 -1.3623  0.0205
 1912TIP3   OH227226   4.737   4.256  16.776  0.1882  0.5295 -0.3607
 1912TIP3    H127227   4.811   4.306  16.742  1.3027 -0.7819  0.0573
 1912TIP3    H227228   4.705   4.205  16.701  0.1248  0.6096 -0.3879
 1913TIP3   OH227229   2.211   3.070  11.570  0.4607  0.8248  0.2133
 1913TIP3    H127230   2.128   3.099  11.532 -0.7722 -0.2112  1.9782
 1913TIP3    H227231   2.242   3.002  11.510 -1.8950 -1.4242  1.3585
 1914TIP3   OH227232   3.230   1.828   1.115  1.0256  0.0239  0.2305
 1914TIP3    H127233   3.137   1.806   1.120  0.6228  1.6258  0.5704
 1914TIP3    H227234   3.274   1.753   1.155 -0.2070 -0.2953  1.0800
 1915TIP3   OH227235   0.789   3.365   4.979  0.6216 -0.5328  0.5719
 1915TIP3    H127236   0.750   3.284   4.947  0.9325 -1.3235  2.0921
 1915TIP3    H227237   0.720   3.407   5.030  1.1676 -1.0857  1.8251
 1916TIP3   OH227238   1.976   0.635  11.452 -0.0184 -0.3168  0.5753
 1916TIP3    H127239   1.979   0.574  11.377 -0.7920 -0.0025  0.2753
 1916TIP3    H227240   2.063   0.675  11.454 -0.7570  1.6882 -1.8874
 1917TIP3   OH227241   2.089   0.142  16.204  0.5148  0.0502 -0.1638
 1917TIP3    H127242   2.051   0.215  16.253  0.1961 -0.3517  0.1953
 1917TIP3    H227243   2.014   0.088  16.178  0.8155 -0.6847  0.4470
 1918TIP3   OH227244   5.525   4.105   0.685  0.4913 -0.0923 -0.1777
 1918TIP3    H127245   5.457   4.127   0.622  0.9681 -2.2501 -1.5291
 1918TIP3    H227246   5.603   4.151   0.653 -0.1068  2.0189  1.1290
 1919TIP3   OH227247   2.412   4.219  15.372 -0.7033 -1.0568 -0.5601
 1919TIP3    H127248   2.380   4.201  15.460 -0.3332  1.4016  0.1585
 1919TIP3    H227249   2.341   4.269  15.330  0.1235  0.0632 -0.6962
 1920TIP3   OH227250   5.671   4.703  13.609 -0.3453 -0.7322  0.0337
 1920TIP3    H127251   5.761   4.688  13.578 -0.4613  1.0462 -1.2862
 1920TIP3    H227252   5.617   4.651  13.550 -0.2657 -0.9223  0.1264
 1921TIP3   OH227253   2.615   4.507  11.543 -0.0974  0.3490 -0.4441
 1921TIP3    H127254   2.563   4.506  11.623  0.5381  3.2143  0.1227
 1921TIP3    H227255   2.567   4.452  11.481 -2.2359  0.5649  0.9516
 1922TIP3   OH227256   5.257   5.302   5.586 -0.2913  0.4681  0.0019
 1922TIP3    H127257   5.164   5.320   5.599 -0.5227  1.1331 -2.2629
 1922TIP3    H227258   5.271   5.216   5.627 -1.7413  0.6108  0.8696
 1923TIP3   OH227259   2.038   0.743  11.132 -0.7829 -0.3600 -0.2445
 1923TIP3    H127260   2.081   0.796  11.200 -0.4835 -1.0891  0.1464
 1923TIP3    H227261   2.036   0.800  11.055 -0.4380  0.2055  0.1560
 1924TIP3   OH227262   5.724   5.311  12.806 -0.0034  0.2489  0.0820
 1924TIP3    H127263   5.710   5.349  12.719  1.4694 -1.6984 -1.0811
 1924TIP3    H227264   5.668   5.363  12.864 -2.9787  0.0774 -2.3843
 1925TIP3   OH227265   1.545   5.091   1.725 -0.0299  0.1391 -0.1065
 1925TIP3    H127266   1.557   5.001   1.757  0.6560  0.6680  1.1692
 1925TIP3    H227267   1.604   5.144   1.779  0.6422  1.1777 -1.7927
 1926TIP3   OH227268   4.011   1.631  13.532  0.4071 -0.2529  0.3041
 1926TIP3    H127269   4.085   1.636  13.592  0.9315  1.7618 -0.4424
 1926TIP3    H227270   3.935   1.650  13.587  0.5159 -1.4192  0.8894
 1927TIP3   OH227271   0.938   4.265  16.411  0.3096 -0.6341 -0.1357
 1927TIP3    H127272   0.992   4.301  16.341 -0.3673 -0.1137 -0.3918
 1927TIP3    H227273   0.932   4.171  16.391  1.0853 -0.6907 -0.1215
 1928TIP3   OH227274   3.071   5.530   1.781 -0.8413 -0.1713 -0.1842
 1928TIP3    H127275   3.066   5.475   1.859  0.5213 -0.0084  0.0514
 1928TIP3    H227276   3.105   5.473   1.712  1.6639  0.5358  0.3342
 1929TIP3   OH227277   5.864   5.774   4.616  0.3004 -0.2065 -0.1292
 1929TIP3    H127278   5.906   5.783   4.701  1.2051  0.3764 -0.6326
 1929TIP3    H227279   5.902   5.843   4.562 -0.5719 -0.2975 -0.8907
 1930TIP3   OH227280   0.504   4.224   0.987 -0.0082 -0.3079  0.0228
 1930TIP3    H127281   0.462   4.167   0.922  1.0570 -1.9077  0.6627
 1930TIP3    H227282   0.461   4.309   0.977  0.1231 -0.4900 -2.7673
 1931TIP3   OH227283   4.913   4.274   0.672 -0.2991  0.3474  0.6982
 1931TIP3    H127284   4.819   4.279   0.689 -0.3229  2.0908  0.2372
 1931TIP3    H227285   4.954   4.310   0.751 -0.0951  1.1215  0.2464
 1932TIP3   OH227286   3.150   6.328   6.160 -0.0590  0.4490  0.6876
 1932TIP3    H127287   3.230   6.285   6.192 -0.1583 -1.1628 -1.0296
 1932TIP3    H227288   3.169   6.422   6.168  2.9471  0.2062 -1.5942
 1933TIP3   OH227289   6.348   0.545   2.450  0.2261  0.2347 -0.3250
 1933TIP3    H127290   6.297   0.488   2.509  0.3076  0.7136  0.2207
 1933TIP3    H227291   6.360   0.625   2.500  0.5569  0.5407 -0.8931
 1934TIP3   OH227292   0.889   1.039   0.602 -0.0276  0.0889 -0.8172
 1934TIP3    H127293   0.852   1.013   0.518 -1.9003  1.2357 -0.4022
 1934TIP3    H227294   0.886   1.135   0.602  0.0714  0.1156  0.4725
 1935TIP3   OH227295   4.194   5.429  15.334 -0.0542 -0.4957 -0.4112
 1935TIP3    H127296   4.180   5.421  15.428  0.5676 -0.8095 -0.3373
 1935TIP3    H227297   4.176   5.342  15.299 -3.3105  0.3168 -1.0299
 1936TIP3   OH227298   3.719   2.511   1.829 -0.1085 -0.2468 -0.4995
 1936TIP3    H127299   3.726   2.537   1.737  1.4581 -0.7494 -0.5650
 1936TIP3    H227300   3.695   2.418   1.825 -0.6956 -0.1038 -0.3755
 1937TIP3   OH227301   4.062   2.381   1.168 -0.2057 -0.1130 -0.1886
 1937TIP3    H127302   4.137   2.336   1.206 -0.9849  0.3379  1.9806
 1937TIP3    H227303   4.003   2.311   1.140  0.9485 -0.4697 -1.8965
 1938TIP3   OH227304   1.076   3.369  10.691 -1.0355 -0.5072  0.1413
 1938TIP3    H127305   1.170   3.350  10.691 -0.9561 -0.1370 -0.4741
 1938TIP3    H227306   1.049   3.357  10.783 -0.4163 -0.7366  0.2975
 1939TIP3   OH227307   0.303   1.959   1.057  0.7507  0.0131  0.4919
 1939TIP3    H127308   0.376   1.901   1.035  0.6160  0.2550 -0.6588
 1939TIP3    H227309   0.322   2.040   1.009  0.2363  0.4386  0.9900
 1940TIP3   OH227310   6.124   0.404   2.609  0.4098 -0.2385 -0.4487
 1940TIP3    H127311   6.120   0.479   2.669  1.3417  0.8685 -1.7039
 1940TIP3    H227312   6.186   0.344   2.650  3.5257  1.8868 -1.6629
 1941TIP3   OH227313   2.654   2.578  16.207  0.2358 -0.2548  0.0394
 1941TIP3    H127314   2.729   2.636  16.221 -0.4600  0.8927 -0.8567
 1941TIP3    H227315   2.689   2.491  16.226  1.9649  0.1854 -0.8578
 1942TIP3   OH227316   1.284   3.968  13.558 -0.3124  0.1583 -0.9862
 1942TIP3    H127317   1.224   3.904  13.595 -2.3347  1.0466 -2.5548
 1942TIP3    H227318   1.240   4.052  13.568  1.1647  1.0018 -1.2116
 1943TIP3   OH227319   5.101   5.069   5.519 -0.0452  0.0907 -0.0944
 1943TIP3    H127320   5.043   5.016   5.464 -2.0403  0.6808  1.2968
 1943TIP3    H227321   5.167   5.007   5.551 -0.7500 -0.9572 -0.6230
 1944TIP3   OH227322   3.440   6.562  13.464 -0.4777 -0.3517 -0.5121
 1944TIP3    H127323   3.429   6.482  13.411 -2.3319  0.6502 -1.7514
 1944TIP3    H227324   3.371   6.621  13.433 -0.3138  1.0766  1.6345
 1945TIP3   OH227325   1.516   2.815   5.556 -0.1747  0.5006 -0.1818
 1945TIP3    H127326   1.445   2.802   5.618  0.1578  1.0985  0.3327
 1945TIP3    H227327   1.510   2.740   5.497 -1.3514  0.6432 -0.2688
 1946TIP3   OH227328   5.605   5.637   1.146  0.5563 -0.2294 -0.6175
 1946TIP3    H127329   5.694   5.605   1.160  1.3089  1.0457 -2.1558
 1946TIP3    H227330   5.557   5.610   1.224  2.3735 -0.6331  0.4168
 1947TIP3   OH227331   4.759   0.446  15.063 -0.0371 -0.1264 -0.2510
 1947TIP3    H127332   4.715   0.396  14.994 -3.1362  0.0890  1.4102
 1947TIP3    H227333   4.766   0.384  15.136  1.8580  0.0894 -0.2040
 1948TIP3   OH227334   6.576   4.839   0.701 -0.5291 -0.1852 -0.0404
 1948TIP3    H127335   6.661   4.818   0.664  0.4289  2.2857  0.5287
 1948TIP3    H227336   6.545   4.913   0.648 -0.6939  1.1781  1.8564
 1949TIP3   OH227337   6.535   6.811   6.324 -0.3265  0.0408  0.0638
 1949TIP3    H127338   6.458   6.867   6.309 -0.8949 -0.4314  1.1145
 1949TIP3    H227339   6.533   6.749   6.250  0.4080  1.4710 -1.2047
 1950TIP3   OH227340   0.537   2.171  11.594 -0.2763  0.4075  0.1844
 1950TIP3    H127341   0.579   2.087  11.616 -2.7120 -0.8222  0.4318
 1950TIP3    H227342   0.468   2.181  11.659 -1.1502  1.7690 -0.8936
 1951TIP3   OH227343   2.893   6.289  13.389  0.3492 -0.0873  0.1920
 1951TIP3    H127344   2.852   6.261  13.471  0.2433  1.5208  0.7287
 1951TIP3    H227345   2.899   6.209  13.336 -1.9800 -0.6952  0.7292
 1952TIP3   OH227346   6.598   6.346  16.048 -0.4796 -0.0640 -0.2808
 1952TIP3    H127347   6.649   6.327  15.970 -2.4951 -2.8196 -1.0834
 1952TIP3    H227348   6.519   6.390  16.016 -0.7020  0.0265  0.3675
 1953TIP3   OH227349   5.522   0.943  17.223  0.1120  0.4172 -0.1665
 1953TIP3    H127350   5.478   0.901  17.149  0.0986  0.6009 -0.2632
 1953TIP3    H227351   5.455   0.947  17.291  0.1112  0.2907 -0.1586
 1954TIP3   OH227352   0.022   6.611  11.458  0.4779  0.4138 -0.4900
 1954TIP3    H127353   0.092   6.552  11.429 -1.2571 -2.0558  0.0957
 1954TIP3    H227354  -0.003   6.659  11.379  2.0298  0.5602 -0.9397
 1955TIP3   OH227355   5.251   5.946   2.633 -0.1186  0.3646  0.3401
 1955TIP3    H127356   5.176   5.981   2.585  1.6833  1.4693 -1.8972
 1955TIP3    H227357   5.244   5.851   2.625 -0.7946  0.4896 -0.6143
 1956TIP3   OH227358   4.242   1.637   0.141 -0.3165 -0.3620  0.0622
 1956TIP3    H127359   4.174   1.677   0.195  0.7473  0.4967  0.8145
 1956TIP3    H227360   4.209   1.549   0.121 -2.4315  0.6198 -1.0747
 1957TIP3   OH227361   3.720   2.082  12.896  0.2016  0.4734 -0.4038
 1957TIP3    H127362   3.653   2.099  12.830  0.3413 -0.0041 -0.6761
 1957TIP3    H227363   3.687   2.122  12.976 -0.8896 -0.6156 -0.2862
 1958TIP3   OH227364   2.715   0.351   5.689  0.1806 -0.6028  0.2714
 1958TIP3    H127365   2.665   0.269   5.694  1.7756 -1.5937  0.7550
 1958TIP3    H227366   2.661   0.415   5.734 -1.9302 -0.9182 -1.6221
 1959TIP3   OH227367   5.037   0.151  16.408 -0.0659 -0.1375 -0.0704
 1959TIP3    H127368   5.095   0.197  16.347  3.3791 -1.8991  1.5541
 1959TIP3    H227369   5.035   0.207  16.486  1.1677 -0.9255  0.5750
 1960TIP3   OH227370   4.901   6.673  12.319  0.0423 -0.2285  0.1383
 1960TIP3    H127371   4.894   6.728  12.396  0.9644 -0.1914  0.2042
 1960TIP3    H227372   4.989   6.687  12.286 -0.6770  0.6099 -1.5899
 1961TIP3   OH227373   1.068   2.741  14.736 -0.5183  0.0585 -0.1733
 1961TIP3    H127374   1.134   2.698  14.681  0.6091  1.4700  0.0161
 1961TIP3    H227375   1.118   2.797  14.794 -1.9107  3.4853 -1.9638
 1962TIP3   OH227376   6.136   5.820   1.481 -0.7290 -0.0913 -1.0175
 1962TIP3    H127377   6.082   5.742   1.467  1.4192 -1.6129 -1.4265
 1962TIP3    H227378   6.138   5.863   1.395 -0.1268 -0.8617 -1.4067
 1963TIP3   OH227379   4.053   3.239  13.842 -0.5786  0.6786  0.5485
 1963TIP3    H127380   3.994   3.164  13.844  0.9081 -0.5923 -0.4265
 1963TIP3    H227381   4.003   3.308  13.798 -1.3032 -0.4021 -0.3933
 1964TIP3   OH227382   2.306   5.881   1.139  0.5098 -0.8347 -0.5250
 1964TIP3    H127383   2.374   5.942   1.168  1.5913 -1.8878 -0.7535
 1964TIP3    H227384   2.274   5.840   1.220 -0.0740 -0.1432 -0.3914
 1965TIP3   OH227385   1.671   2.464   4.413 -0.1742 -0.2313  0.1896
 1965TIP3    H127386   1.749   2.449   4.467  0.1103 -0.9017 -0.3963
 1965TIP3    H227387   1.598   2.459   4.474  0.2182  0.0248  0.6824
 1966TIP3   OH227388   0.779   0.191  16.012  0.3608 -0.0714 -0.1690
 1966TIP3    H127389   0.812   0.225  15.929  0.3299  0.0193 -0.1450
 1966TIP3    H227390   0.778   0.096  16.000 -2.0281  0.0228 -1.1661
 1967TIP3   OH227391   6.164   2.149  11.963  0.4436 -0.4024  0.1807
 1967TIP3    H127392   6.078   2.107  11.963 -0.5144  1.4530 -0.5980
 1967TIP3    H227393   6.226   2.079  11.941 -0.8845 -1.7039  0.4821
 1968TIP3   OH227394   2.152   3.253   4.570 -0.0295 -0.1512 -0.0610
 1968TIP3    H127395   2.177   3.334   4.526 -1.4246  1.5892  2.1281
 1968TIP3    H227396   2.234   3.205   4.580  0.7890  0.7952 -1.7107
 1969TIP3   OH227397   4.161   4.432   6.196  0.4428  0.3377  0.1727
 1969TIP3    H127398   4.249   4.467   6.208  0.6781 -0.1659 -0.0395
 1969TIP3    H227399   4.127   4.477   6.119  0.3763  0.7978  0.4720
 1970TIP3   OH227400   1.818   0.951  14.810 -0.3539 -0.1427  0.3828
 1970TIP3    H127401   1.864   1.032  14.788  0.7115 -1.0399 -0.8349
 1970TIP3    H227402   1.748   0.978  14.870 -0.9009  1.8883 -1.0750
 1971TIP3   OH227403   4.383   3.697  12.490 -0.6678  0.9116  0.1001
 1971TIP3    H127404   4.456   3.637  12.503 -1.7096 -0.4462 -0.0589
 1971TIP3    H227405   4.420   3.784  12.504  0.8735  0.2359  0.4028
 1972TIP3   OH227406   4.919   0.227  13.989  0.5409 -0.2164 -0.3005
 1972TIP3    H127407   4.915   0.230  13.894  0.6542  1.5298 -0.2927
 1972TIP3    H227408   5.004   0.265  14.010  0.2346  0.0429  0.5036
 1973TIP3   OH227409   1.114   0.451  16.603 -0.1466 -0.5712 -0.2803
 1973TIP3    H127410   1.078   0.494  16.525  0.4103  0.5838  0.0867
 1973TIP3    H227411   1.038   0.438  16.659 -0.1735  1.1107  0.1387
 1974TIP3   OH227412   2.042   3.403   2.782  0.5459  0.2365 -0.3455
 1974TIP3    H127413   2.037   3.496   2.803  2.1228  0.2714 -0.0602
 1974TIP3    H227414   2.095   3.365   2.852  0.4248 -0.7824 -0.7864
 1975TIP3   OH227415   6.254   2.494   3.121 -0.4904  0.5581 -0.0810
 1975TIP3    H127416   6.264   2.567   3.181 -0.3695  2.8233 -2.6832
 1975TIP3    H227417   6.245   2.534   3.035  1.5379 -2.5456 -1.9395
 1976TIP3   OH227418   0.646   3.875  12.536  0.7835 -0.2176  0.3101
 1976TIP3    H127419   0.667   3.783  12.521 -1.2580 -0.8014  0.6426
 1976TIP3    H227420   0.554   3.883  12.511  0.6081  1.4947  1.2933
 1977TIP3   OH227421   0.102   3.967   2.667 -0.2395  0.4756 -0.0733
 1977TIP3    H127422   0.017   3.970   2.711  0.2583 -1.3915  1.1262
 1977TIP3    H227423   0.161   4.016   2.724 -0.2587  0.7810 -0.3125
 1978TIP3   OH227424   0.804   6.269   1.893  0.0237 -0.7069 -0.0586
 1978TIP3    H127425   0.897   6.291   1.887 -0.4470  1.3220 -0.7238
 1978TIP3    H227426   0.799   6.178   1.864  1.6560 -0.4524 -1.2833
 1979TIP3   OH227427   2.153   3.043   6.072 -0.4724  0.6054  0.3680
 1979TIP3    H127428   2.238   3.004   6.092 -0.3430  1.2640  1.1687
 1979TIP3    H227429   2.112   2.982   6.010  0.9621  0.7568 -0.7657
 1980TIP3   OH227430   1.564   6.434   6.106 -0.1016 -0.0840  1.1746
 1980TIP3    H127431   1.498   6.450   6.039  1.3862 -0.6367 -0.4974
 1980TIP3    H227432   1.627   6.505   6.095  0.2966 -0.3222  1.8272
 1981TIP3   OH227433   2.654   4.706  10.695 -0.0758 -0.3148 -0.4778
 1981TIP3    H127434   2.712   4.651  10.748 -0.5199  1.0862  1.5869
 1981TIP3    H227435   2.582   4.648  10.670 -0.5731 -0.7378  1.7118
 1982TIP3   OH227436   3.272   3.306   0.693 -0.7210 -0.7517 -0.6398
 1982TIP3    H127437   3.185   3.318   0.654 -1.3499 -2.0675  0.2764
 1982TIP3    H227438   3.264   3.343   0.781  0.0785  0.3713 -1.0288
 1983TIP3   OH227439   1.635   1.459  14.522  0.1439  0.6250  0.7710
 1983TIP3    H127440   1.567   1.479  14.586  0.3721  2.7361  0.4133
 1983TIP3    H227441   1.703   1.524  14.537  0.4150  0.8897 -1.2598
 1984TIP3   OH227442   0.880   6.030  15.358 -0.1586  0.1782  0.2966
 1984TIP3    H127443   0.785   6.041  15.346 -0.4579 -1.3397  1.0543
 1984TIP3    H227444   0.895   6.055  15.450  0.3789  1.5019 -0.1292
 1985TIP3   OH227445   5.004   4.740   5.684  0.2450  0.3096 -0.7006
 1985TIP3    H127446   4.963   4.753   5.599  1.1865  1.8712 -0.9477
 1985TIP3    H227447   5.097   4.732   5.665  0.5887  1.6940  0.2310
 1986TIP3   OH227448   0.865   5.530   0.440 -0.0049 -0.1008 -0.2336
 1986TIP3    H127449   0.912   5.489   0.512 -0.6313 -0.4144  0.0089
 1986TIP3    H227450   0.900   5.487   0.362 -0.9752 -1.4986  0.0405
 1987TIP3   OH227451   5.600   1.648   1.691  0.3471 -0.2773 -0.0892
 1987TIP3    H127452   5.534   1.627   1.626 -0.4953  0.2141  0.5817
 1987TIP3    H227453   5.573   1.601   1.769  2.3094 -2.2883 -0.5316
 1988TIP3   OH227454   6.144   0.727   1.831  0.3780  0.2292  0.1518
 1988TIP3    H127455   6.129   0.772   1.748  0.2373  0.3861  0.2625
 1988TIP3    H227456   6.057   0.694   1.856  0.4358  0.1085  0.1949
 1989TIP3   OH227457   4.757   1.705  12.946 -0.5000  0.4021 -0.2624
 1989TIP3    H127458   4.850   1.726  12.959 -0.2573  1.4513 -2.9415
 1989TIP3    H227459   4.746   1.708  12.851 -3.2998  0.3394 -0.0037
 1990TIP3   OH227460   6.567   5.403   4.070 -0.4665  0.0644 -0.1504
 1990TIP3    H127461   6.625   5.359   4.008  0.5713 -2.2956  2.2882
 1990TIP3    H227462   6.626   5.451   4.128 -1.2011  0.2898  0.4266
 1991TIP3   OH227463   4.757   1.820  12.402 -0.7649  0.5374 -0.5007
 1991TIP3    H127464   4.850   1.819  12.383 -0.5387 -0.1927  0.5527
 1991TIP3    H227465   4.722   1.893  12.351  0.6567  1.8566  0.3457
 1992TIP3   OH227466   3.863   0.657   2.978  0.2836  0.3009 -0.0464
 1992TIP3    H127467   3.917   0.679   3.054  0.4203  0.1955 -0.1135
 1992TIP3    H227468   3.814   0.579   3.004  0.3589  0.2424 -0.0807
 1993TIP3   OH227469   6.376   3.904  15.260  0.8010 -0.0783  0.5978
 1993TIP3    H127470   6.292   3.925  15.219  0.7392 -0.2994  0.6120
 1993TIP3    H227471   6.399   3.817  15.227  1.7490  0.5765 -0.5768
 1994TIP3   OH227472   2.380   0.664   2.271  0.1834  0.0259  0.2017
 1994TIP3    H127473   2.437   0.595   2.238  0.3525  0.2611 -0.0027
 1994TIP3    H227474   2.291   0.634   2.253  0.2885  0.6327 -1.4618
 1995TIP3   OH227475   5.495   2.901   2.476  0.0319 -0.1788  0.0533
 1995TIP3    H127476   5.586   2.922   2.457  0.0349 -1.4952 -1.6837
 1995TIP3    H227477   5.470   2.962   2.545  2.7952 -1.1294  2.0489
 1996TIP3   OH227478   6.170   0.781   4.760  0.2223 -0.4257  0.6251
 1996TIP3    H127479   6.173   0.870   4.725  1.7085 -1.3148 -1.7245
 1996TIP3    H227480   6.134   0.792   4.848 -1.2252  2.2789 -0.1734
 1997TIP3   OH227481   4.775   0.188  10.392  0.2812 -0.1622  0.3698
 1997TIP3    H127482   4.716   0.251  10.351 -1.0109 -0.7106  1.3203
 1997TIP3    H227483   4.861   0.210  10.357 -0.5670  0.2186 -1.5802
 1998TIP3   OH227484   1.684   3.655  16.464 -0.6239  0.0691 -0.1347
 1998TIP3    H127485   1.609   3.638  16.406 -0.2955 -0.0430 -0.5299
 1998TIP3    H227486   1.758   3.611  16.422 -0.0051  1.4624 -0.5702
 1999TIP3   OH227487   5.718   3.865   1.448 -0.4219  0.2369 -0.2255
 1999TIP3    H127488   5.784   3.830   1.387 -1.2182 -1.5882 -0.1037
 1999TIP3    H227489   5.703   3.954   1.417 -1.3494 -0.8278 -3.2714
 2000TIP3   OH227490   0.921   0.281  15.400  0.6328 -0.1123 -0.1765
 2000TIP3    H127491   0.882   0.210  15.350  2.7406 -0.4522 -1.4276
 2000TIP3    H227492   1.014   0.262  15.401  1.0509  1.7394  0.9484
 2001TIP3   OH227493   0.618   6.340   5.904  0.0798 -0.0814  0.1318
 2001TIP3    H127494   0.709   6.363   5.921 -0.5244  3.4050 -0.4041
 2001TIP3    H227495   0.570   6.376   5.979 -0.9933 -0.0776 -0.5286
 2002TIP3   OH227496   6.419   3.132   4.558  0.1077  0.5772 -0.3734
 2002TIP3    H127497   6.437   3.067   4.626  2.6848  1.0521 -0.5024
 2002TIP3    H227498   6.427   3.083   4.475  0.6578  0.7631 -0.4311
 2003TIP3   OH227499   3.399   3.128   2.098  0.1290  0.4613 -0.3947
 2003TIP3    H127500   3.458   3.078   2.040  1.1015  0.7290  0.3322
 2003TIP3    H227501   3.312   3.111   2.064  0.7097  1.0127 -2.2431
 2004TIP3   OH227502   0.364   2.410  16.645 -0.2190  0.3000  0.4394
 2004TIP3    H127503   0.417   2.371  16.714 -1.9822 -1.8495  0.6830
 2004TIP3    H227504   0.426   2.430  16.575  1.2669  0.3883  1.7315
 2005TIP3   OH227505   3.476   0.719  13.372  0.7225  0.0205  0.0873
 2005TIP3    H127506   3.473   0.813  13.352 -0.8678  0.2188  1.1550
 2005TIP3    H227507   3.391   0.686  13.344  0.1493 -0.5344  2.3568
 2006TIP3   OH227508   6.623   4.609  14.283  0.1470 -0.6367  0.3421
 2006TIP3    H127509   6.715   4.587  14.294  0.3337 -1.2460 -1.8450
 2006TIP3    H227510   6.594   4.555  14.209 -0.9026  2.3198 -1.5891
 2007TIP3   OH227511   0.784   6.234   6.159  0.5417  0.2462  0.2773
 2007TIP3    H127512   0.688   6.233   6.166  0.1132 -0.2046 -3.5565
 2007TIP3    H227513   0.811   6.146   6.188 -0.6519 -0.8647 -1.7260
 2008TIP3   OH227514   1.429   4.617   2.466 -0.9309  0.0176  0.4420
 2008TIP3    H127515   1.383   4.539   2.434 -0.2267 -0.2193 -0.0112
 2008TIP3    H227516   1.432   4.676   2.390 -3.2992  1.4006  1.3047
 2009TIP3   OH227517   3.097   5.947  16.386  0.7067  0.0045  0.3583
 2009TIP3    H127518   3.039   6.022  16.393 -0.2568 -0.7868  1.0963
 2009TIP3    H227519   3.183   5.985  16.368  0.4640  1.3504  1.8335
 2010TIP3   OH227520   5.615   4.657   1.021 -0.3265 -0.1654  0.0175
 2010TIP3    H127521   5.654   4.744   1.016 -0.3379 -0.1757 -0.2600
 2010TIP3    H227522   5.687   4.597   0.998 -0.6475 -0.1513 -1.0609
 2011TIP3   OH227523   0.780   2.173  10.603  0.7487 -0.6463 -0.1051
 2011TIP3    H127524   0.822   2.091  10.578  0.1766 -0.2625 -2.5846
 2011TIP3    H227525   0.689   2.163  10.577  0.0683 -0.0934  1.8354
 2012TIP3   OH227526   4.044   1.067   5.177  0.1587 -0.1718  0.0336
 2012TIP3    H127527   4.025   1.015   5.255 -3.2265  1.4601  0.4475
 2012TIP3    H227528   4.117   1.123   5.204 -2.0325  1.6425  2.8512
 2013TIP3   OH227529   1.100   5.376  13.863 -0.0775  0.0492  0.1320
 2013TIP3    H127530   1.149   5.380  13.945  0.4863  0.2007 -0.2074
 2013TIP3    H227531   1.112   5.462  13.823 -2.5468  0.9494  1.1149
 2014TIP3   OH227532   2.937   5.888   3.238  0.4462 -0.0208  0.1280
 2014TIP3    H127533   2.965   5.841   3.317  1.5223  1.0894  0.4250
 2014TIP3    H227534   2.918   5.818   3.175  0.0875 -0.9111  1.1875
 2015TIP3   OH227535   3.505   6.441  12.054  0.2863 -0.4596 -0.1058
 2015TIP3    H127536   3.498   6.473  11.964 -0.6082 -1.2345 -0.3226
 2015TIP3    H227537   3.431   6.381  12.064  0.8455 -1.0019  0.8895
 2016TIP3   OH227538   3.632   0.250  10.814 -0.0554 -0.2431 -0.1963
 2016TIP3    H127539   3.544   0.274  10.841  0.3161  0.3250  0.5682
 2016TIP3    H227540   3.679   0.236  10.896  0.8704  0.6220 -0.5512
 2017TIP3   OH227541   4.466   5.182  15.466 -0.3231 -0.6498 -0.3035
 2017TIP3    H127542   4.393   5.188  15.528  0.3854 -0.6962  0.5613
 2017TIP3    H227543   4.480   5.088  15.454 -0.3394 -0.6414 -0.3899
 2018TIP3   OH227544   0.147   2.344   0.830 -0.2654 -0.0658  0.2226
 2018TIP3    H127545   0.114   2.268   0.877 -3.1524 -0.2928 -1.9339
 2018TIP3    H227546   0.214   2.309   0.771  0.7580 -0.3233  1.4787
 2019TIP3   OH227547   2.377   4.693  15.887 -0.3394 -0.5201  0.0941
 2019TIP3    H127548   2.307   4.638  15.920 -1.1390  1.0037  1.0975
 2019TIP3    H227549   2.333   4.762  15.837  0.6125 -0.7449 -1.0917
 2020TIP3   OH227550   5.600   0.397  11.767 -0.1476 -0.3283 -0.2979
 2020TIP3    H127551   5.549   0.468  11.727 -0.5830 -0.0349  0.7342
 2020TIP3    H227552   5.536   0.328  11.783  0.3169 -1.0636 -1.5015
 2021TIP3   OH227553   0.630   1.550   2.514 -0.4107  0.2770 -0.1576
 2021TIP3    H127554   0.656   1.477   2.457 -0.7710 -1.0738  1.3151
 2021TIP3    H227555   0.543   1.575   2.482  0.8376  2.0407 -2.4693
 2022TIP3   OH227556   4.534   4.612   3.207  0.3192 -0.3498 -0.6336
 2022TIP3    H127557   4.504   4.604   3.116 -0.7889 -0.1383 -0.3073
 2022TIP3    H227558   4.455   4.596   3.259  0.9809 -0.6370  0.2979
 2023TIP3   OH227559   2.391   0.160   3.912 -0.1091  0.6681  0.0135
 2023TIP3    H127560   2.451   0.097   3.953  0.7798  1.3316 -0.2378
 2023TIP3    H227561   2.328   0.106   3.865  0.5993 -0.0413 -0.1366
 2024TIP3   OH227562   6.187   5.239   1.789 -0.3510  0.3306 -0.5474
 2024TIP3    H127563   6.150   5.259   1.703  1.8097  2.3218 -1.1070
 2024TIP3    H227564   6.186   5.322   1.836  0.4250 -0.2639  0.5670
 2025TIP3   OH227565   4.065   1.109  14.331 -0.0779 -0.6080 -0.1186
 2025TIP3    H127566   4.044   1.177  14.267 -0.2911 -1.5826 -1.1249
 2025TIP3    H227567   3.981   1.067  14.349  0.3700 -2.1815 -1.4071
 2026TIP3   OH227568   0.546   1.229  12.210  0.7234 -0.3135 -0.2383
 2026TIP3    H127569   0.458   1.262  12.190  1.7279  1.3667 -2.1790
 2026TIP3    H227570   0.537   1.134  12.205 -0.9233 -0.1597 -0.6932
 2027TIP3   OH227571   3.748   5.065   0.772  0.0874  0.4797  0.4970
 2027TIP3    H127572   3.755   5.095   0.681 -0.4872  0.5164  0.4574
 2027TIP3    H227573   3.800   4.985   0.775  0.2078  0.5441  0.1624
 2028TIP3   OH227574   6.380   0.912   0.980 -0.0713  0.2507 -0.1079
 2028TIP3    H127575   6.317   0.975   0.945 -2.3485 -2.4424 -1.2073
 2028TIP3    H227576   6.385   0.843   0.913  2.1975 -0.8434  1.0694
 2029TIP3   OH227577   5.091   4.230   1.298  0.0652 -0.7741 -0.2858
 2029TIP3    H127578   5.172   4.278   1.286 -0.2912 -0.4859 -1.6293
 2029TIP3    H227579   5.074   4.189   1.213 -0.9292 -1.2426  0.1207
 2030TIP3   OH227580   1.556   3.982  12.406 -0.1140 -0.3546  0.3164
 2030TIP3    H127581   1.509   3.975  12.489 -0.5252 -0.4572  0.0768
 2030TIP3    H227582   1.489   4.008  12.343  0.4782  1.1643  0.2902
 2031TIP3   OH227583   5.004   1.596  13.728  0.5691  0.0800  0.6090
 2031TIP3    H127584   4.957   1.631  13.652  1.6105  0.6585  0.2093
 2031TIP3    H227585   4.944   1.532  13.765 -1.8237  2.8486  1.9244
 2032TIP3   OH227586   6.025   2.987  14.609 -0.1705 -0.0292 -0.2671
 2032TIP3    H127587   6.095   3.045  14.582 -0.6703  0.5481 -0.3409
 2032TIP3    H227588   5.953   3.045  14.634 -0.3405 -0.5867  0.5990
 2033TIP3   OH227589   0.974   0.901   4.202  0.2462 -0.4587  0.0771
 2033TIP3    H127590   0.910   0.895   4.132 -0.0155 -1.1125  0.3708
 2033TIP3    H227591   0.967   0.818   4.250  1.0089 -0.3692  0.3668
 2034TIP3   OH227592   2.147   0.792  15.047 -0.0240  0.1176 -0.5426
 2034TIP3    H127593   2.141   0.853  15.121  0.2513 -0.4356 -0.0524
 2034TIP3    H227594   2.200   0.839  14.983 -0.7293  0.8260 -0.6267
 2035TIP3   OH227595   3.155   1.453  13.253  0.0248 -0.3531  0.8837
 2035TIP3    H127596   3.124   1.387  13.190  0.7959  0.2625 -0.1807
 2035TIP3    H227597   3.107   1.434  13.333  0.0353 -2.0564  0.5381
 2036TIP3   OH227598   4.232   4.913  10.349 -0.1779  0.4102 -0.0791
 2036TIP3    H127599   4.312   4.964  10.361  1.4081 -1.9545  0.0624
 2036TIP3    H227600   4.247   4.833  10.399 -1.6254 -1.1795 -2.0482
 2037TIP3   OH227601   1.723   1.196  16.338  0.3304 -0.0386  0.3188
 2037TIP3    H127602   1.634   1.208  16.307  0.4854  2.5862  0.6422
 2037TIP3    H227603   1.713   1.152  16.423 -0.5531 -0.6105 -0.0614
 2038TIP3   OH227604   5.639   0.752   3.221 -0.1325  0.9267  0.3710
 2038TIP3    H127605   5.613   0.661   3.206  0.4928  0.9106 -0.7267
 2038TIP3    H227606   5.702   0.747   3.293 -0.7793  0.6088  0.9261
 2039TIP3   OH227607   6.511   4.774  13.762 -0.5194 -0.1057 -0.4739
 2039TIP3    H127608   6.494   4.806  13.851 -1.3553  0.6325 -0.8896
 2039TIP3    H227609   6.602   4.797  13.746 -0.8177  1.2102 -0.3923
 2040TIP3   OH227610   4.555   0.564  13.881  0.0126  0.0221 -0.2216
 2040TIP3    H127611   4.504   0.483  13.890 -1.7779  0.9412 -1.5585
 2040TIP3    H227612   4.557   0.600  13.970 -3.7854  1.1187 -0.4072
 2041TIP3   OH227613   6.086   0.895  11.863  0.3287 -0.4365 -0.8017
 2041TIP3    H127614   6.047   0.842  11.933  0.8632  0.4069  0.1623
 2041TIP3    H227615   6.175   0.913  11.893  0.4256  0.3124 -1.4928
 2042TIP3   OH227616   0.673   4.896   0.466 -0.3324  0.6598 -0.6379
 2042TIP3    H127617   0.672   4.917   0.372  1.7576 -0.0039 -0.8474
 2042TIP3    H227618   0.759   4.924   0.496  0.2636 -2.0175  0.3870
 2043TIP3   OH227619   0.932   5.100   1.082  0.0557  0.4648 -0.1057
 2043TIP3    H127620   1.021   5.080   1.112 -0.3988  0.1274  1.0728
 2043TIP3    H227621   0.944   5.146   0.999  1.3538  1.0569  0.3886
 2044TIP3   OH227622   3.836   3.739   3.102 -0.1016  0.3777 -0.4999
 2044TIP3    H127623   3.897   3.799   3.058 -0.1470 -0.0589 -1.1720
 2044TIP3    H227624   3.836   3.768   3.193  0.4156  0.9572 -0.6737
 2045TIP3   OH227625   0.660   6.231  15.411  0.4157  0.0517  0.3326
 2045TIP3    H127626   0.608   6.171  15.465  0.3639 -1.6333 -1.4939
 2045TIP3    H227627   0.598   6.266  15.347  0.7953  0.8790  0.3980
 2046TIP3   OH227628   1.820   0.519   2.906 -0.2305  0.0396 -0.3710
 2046TIP3    H127629   1.844   0.611   2.890 -0.0255  0.0701  0.0821
 2046TIP3    H227630   1.900   0.478   2.938 -0.0286 -0.5798 -1.6222
 2047TIP3   OH227631   2.475   1.037   0.817  0.3036 -0.5864 -0.1677
 2047TIP3    H127632   2.539   0.969   0.836  0.6212 -0.6214 -1.2700
 2047TIP3    H227633   2.436   1.011   0.733  2.8942  2.2536 -2.5212
 2048TIP3   OH227634   0.713   3.530  16.532  0.1909  0.3290  0.5368
 2048TIP3    H127635   0.684   3.484  16.610 -1.0182 -0.9294 -0.5913
 2048TIP3    H227636   0.808   3.526  16.535  0.1441 -2.0761  0.6436
 2049TIP3   OH227637   4.535   6.781  11.335 -0.8706  0.3586  0.0708
 2049TIP3    H127638   4.445   6.770  11.365 -0.5942 -0.5281  0.5887
 2049TIP3    H227639   4.539   6.872  11.306 -2.2531  0.1081 -1.0542
 2050TIP3   OH227640   0.475   4.729   1.338  0.3975 -0.1080  0.3437
 2050TIP3    H127641   0.383   4.738   1.362  0.3429  0.3240 -0.0103
 2050TIP3    H227642   0.500   4.816   1.306  0.5445 -0.5597 -0.8506
 2051TIP3   OH227643   2.969   2.562   1.379  0.0703 -0.3158  0.2634
 2051TIP3    H127644   2.902   2.493   1.376  0.0722 -0.2980 -0.3087
 2051TIP3    H227645   2.927   2.635   1.425 -0.6658  0.0733 -0.9843
 2052TIP3   OH227646   5.913   6.494  15.310  0.4261  0.5902  0.5210
 2052TIP3    H127647   5.836   6.512  15.364  0.9900  0.2647  1.4562
 2052TIP3    H227648   5.987   6.522  15.364  1.1750 -1.9030  0.9548
 2053TIP3   OH227649   2.578   3.289   2.996  0.2510  0.1679 -0.0331
 2053TIP3    H127650   2.584   3.381   2.973 -0.0374  0.3231  0.4804
 2053TIP3    H227651   2.668   3.261   3.008  0.3141  1.2815  3.1454
 2054TIP3   OH227652   1.005   3.533  13.598 -0.5015 -0.0999  0.1388
 2054TIP3    H127653   1.007   3.616  13.550  1.1776 -0.4023 -0.3422
 2054TIP3    H227654   0.950   3.476  13.544  2.0343 -0.7143 -1.9949
 2055TIP3   OH227655   2.040   0.862   1.938  0.0337 -0.3734 -0.3422
 2055TIP3    H127656   1.984   0.909   2.000 -0.6398  0.6496 -1.6741
 2055TIP3    H227657   2.125   0.906   1.945 -0.5904  1.1030 -1.5708
 2056TIP3   OH227658   0.567   1.975   1.475 -0.1221 -0.4949 -0.0429
 2056TIP3    H127659   0.549   2.048   1.535 -0.0808 -0.6792  0.1945
 2056TIP3    H227660   0.490   1.919   1.483  0.8824 -1.7181  1.6094
 2057TIP3   OH227661   2.949   0.660  16.644 -0.3659 -0.2245 -0.5439
 2057TIP3    H127662   2.948   0.694  16.733 -0.0542 -1.5882 -0.0014
 2057TIP3    H227663   2.914   0.571  16.651 -2.3438  0.3459 -2.1004
 2058TIP3   OH227664   6.812   0.464   1.417 -0.0557 -0.6049  0.2785
 2058TIP3    H127665   6.901   0.433   1.434  0.5349  0.8423 -0.0466
 2058TIP3    H227666   6.799   0.448   1.324  0.3180  0.2074  0.0699
 2059TIP3   OH227667   3.091   0.221   5.799 -0.1942 -0.3008  0.4964
 2059TIP3    H127668   3.173   0.243   5.845  0.5892 -0.7896 -0.6341
 2059TIP3    H227669   3.094   0.274   5.719 -0.3552 -1.2782 -0.1687
 2060TIP3   OH227670   1.980   5.040   0.326  0.1281  0.1930  0.2651
 2060TIP3    H127671   1.955   5.095   0.400  0.4260  1.0040 -0.2262
 2060TIP3    H227672   1.946   5.086   0.249  0.2510 -0.3882 -0.1461
 2061TIP3   OH227673   3.717   5.578  11.356  0.0460 -0.0761 -0.0635
 2061TIP3    H127674   3.687   5.512  11.419 -0.1992 -1.7001 -1.8185
 2061TIP3    H227675   3.760   5.644  11.411 -1.0588 -0.8841  1.9054
 2062TIP3   OH227676   0.445   3.690  17.016  0.1599  0.0519  0.0916
 2062TIP3    H127677   0.455   3.734  16.931  0.3970  2.9517  1.4823
 2062TIP3    H227678   0.480   3.753  17.079 -0.6619 -1.6996  2.4259
 2063TIP3   OH227679   4.215   2.922  14.504 -0.2136 -0.2584  0.7307
 2063TIP3    H127680   4.253   2.891  14.587 -2.2881 -0.8875  1.5008
 2063TIP3    H227681   4.167   3.001  14.528 -1.2700 -0.7441  0.2491
 2064TIP3   OH227682   6.810   4.525   5.943  0.6550  0.1494 -0.4149
 2064TIP3    H127683   6.867   4.533   6.019  0.4199 -0.6128 -0.1568
 2064TIP3    H227684   6.829   4.438   5.907  0.1510  0.1646 -0.7306
 2065TIP3   OH227685   6.108   3.201  16.733  0.2644 -0.2488  0.1696
 2065TIP3    H127686   6.181   3.255  16.764 -0.6739  2.2877 -1.6376
 2065TIP3    H227687   6.149   3.134  16.679  1.3877 -0.2604  1.0042
 2066TIP3   OH227688   5.170   0.033  16.119 -0.2132  0.0089 -0.3532
 2066TIP3    H127689   5.179  -0.027  16.045  0.1703 -0.1605 -0.1706
 2066TIP3    H227690   5.085   0.076  16.105 -1.2162 -1.6610  0.3113
 2067TIP3   OH227691   4.677   0.428  16.462 -0.6086  0.1064 -0.0043
 2067TIP3    H127692   4.728   0.477  16.397  0.6476  0.3931  1.1448
 2067TIP3    H227693   4.667   0.489  16.536  0.3081 -1.0735  1.1347
 2068TIP3   OH227694   2.444   4.059   4.568  0.0315  0.2628 -0.0538
 2068TIP3    H127695   2.508   4.127   4.547 -0.1609  0.1047 -1.2525
 2068TIP3    H227696   2.415   4.079   4.657  0.7501  1.1220 -0.0021
 2069TIP3   OH227697   3.917   3.864   4.253  0.3260  0.0521  0.1266
 2069TIP3    H127698   3.998   3.853   4.303 -0.8377  0.4345  2.2138
 2069TIP3    H227699   3.930   3.811   4.175  2.0012 -1.1228  1.1367
 2070TIP3   OH227700   1.498   4.918  15.473 -0.1491 -0.4125  0.3819
 2070TIP3    H127701   1.424   4.858  15.480 -1.1970  0.7577 -0.2558
 2070TIP3    H227702   1.575   4.861  15.466 -0.8550 -1.6612  2.0987
 2071TIP3   OH227703   3.291   2.701   1.137  0.3146  0.3743 -0.2925
 2071TIP3    H127704   3.281   2.747   1.221  2.1871 -2.7115  1.8224
 2071TIP3    H227705   3.206   2.713   1.094 -1.9865 -0.4219  3.4713
 2072TIP3   OH227706   4.694   0.515   1.992 -0.1885 -0.3823 -0.0386
 2072TIP3    H127707   4.665   0.578   1.926  1.9543 -0.1110 -0.8015
 2072TIP3    H227708   4.689   0.563   2.075  2.0103  1.1047 -0.6773
 2073TIP3   OH227709   4.111   3.108  11.429 -0.0791  0.0639  0.6326
 2073TIP3    H127710   4.135   3.177  11.490  1.4625 -0.6940  0.9172
 2073TIP3    H227711   4.182   3.106  11.365 -0.3869 -0.8671  0.3038
 2074TIP3   OH227712   2.505   5.529  11.954  0.0356  0.4174  0.6797
 2074TIP3    H127713   2.411   5.527  11.937 -0.0025  1.9998  0.5221
 2074TIP3    H227714   2.543   5.481  11.880 -0.6305  0.0016  0.5976
 2075TIP3   OH227715   3.212   4.424   0.289  0.1090  0.0460 -0.1369
 2075TIP3    H127716   3.237   4.505   0.335  0.1154  1.4889 -2.5373
 2075TIP3    H227717   3.271   4.357   0.325  1.6746  1.6005  0.3036
 2076TIP3   OH227718   3.111   1.486  11.916 -0.0557 -0.3194  0.3318
 2076TIP3    H127719   3.200   1.513  11.895  0.1489  1.5400  3.0494
 2076TIP3    H227720   3.082   1.436  11.839  2.1503  1.7256 -2.0276
 2077TIP3   OH227721   6.201   1.391   4.353  0.1863  0.0501  0.2083
 2077TIP3    H127722   6.287   1.432   4.338 -0.7471  2.6098  1.2595
 2077TIP3    H227723   6.216   1.298   4.338  2.4750  0.6998 -2.5371
 2078TIP3   OH227724   3.926   3.659   5.023 -0.2940 -0.0427 -0.0498
 2078TIP3    H127725   3.949   3.591   4.959 -0.4736  0.6025 -0.8121
 2078TIP3    H227726   3.993   3.651   5.091  0.7298  0.1573 -1.0045
 2079TIP3   OH227727   0.544   2.094   1.179  0.6727 -0.1628  0.1823
 2079TIP3    H127728   0.560   2.090   1.273  1.4615  0.7312  0.1049
 2079TIP3    H227729   0.591   2.172   1.150 -0.7144  0.3854 -0.7251
 2080TIP3   OH227730   1.860   1.250  15.083 -0.0648  0.1636 -0.3352
 2080TIP3    H127731   1.868   1.294  14.998  0.6755 -0.3791 -0.5514
 2080TIP3    H227732   1.807   1.173  15.065 -0.2320  0.2498 -0.2194
 2081TIP3   OH227733   5.952   5.161   5.538 -0.0457  0.0229 -0.3207
 2081TIP3    H127734   5.932   5.222   5.467  0.0330 -1.0475 -1.2874
 2081TIP3    H227735   6.011   5.210   5.596 -1.1351  1.3548 -0.2782
 2082TIP3   OH227736   3.742   4.397   4.310 -0.2600  0.3272 -0.3364
 2082TIP3    H127737   3.827   4.353   4.320 -0.1659  0.2980 -1.1842
 2082TIP3    H227738   3.740   4.422   4.218 -1.6069 -0.5691 -0.5765
 2083TIP3   OH227739   2.814   2.074  11.275  0.3692 -0.1934 -0.1000
 2083TIP3    H127740   2.866   2.001  11.240  2.0579 -0.1099  1.9732
 2083TIP3    H227741   2.879   2.143  11.292 -0.6687  0.5311  1.1031
 2084TIP3   OH227742   6.316   3.308  14.328 -0.1319 -0.1573 -0.0499
 2084TIP3    H127743   6.379   3.355  14.383  1.6917 -0.7492 -1.5396
 2084TIP3    H227744   6.342   3.329  14.238 -1.7030 -0.9355 -0.7193
 2085TIP3   OH227745   2.673   4.256   4.567 -0.5889  0.1110  0.3216
 2085TIP3    H127746   2.757   4.290   4.536 -0.9884  0.4485 -0.4420
 2085TIP3    H227747   2.688   4.232   4.658  0.0872  1.0321  0.4702
 2086TIP3   OH227748   0.348   3.029  16.274 -0.1206 -0.0918 -0.2953
 2086TIP3    H127749   0.351   3.122  16.250  0.5839 -0.0715 -0.1491
 2086TIP3    H227750   0.438   3.008  16.299 -0.3731 -0.6935  0.1340
 2087TIP3   OH227751   1.579   2.322  15.275 -0.5274 -0.4871 -0.4510
 2087TIP3    H127752   1.560   2.411  15.245  0.3733 -0.5467 -1.2538
 2087TIP3    H227753   1.661   2.330  15.324 -1.5011 -0.5529  1.2843
 2088TIP3   OH227754   4.852   4.492   5.203 -0.2624  0.1156 -0.0425
 2088TIP3    H127755   4.938   4.535   5.208  1.4633 -2.9752 -0.4171
 2088TIP3    H227756   4.848   4.457   5.114 -1.5213 -0.5461  0.2562
 2089TIP3   OH227757   0.926   0.989  14.022 -0.0956 -0.3969 -1.1394
 2089TIP3    H127758   0.957   0.907  13.985 -1.5585 -0.9395 -1.2075
 2089TIP3    H227759   0.867   0.963  14.093  0.8382  0.6147  0.0564
 2090TIP3   OH227760   0.826   1.923   5.885  0.8749 -0.3101 -0.0194
 2090TIP3    H127761   0.743   1.888   5.917  1.5982  0.5314  3.1461
 2090TIP3    H227762   0.853   1.863   5.816 -1.4530 -1.6438  0.1297
 2091TIP3   OH227763   0.211   1.474  14.056  0.0591  0.0238 -0.5034
 2091TIP3    H127764   0.168   1.549  14.015  1.3450 -0.1963 -2.3853
 2091TIP3    H227765   0.284   1.454  13.997  0.0274 -2.4155  0.2033
 2092TIP3   OH227766   1.153   2.643  16.086 -0.2591 -1.0706 -0.1186
 2092TIP3    H127767   1.133   2.729  16.124  1.4753  0.3649 -2.2008
 2092TIP3    H227768   1.085   2.628  16.021 -0.0054 -0.7656 -0.4595
 2093TIP3   OH227769   6.131   5.875  12.837  0.3439  0.3189 -0.2204
 2093TIP3    H127770   6.097   5.916  12.758 -1.2336  0.2154  0.3720
 2093TIP3    H227771   6.163   5.949  12.890  1.1029  0.4153 -0.7962
 2094TIP3   OH227772   0.522   5.417  12.731 -0.2919 -0.3355 -0.2113
 2094TIP3    H127773   0.554   5.329  12.717 -1.0206 -0.5521 -0.5797
 2094TIP3    H227774   0.531   5.461  12.647  1.7690  0.5380  0.4008
 2095TIP3   OH227775   0.558   2.112  17.188 -0.0332  0.0587 -0.6658
 2095TIP3    H127776   0.506   2.192  17.180  0.0496  0.6044  2.6388
 2095TIP3    H227777   0.499   2.041  17.164 -1.1448  0.9159 -0.5266
 2096TIP3   OH227778   1.459   4.163   1.006  0.0308 -0.5282  0.3446
 2096TIP3    H127779   1.487   4.228   1.070  0.4259  0.9031 -1.1820
 2096TIP3    H227780   1.541   4.121   0.977 -0.2656 -2.1827  1.7222
 2097TIP3   OH227781   1.730   0.421   0.322 -0.4246  0.3164  0.5162
 2097TIP3    H127782   1.703   0.344   0.373 -2.2333  0.6802  0.1858
 2097TIP3    H227783   1.665   0.426   0.252  1.0462  0.8008 -0.8533
 2098TIP3   OH227784   2.717   6.741  16.954 -0.1680  0.0819 -0.1912
 2098TIP3    H127785   2.771   6.695  17.018  0.8833  1.1135 -0.2996
 2098TIP3    H227786   2.777   6.804  16.913 -1.5964  1.7604  0.1625
 2099TIP3   OH227787   5.564   0.183   0.940  0.1393  0.0924 -0.0707
 2099TIP3    H127788   5.600   0.121   0.877  1.6824 -0.5075  1.3233
 2099TIP3    H227789   5.591   0.269   0.907  0.5918 -0.1854 -0.4350
 2100TIP3   OH227790   4.962   1.459   3.507  0.4932  0.1587  0.4121
 2100TIP3    H127791   4.888   1.399   3.501 -1.4895  2.4889 -0.2929
 2100TIP3    H227792   5.026   1.413   3.560 -1.0943 -2.3461  0.3086
 2101TIP3   OH227793   4.687   4.286   4.313 -0.5793 -0.0003 -0.5109
 2101TIP3    H127794   4.648   4.208   4.275  1.6523 -1.1175 -0.6350
 2101TIP3    H227795   4.741   4.323   4.243  3.1754 -1.7943  1.1455
 2102TIP3   OH227796   0.925   4.100  11.968 -0.6185  0.1921 -0.1805
 2102TIP3    H127797   0.955   4.127  11.881  1.0874  0.3315  0.4334
 2102TIP3    H227798   0.942   4.175  12.024 -1.1122 -0.1353  0.4105
 2103TIP3   OH227799   3.250   0.279  13.491  0.8145 -0.0703 -0.5905
 2103TIP3    H127800   3.207   0.211  13.543  1.7722  0.4775  1.0086
 2103TIP3    H227801   3.216   0.267  13.403 -0.3577 -1.5018  0.0080
 2104TIP3   OH227802   6.441   6.380   2.348  0.3358  0.0948  0.9058
 2104TIP3    H127803   6.366   6.423   2.389 -2.0168 -0.7803 -2.0750
 2104TIP3    H227804   6.429   6.396   2.254  2.1033 -2.7970  0.0643
 2105TIP3   OH227805   0.565   1.209  16.301  0.3954 -0.5262  0.2594
 2105TIP3    H127806   0.647   1.183  16.342  1.0216  0.3654 -0.3858
 2105TIP3    H227807   0.537   1.133  16.251  0.4654 -1.0657  1.0302
 2106TIP3   OH227808   0.947   2.161  12.796  0.0756  0.4296 -0.0585
 2106TIP3    H127809   0.938   2.162  12.701 -1.0863  0.6877  0.0351
 2106TIP3    H227810   1.005   2.087  12.814  0.3260  0.3912 -0.9607
 2107TIP3   OH227811   4.548   6.565   3.928 -0.2716  0.1214 -0.3301
 2107TIP3    H127812   4.623   6.590   3.874 -0.0339  0.7993  0.3115
 2107TIP3    H227813   4.586   6.527   4.007 -0.6174 -0.3298 -0.3730
 2108TIP3   OH227814   0.888   5.639  14.632 -0.3411 -0.0116 -0.0227
 2108TIP3    H127815   0.802   5.666  14.599 -1.0257  0.9260  2.2895
 2108TIP3    H227816   0.949   5.658  14.561 -1.9007  0.2792 -1.3394
 2109TIP3   OH227817   6.737   6.138   2.405 -0.7879  0.1057 -0.6123
 2109TIP3    H127818   6.760   6.067   2.344 -0.2574 -0.3357  0.0853
 2109TIP3    H227819   6.820   6.181   2.424 -0.8536 -0.1056  0.2141
 2110TIP3   OH227820   5.417   1.832   2.862  0.1267  0.0864  0.0648
 2110TIP3    H127821   5.511   1.845   2.875 -0.2990  2.0598  1.6304
 2110TIP3    H227822   5.383   1.817   2.950 -1.2327  0.9292 -0.2920
 2111TIP3   OH227823   4.182   4.338   2.101 -0.4342  0.0061  0.5946
 2111TIP3    H127824   4.172   4.295   2.016  1.6354  1.5640 -0.5178
 2111TIP3    H227825   4.092   4.357   2.128 -1.1490  1.2496 -2.2520
 2112TIP3   OH227826   2.586   1.722   5.688  0.0588  0.1943  0.0143
 2112TIP3    H127827   2.669   1.759   5.656 -0.4022  0.9313 -0.3641
 2112TIP3    H227828   2.542   1.691   5.609  0.1472 -0.5577  0.2594
 2113TIP3   OH227829   5.855   5.469   2.384 -0.2724  0.5288 -0.3408
 2113TIP3    H127830   5.795   5.500   2.316 -1.5572 -1.4571 -0.1813
 2113TIP3    H227831   5.840   5.375   2.389  1.2550  0.3132  1.3120
 2114TIP3   OH227832   3.792   0.885   0.828  0.0482 -0.0086 -0.1693
 2114TIP3    H127833   3.704   0.894   0.793 -0.0701 -0.7010 -0.0574
 2114TIP3    H227834   3.782   0.834   0.908  0.0307  3.3700  2.1660
 2115TIP3   OH227835   6.735   6.791   1.580 -0.8102 -0.0261 -0.9188
 2115TIP3    H127836   6.776   6.726   1.637  1.2861  2.4496  0.6787
 2115TIP3    H227837   6.644   6.763   1.572 -0.2285 -2.5929  0.4162
 2116TIP3   OH227838   6.127   6.618  16.369  0.4573  0.4801 -0.1462
 2116TIP3    H127839   6.216   6.587  16.352  1.1078  1.6178  1.0158
 2116TIP3    H227840   6.137   6.713  16.382 -0.9303  0.6289 -0.0541
 2117TIP3   OH227841   2.166   3.795   2.811 -0.0580 -0.1165 -0.3404
 2117TIP3    H127842   2.179   3.889   2.796 -1.8617  0.3532  0.7025
 2117TIP3    H227843   2.073   3.781   2.796 -0.4382 -1.1103  2.4230
 2118TIP3   OH227844   1.594   4.890   0.103 -0.0254  0.4915 -0.0723
 2118TIP3    H127845   1.529   4.820   0.101 -1.6481  1.9334 -1.1114
 2118TIP3    H227846   1.545   4.967   0.132  2.2361  0.7675  3.6407
 2119TIP3   OH227847   5.017   5.037   2.466 -0.9740  0.1261  0.7811
 2119TIP3    H127848   5.073   4.966   2.497 -2.1588 -0.7637  0.9260
 2119TIP3    H227849   5.078   5.100   2.426  0.2765 -0.1111  2.2334
 2120TIP3   OH227850   5.353   1.995  14.315  0.3538  0.5316  0.7203
 2120TIP3    H127851   5.326   1.911  14.352  1.7319  0.4847  1.7238
 2120TIP3    H227852   5.449   1.992  14.315  0.4137  1.6308 -0.3549
 2121TIP3   OH227853   5.533   5.168   6.766 -0.0136 -0.1073 -0.4103
 2121TIP3    H127854   5.480   5.232   6.814 -0.3209 -0.5519 -0.1525
 2121TIP3    H227855   5.551   5.211   6.682 -1.6805 -0.3618 -0.9327
 2122TIP3   OH227856   5.109   2.227   3.148 -0.2321 -0.0444  0.4599
 2122TIP3    H127857   5.049   2.301   3.156  1.2487  1.5809 -2.1172
 2122TIP3    H227858   5.086   2.186   3.064  1.2853 -0.2908  0.1328
 2123TIP3   OH227859   5.135   3.772  12.336 -0.0128 -0.0001 -0.4853
 2123TIP3    H127860   5.123   3.860  12.370  2.3867  0.7210 -1.3064
 2123TIP3    H227861   5.063   3.760  12.274 -2.3824 -0.0106  2.0756
 2124TIP3   OH227862   2.962   1.700   3.698 -0.1038  0.6325 -0.3769
 2124TIP3    H127863   2.881   1.749   3.684 -1.4172 -1.3105  0.1067
 2124TIP3    H227864   2.960   1.675   3.790 -0.2299 -1.5510 -0.9257
 2125TIP3   OH227865   6.322   1.029   5.375 -0.5033  0.6631  0.6156
 2125TIP3    H127866   6.303   1.034   5.469 -0.0883 -2.0655  0.9307
 2125TIP3    H227867   6.239   1.002   5.336  0.3224 -2.7375  0.8904
 2126TIP3   OH227868   2.041   4.065   1.738  0.4917 -0.1915  0.2961
 2126TIP3    H127869   1.991   4.025   1.667  0.0970 -0.2862  0.6194
 2126TIP3    H227870   2.127   4.023   1.734  0.8931  0.7012 -0.9020
 2127TIP3   OH227871   0.289   1.650   2.660 -0.1120 -0.2010 -0.0752
 2127TIP3    H127872   0.332   1.612   2.584 -1.9199  0.1221 -1.3442
 2127TIP3    H227873   0.253   1.575   2.707 -0.8381 -0.3133 -0.7685
 2128TIP3   OH227874   4.817   2.876   1.955  0.5707 -0.8161 -0.0665
 2128TIP3    H127875   4.745   2.939   1.960 -0.3348 -1.8575  0.5336
 2128TIP3    H227876   4.800   2.826   1.875  0.5957 -1.1022  0.1059
 2129TIP3   OH227877   0.738   1.457   1.177 -0.3484  0.2333 -0.6488
 2129TIP3    H127878   0.658   1.464   1.228 -1.0565 -0.1835 -1.6688
 2129TIP3    H227879   0.714   1.489   1.090  0.5630  0.0297 -0.9898
 2130TIP3   OH227880   6.358   3.000  11.864 -0.6572 -0.2437 -0.3719
 2130TIP3    H127881   6.329   2.912  11.890 -1.9934 -0.0052 -1.0041
 2130TIP3    H227882   6.337   3.055  11.940 -0.1231 -0.3978 -0.1057
 2131TIP3   OH227883   5.948   4.038   3.922  0.4429 -0.3738 -0.9068
 2131TIP3    H127884   5.916   3.948   3.911 -0.5551 -0.1432 -0.0060
 2131TIP3    H227885   5.894   4.074   3.992  0.6226  1.0352 -1.4711
 2132TIP3   OH227886   6.638   6.278  14.901  0.5781  0.0011  0.1996
 2132TIP3    H127887   6.551   6.286  14.862 -0.4804  0.1547  2.4076
 2132TIP3    H227888   6.672   6.194  14.870 -0.3449 -0.0464 -0.7083
 2133TIP3   OH227889   1.916   3.700  15.211  0.2605 -0.0006 -0.4383
 2133TIP3    H127890   1.881   3.717  15.123  2.4057 -0.0397 -1.3643
 2133TIP3    H227891   1.957   3.614  15.204  1.6483  0.5760  0.1859
 2134TIP3   OH227892   3.908   1.551   3.528 -0.0615  0.3956 -0.6417
 2134TIP3    H127893   3.816   1.535   3.509  0.2081 -1.9921 -0.3528
 2134TIP3    H227894   3.951   1.550   3.442 -0.0655 -0.6249 -0.6443
 2135TIP3   OH227895   5.432   3.881   5.454 -0.1533  0.2515  0.5047
 2135TIP3    H127896   5.508   3.879   5.512  0.2382 -0.3295 -0.0169
 2135TIP3    H227897   5.404   3.790   5.449  0.8650 -0.0185 -1.5678
 2136TIP3   OH227898   6.743   1.602   0.475  0.7198 -0.1240 -0.1215
 2136TIP3    H127899   6.734   1.697   0.483  1.8981 -0.0896  0.9980
 2136TIP3    H227900   6.774   1.589   0.385  0.0442  0.4930 -0.4580
 2137TIP3   OH227901   0.809   0.994   0.356 -0.5332 -0.5515 -0.4180
 2137TIP3    H127902   0.730   0.965   0.312  0.2219 -0.9794 -1.5374
 2137TIP3    H227903   0.858   1.043   0.290  0.2783 -0.5454  0.1575
 2138TIP3   OH227904   1.420   3.565  10.582  0.0871 -0.2087  0.2793
 2138TIP3    H127905   1.508   3.543  10.614 -0.4653 -1.5883  0.9266
 2138TIP3    H227906   1.362   3.505  10.629 -0.9070 -1.3963 -2.2895
 2139TIP3   OH227907   0.772   4.809  13.601  0.0601  0.2124 -0.2901
 2139TIP3    H127908   0.774   4.728  13.652  0.3943  0.5622  0.2700
 2139TIP3    H227909   0.847   4.859  13.634  0.6720  0.1800 -1.5802
 2140TIP3   OH227910   3.634   5.181  16.329  0.4140  0.2313 -0.1631
 2140TIP3    H127911   3.581   5.257  16.304  0.3587  1.3408  2.8451
 2140TIP3    H227912   3.724   5.213  16.326  0.6689 -0.5589 -1.7932
 2141TIP3   OH227913   3.613   3.040   5.507  0.2211  0.1269  0.3149
 2141TIP3    H127914   3.679   3.077   5.449 -0.0438 -0.7998 -0.6089
 2141TIP3    H227915   3.607   3.103   5.580  1.7578  0.4580  0.1906
 2142TIP3   OH227916   3.983   4.592   6.534 -0.5110 -0.6583 -0.2291
 2142TIP3    H127917   4.030   4.634   6.605 -0.2435 -1.4096  0.0507
 2142TIP3    H227918   3.910   4.651   6.514  0.4697  0.4618 -0.5895
 2143TIP3   OH227919   3.156   3.392  17.251  0.1240  0.4379 -0.0579
 2143TIP3    H127920   3.236   3.351  17.284 -0.7016 -0.6992  0.5876
 2143TIP3    H227921   3.128   3.336  17.179 -1.6397 -0.9145  1.5648
 2144TIP3   OH227922   5.652   0.856  13.436  0.4785  0.2526 -0.7634
 2144TIP3    H127923   5.653   0.811  13.351  1.2559  0.2149 -0.7395
 2144TIP3    H227924   5.734   0.830  13.478  0.2678  0.5638 -0.1500
 2145TIP3   OH227925   3.710   3.038  12.690 -0.2023 -0.4052 -0.0519
 2145TIP3    H127926   3.746   3.036  12.779 -2.0023  0.1857  0.7387
 2145TIP3    H227927   3.702   3.132  12.670 -0.5438 -0.5304 -0.5234
 2146TIP3   OH227928   1.111   0.943   3.931 -0.1242  0.5607 -0.7010
 2146TIP3    H127929   1.049   0.952   3.858 -0.1375 -1.7048 -1.0422
 2146TIP3    H227930   1.056   0.944   4.010 -0.4723 -0.0709 -0.9277
 2147TIP3   OH227931   0.722   0.225  14.304  0.0359 -0.2106  0.4162
 2147TIP3    H127932   0.704   0.170  14.381  0.1886 -0.3451  0.3560
 2147TIP3    H227933   0.721   0.164  14.230  0.2954 -0.1456  0.3596
 2148TIP3   OH227934   3.244   3.842  11.871 -0.3933 -0.0421  0.0351
 2148TIP3    H127935   3.174   3.880  11.817 -0.2872  1.2812  0.7889
 2148TIP3    H227936   3.325   3.870  11.828 -0.3167 -0.0582  0.1707
 2149TIP3   OH227937   2.176   5.033   0.677  0.5188 -0.1809  0.0417
 2149TIP3    H127938   2.133   4.955   0.641  0.2582 -0.6255  1.2699
 2149TIP3    H227939   2.120   5.059   0.750 -0.2418  2.0776 -1.2287
 2150TIP3   OH227940   4.207   5.323  14.867  0.2198 -0.2161 -0.0557
 2150TIP3    H127941   4.170   5.271  14.795  0.5286 -0.8067  0.2051
 2150TIP3    H227942   4.160   5.292  14.945  0.7014 -0.4098  0.1632
 2151TIP3   OH227943   0.498   4.671   0.556  0.3885 -0.2016 -0.2541
 2151TIP3    H127944   0.474   4.759   0.583 -2.9798 -1.3793  1.1329
 2151TIP3    H227945   0.570   4.647   0.615  2.0191  1.8546 -1.3034
 2152TIP3   OH227946   3.233   5.371   1.047 -0.0468 -0.2042  0.0558
 2152TIP3    H127947   3.232   5.280   1.017  0.1355 -0.4438  0.7580
 2152TIP3    H227948   3.193   5.368   1.134 -0.2945  0.4321 -0.0283
 2153TIP3   OH227949   1.915   3.106   4.618 -0.2528 -0.2599 -0.5640
 2153TIP3    H127950   1.963   3.171   4.567  0.6236  0.2770  0.8838
 2153TIP3    H227951   1.976   3.080   4.687 -1.1528 -1.4833 -0.1889
 2154TIP3   OH227952   6.031   3.597  14.400 -0.7469 -0.4910  0.5695
 2154TIP3    H127953   5.970   3.528  14.426  0.0780 -0.9343  1.3681
 2154TIP3    H227954   6.088   3.609  14.476  0.8858 -0.9049 -0.5291
 2155TIP3   OH227955   1.743   2.358   1.998 -0.1688  0.0077  0.2055
 2155TIP3    H127956   1.702   2.391   2.078 -0.1960 -0.1574  0.2591
 2155TIP3    H227957   1.690   2.395   1.927  1.2988  2.2476  0.1389
 2156TIP3   OH227958   2.020   0.966   2.452  0.2864  0.6635 -0.2888
 2156TIP3    H127959   2.075   1.010   2.388 -0.5698  2.9501  0.4267
 2156TIP3    H227960   1.943   1.022   2.459  0.3989  0.5842  2.8073
 2157TIP3   OH227961   4.049   1.630  15.511 -0.1705 -0.1774  0.0954
 2157TIP3    H127962   4.064   1.572  15.436 -1.8476  1.8545 -1.9410
 2157TIP3    H227963   4.126   1.687  15.513 -1.6650  2.1270 -2.4897
 2158TIP3   OH227964   2.811   2.943   6.183  0.4483 -0.0079  0.0315
 2158TIP3    H127965   2.801   2.870   6.122 -0.2514 -1.4690  1.7940
 2158TIP3    H227966   2.750   2.924   6.254  2.9227  0.3004  2.4234
 2159TIP3   OH227967   0.503   3.535  13.023 -0.1208 -0.2142  0.2287
 2159TIP3    H127968   0.444   3.608  13.040 -1.2827 -0.8610 -0.8455
 2159TIP3    H227969   0.464   3.489  12.948  2.2761 -0.1095 -1.1981
 2160TIP3   OH227970   2.781   5.525  16.050  0.2282  0.1337  0.2209
 2160TIP3    H127971   2.867   5.561  16.027  0.3386 -0.4631 -0.3101
 2160TIP3    H227972   2.726   5.602  16.065  0.9447  0.5191  0.9151
 2161TIP3   OH227973   4.684   6.409   2.530  0.5287 -0.0320  0.5319
 2161TIP3    H127974   4.662   6.325   2.489 -0.7747 -0.0815  1.2915
 2161TIP3    H227975   4.602   6.459   2.527  1.6036  1.7789 -1.1530
 2162TIP3   OH227976   2.129   2.246  13.919 -0.3356 -0.2061 -1.1197
 2162TIP3    H127977   2.047   2.286  13.949  0.0698 -0.5316  0.4855
 2162TIP3    H227978   2.118   2.152  13.936  1.8023  0.0686  2.9851
 2163TIP3   OH227979   5.329   1.149  16.295  0.0764  0.8634  0.2457
 2163TIP3    H127980   5.419   1.169  16.321  0.1521  0.4015  0.3459
 2163TIP3    H227981   5.334   1.126  16.202 -0.2867  3.1340 -0.3899
 2164TIP3   OH227982   1.910   3.120   3.683 -0.0684 -0.3120  0.1687
 2164TIP3    H127983   1.902   3.026   3.701  1.1426 -0.3299  0.7173
 2164TIP3    H227984   1.822   3.146   3.656 -0.1107 -1.9035 -1.4808
 2165TIP3   OH227985   5.218   0.156   3.067 -0.3369 -0.4064 -0.3492
 2165TIP3    H127986   5.166   0.209   3.007 -1.1415  0.1082  0.7696
 2165TIP3    H227987   5.292   0.125   3.014 -1.3966 -0.5699 -1.7868
 2166TIP3   OH227988   3.057   5.746  14.087 -0.5375  0.2731 -0.1764
 2166TIP3    H127989   3.138   5.796  14.077 -0.3025 -0.3425 -1.6329
 2166TIP3    H227990   2.998   5.781  14.021 -0.4995 -1.0668 -0.9591
 2167TIP3   OH227991   6.242   1.168   5.903  0.8761  0.0213  0.1010
 2167TIP3    H127992   6.330   1.170   5.942 -0.0981 -0.8839  2.5347
 2167TIP3    H227993   6.230   1.256   5.867  3.2034 -0.1909 -1.4574
 2168TIP3   OH227994   1.571   4.148   2.044  0.3356 -0.1177 -0.0085
 2168TIP3    H127995   1.544   4.057   2.055  1.2243 -0.2363  1.4952
 2168TIP3    H227996   1.650   4.143   1.990  0.5186 -0.2660  0.2714
 2169TIP3   OH227997   0.870   1.899   1.469  0.2721 -0.2436  0.5058
 2169TIP3    H127998   0.816   1.977   1.485 -0.3262 -0.0319 -2.1073
 2169TIP3    H227999   0.915   1.918   1.387 -1.6679 -3.4897 -1.5246
 2170TIP3   OH228000   2.718   3.710  11.121 -0.2333  0.1136  0.0612
 2170TIP3    H128001   2.723   3.799  11.086 -1.2975  0.1489 -0.0363
 2170TIP3    H228002   2.741   3.654  11.046  1.3177  0.3123  0.3519
 2171TIP3   OH228003   1.721   2.641  13.536 -0.4616 -0.5149 -0.1990
 2171TIP3    H128004   1.798   2.632  13.480 -0.0240  1.7838 -0.0426
 2171TIP3    H228005   1.747   2.598  13.618  1.1259  1.1739  0.2478
 2172TIP3   OH228006   5.466   0.862  14.339 -0.1706 -0.4090 -0.5642
 2172TIP3    H128007   5.443   0.929  14.404  2.6638  2.5219 -2.2587
 2172TIP3    H228008   5.388   0.854  14.284 -1.0435  0.5287  0.4754
 2173TIP3   OH228009   0.431   2.043  12.439 -0.1124  0.2670 -0.8019
 2173TIP3    H128010   0.396   2.118  12.392  0.7797  1.3389  0.2078
 2173TIP3    H228011   0.359   2.013  12.494 -0.3960  0.5355 -1.0262
 2174TIP3   OH228012   5.765   3.767  13.877 -0.0315 -0.1037 -0.4286
 2174TIP3    H128013   5.779   3.681  13.915 -2.4981  0.4570  2.0410
 2174TIP3    H228014   5.717   3.750  13.796  0.9973 -1.0907 -0.8560
 2175TIP3   OH228015   3.284   4.077   6.086 -1.1345 -0.2263  0.3303
 2175TIP3    H128016   3.244   4.027   6.158 -2.0392  1.6163  1.1627
 2175TIP3    H228017   3.376   4.087   6.113 -1.5055  0.5898  1.3339
 2176TIP3   OH228018   3.068   3.502  16.425  0.1868  0.1983 -0.1545
 2176TIP3    H128019   3.057   3.562  16.499 -0.2264  0.8719 -0.7543
 2176TIP3    H228020   2.993   3.519  16.369 -0.4422 -1.5338  0.0979
 2177TIP3   OH228021   0.844   1.873   5.557  0.4164  0.2784 -0.1154
 2177TIP3    H128022   0.937   1.893   5.551  0.1807  1.2333 -0.6630
 2177TIP3    H228023   0.821   1.838   5.470  0.5060 -1.0516  0.3745
 2178TIP3   OH228024   1.796   5.966  17.200 -0.1679  0.3908  0.1712
 2178TIP3    H128025   1.851   5.954  17.277  0.4465 -0.0709 -0.3311
 2178TIP3    H228026   1.821   5.895  17.141  0.0333  1.2703 -0.8349
 2179TIP3   OH228027   4.871   3.288  14.537 -0.0080 -0.9228  0.3683
 2179TIP3    H128028   4.782   3.290  14.502  0.3205 -1.5123 -0.5074
 2179TIP3    H228029   4.891   3.380  14.554  0.1838 -0.4737 -1.9548
 2180TIP3   OH228030   0.913   2.323   2.589 -0.4197  0.0575 -0.0180
 2180TIP3    H128031   0.893   2.346   2.679  2.3661 -0.2171  0.7652
 2180TIP3    H228032   0.890   2.231   2.581  0.1122 -0.1445  0.7019
 2181TIP3   OH228033   1.314   3.835   6.726  0.1976  0.4349  0.4262
 2181TIP3    H128034   1.226   3.840   6.688  0.4046  0.6809 -0.0310
 2181TIP3    H228035   1.318   3.910   6.787 -0.4689 -0.5071  1.6829
 2182TIP3   OH228036   5.792   0.353   0.496 -1.0277  0.1163 -0.4792
 2182TIP3    H128037   5.773   0.443   0.525 -0.0149  0.2796 -0.2919
 2182TIP3    H228038   5.888   0.347   0.499 -0.9078 -0.1692 -2.9038
 2183TIP3   OH228039   3.584   0.328  16.095 -0.1710 -0.0561  0.3208
 2183TIP3    H128040   3.515   0.266  16.070  0.9195 -0.6952 -1.2927
 2183TIP3    H228041   3.665   0.286  16.065  0.7811  1.2872  0.9518
 2184TIP3   OH228042   3.264   5.274   4.961  0.0145  0.4112 -0.0873
 2184TIP3    H128043   3.348   5.296   5.000  0.6389 -1.5151 -0.2406
 2184TIP3    H228044   3.201   5.283   5.033  0.4889  0.9523  0.2692
 2185TIP3   OH228045   4.552   2.766   3.360  0.3393 -0.5263  0.0387
 2185TIP3    H128046   4.459   2.757   3.343  0.2222  0.0140  0.3656
 2185TIP3    H228047   4.576   2.851   3.323  0.4700 -0.1828  0.8715
 2186TIP3   OH228048   3.178   5.123   4.432 -0.6629 -0.0493 -0.6953
 2186TIP3    H128049   3.150   5.097   4.345 -1.3876  0.2821 -0.5686
 2186TIP3    H228050   3.250   5.184   4.417  0.6891 -1.6534 -0.9990
 2187TIP3   OH228051   3.226   3.786  12.431 -0.4586  0.3280  0.2138
 2187TIP3    H128052   3.236   3.813  12.340 -0.4455 -0.4839 -0.0315
 2187TIP3    H228053   3.296   3.723  12.446  0.6093  1.7154  1.3100
 2188TIP3   OH228054   2.459   4.778   3.510 -0.6204  0.3601  0.1535
 2188TIP3    H128055   2.490   4.869   3.520 -2.1908  1.0817 -1.1051
 2188TIP3    H228056   2.410   4.778   3.428  2.4549 -2.5755 -1.9255
 2189TIP3   OH228057   0.658   3.283   3.544  0.0832  0.0599  0.4422
 2189TIP3    H128058   0.616   3.208   3.586 -1.7490  0.6975 -0.1368
 2189TIP3    H228059   0.750   3.275   3.567 -0.1197 -2.1584  0.7001
 2190TIP3   OH228060   4.359   4.472  10.449 -0.0722 -0.5103  0.6151
 2190TIP3    H128061   4.275   4.427  10.461  0.3766 -1.4769  0.2340
 2190TIP3    H228062   4.424   4.405  10.470  0.6132  0.0160  0.1626
 2191TIP3   OH228063   2.946   4.951  14.612 -0.1835  0.4397 -0.6402
 2191TIP3    H128064   3.028   4.983  14.651  0.2969  0.1361 -1.3958
 2191TIP3    H228065   2.886   4.944  14.687  0.4718  0.6712 -0.0796
 2192TIP3   OH228066   0.638   4.677  13.026 -0.0126 -1.2922 -0.1472
 2192TIP3    H128067   0.638   4.716  13.113 -1.3078  1.9817 -1.4502
 2192TIP3    H228068   0.546   4.657  13.009 -0.0510 -0.1636 -1.4115
 2193TIP3   OH228069   0.869   3.190   4.076 -0.0958  0.0626 -0.2172
 2193TIP3    H128070   0.933   3.129   4.038 -0.7587  0.2052 -1.6430
 2193TIP3    H228071   0.786   3.166   4.035 -0.4821  1.5069 -0.3387
 2194TIP3   OH228072   3.200   6.435   0.837  0.3504 -0.6579 -0.1783
 2194TIP3    H128073   3.196   6.512   0.781 -2.5769  0.1631  0.9909
 2194TIP3    H228074   3.250   6.463   0.913  0.0654 -0.1882 -0.1598
 2195TIP3   OH228075   3.188   1.824  13.971 -0.4611 -0.0968  0.2913
 2195TIP3    H128076   3.217   1.900  14.022  1.9492 -0.4423 -0.4401
 2195TIP3    H228077   3.263   1.802  13.916 -1.0603 -3.0221  0.4690
 2196TIP3   OH228078   1.417   2.677  16.046 -0.1712 -0.2442 -0.9082
 2196TIP3    H128079   1.325   2.655  16.057 -0.6228  1.8405 -0.0895
 2196TIP3    H228080   1.419   2.738  15.972  0.8252 -1.6991 -2.1362
 2197TIP3   OH228081   1.404   0.993   1.527  0.3678  0.5686  0.7580
 2197TIP3    H128082   1.443   0.955   1.606 -1.1058  2.8253  2.7404
 2197TIP3    H228083   1.338   0.929   1.500 -0.2466  0.4354  2.4228
 2198TIP3   OH228084   0.798   5.212   4.320  0.0595  0.1311  0.2183
 2198TIP3    H128085   0.781   5.303   4.294  1.0798  0.4411  0.5738
 2198TIP3    H228086   0.861   5.219   4.391  0.1299 -0.8657  0.2683
 2199TIP3   OH228087   4.805   4.135  14.251 -0.1198  0.4282  0.4042
 2199TIP3    H128088   4.862   4.109  14.178 -0.2316  1.6554 -0.1447
 2199TIP3    H228089   4.825   4.072  14.320 -0.3414 -1.0582 -0.8292
 2200TIP3   OH228090   4.630   2.469  11.074  0.3910 -0.4686 -0.0815
 2200TIP3    H128091   4.630   2.421  10.991  0.4060  0.0461 -0.3884
 2200TIP3    H228092   4.613   2.560  11.049 -1.2282 -0.5366  0.6347
 2201TIP3   OH228093   0.732   4.254   0.367  0.1461  0.0587 -0.1862
 2201TIP3    H128094   0.725   4.267   0.462 -2.5579 -2.7771  0.1971
 2201TIP3    H228095   0.727   4.342   0.330  2.2514  1.3369  2.2701
 2202TIP3   OH228096   5.096   0.763   4.612 -0.3507 -0.3652  0.0344
 2202TIP3    H128097   5.186   0.737   4.594 -0.9637 -1.0589 -2.3576
 2202TIP3    H228098   5.043   0.688   4.582 -1.7701  0.3915  0.5431
 2203TIP3   OH228099   4.191   2.051  11.884  0.7317  0.2719  0.3513
 2203TIP3    H128100   4.144   1.996  11.946  1.2823 -0.7866 -0.1607
 2203TIP3    H228101   4.259   1.995  11.848 -0.0551  0.5935 -1.8142
 2204TIP3   OH228102   3.011   1.185  13.135  0.2261  0.2581  0.5434
 2204TIP3    H128103   2.932   1.134  13.112  0.4457  0.1623 -0.0103
 2204TIP3    H228104   3.062   1.125  13.189  1.6380 -1.0876 -2.0574
 2205TIP3   OH228105   4.655   0.219   0.920  0.2383 -0.4708  0.1294
 2205TIP3    H128106   4.748   0.232   0.936  0.0697  0.9369  0.0302
 2205TIP3    H228107   4.652   0.179   0.833  0.7300 -0.2305 -0.0014
 2206TIP3   OH228108   4.046   4.214  13.325 -0.4320  0.6537  0.4218
 2206TIP3    H128109   3.978   4.225  13.259 -0.7681  2.1735  0.9663
 2206TIP3    H228110   4.109   4.283  13.305  0.1821  0.2200  0.8343
 2207TIP3   OH228111   5.239   3.551  14.370 -0.0829  0.5537  0.0801
 2207TIP3    H128112   5.235   3.510  14.283  0.2473 -0.3214  0.4692
 2207TIP3    H228113   5.323   3.522  14.406 -0.4496  0.4955  0.8967
 2208TIP3   OH228114   6.806   6.749   3.076 -0.4986 -0.1018 -0.2383
 2208TIP3    H128115   6.764   6.731   3.160  0.8094 -0.7907  0.3001
 2208TIP3    H228116   6.819   6.844   3.075 -0.2279 -0.1236  0.4954
 2209TIP3   OH228117   6.281   1.479  14.578  0.0904  0.4745 -0.2110
 2209TIP3    H128118   6.190   1.477  14.547  0.4703 -1.2174 -1.3519
 2209TIP3    H228119   6.332   1.496  14.499  1.0462 -3.1678 -0.5290
 2210TIP3   OH228120   4.054   0.822   3.083 -0.5497  0.3942  0.2632
 2210TIP3    H128121   4.078   0.914   3.071  1.8160  0.0772  1.9737
 2210TIP3    H228122   4.137   0.775   3.082 -1.6365 -1.6306  0.3464
 2211TIP3   OH228123   4.006   1.685   1.435  0.2506 -0.0786  0.6304
 2211TIP3    H128124   4.089   1.680   1.481  0.5131  1.5663  0.3623
 2211TIP3    H228125   3.955   1.750   1.483 -0.0639  0.5022 -0.4680
 2212TIP3   OH228126   4.341   4.907  12.442 -0.4705 -0.0851  0.7028
 2212TIP3    H128127   4.331   4.882  12.534  0.4693 -2.4177  0.2691
 2212TIP3    H228128   4.434   4.929  12.434 -0.2211 -1.2682  0.0761
 2213TIP3   OH228129   3.335   5.837   6.068 -0.1084 -0.5157 -0.6191
 2213TIP3    H128130   3.351   5.817   5.976 -0.9739  0.8225 -1.0965
 2213TIP3    H228131   3.253   5.792   6.088 -1.0260  0.8393 -1.1381
 2214TIP3   OH228132   0.981   5.823  16.733 -0.0498 -0.0994 -0.0654
 2214TIP3    H128133   1.047   5.763  16.769  0.1174  0.7342  1.0806
 2214TIP3    H228134   1.010   5.838  16.643  2.6836  1.9706  1.0126
 2215TIP3   OH228135   0.303   4.898  12.430 -0.1293  0.2568 -0.3518
 2215TIP3    H128136   0.290   4.925  12.339 -3.4107  0.3092  0.0290
 2215TIP3    H228137   0.288   4.804  12.430  1.3772 -0.0047 -0.0652
 2216TIP3   OH228138   3.481   5.373  11.260  0.1503  0.0753 -0.5335
 2216TIP3    H128139   3.492   5.287  11.219  1.2087 -0.8588  1.5420
 2216TIP3    H228140   3.386   5.382  11.271  0.0920 -1.9845  1.3671
 2217TIP3   OH228141   0.240   2.170   3.582 -0.6139 -0.1244  0.4120
 2217TIP3    H128142   0.297   2.175   3.505 -0.6476  0.9016  0.4453
 2217TIP3    H228143   0.247   2.256   3.622 -1.9061 -0.1128  0.6313
 2218TIP3   OH228144   6.772   3.394   0.894  0.2601 -0.0220  0.2266
 2218TIP3    H128145   6.748   3.386   0.801 -0.5375  1.2109  0.3094
 2218TIP3    H228146   6.833   3.467   0.897  1.7539 -1.2350  0.4438
 2219TIP3   OH228147   3.233   4.415   5.557 -0.4000 -0.2164  1.2207
 2219TIP3    H128148   3.209   4.361   5.632 -2.8561  1.4731  1.7806
 2219TIP3    H228149   3.153   4.420   5.504  0.7975 -0.0235 -0.6808
 2220TIP3   OH228150   1.282   5.885  14.690 -0.0313  0.7963 -0.2363
 2220TIP3    H128151   1.363   5.912  14.735 -0.4139  2.7615 -0.6247
 2220TIP3    H228152   1.291   5.921  14.601 -0.2998 -1.0505 -1.0417
 2221TIP3   OH228153   0.918   3.201  16.914 -0.0505  0.3368 -0.1739
 2221TIP3    H128154   0.839   3.162  16.952  0.7484 -1.4066 -0.1975
 2221TIP3    H228155   0.974   3.222  16.989  0.1571 -0.0091 -0.2298
 2222TIP3   OH228156   2.943   5.881   2.351 -0.6735 -0.3634 -0.4555
 2222TIP3    H128157   2.986   5.902   2.269  0.5863  1.2268  0.5339
 2222TIP3    H228158   2.961   5.789   2.366  1.6051  0.0169 -0.5644
 2223TIP3   OH228159   6.693   0.854   5.218 -0.2227  0.0595 -0.5377
 2223TIP3    H128160   6.711   0.762   5.234  1.6368  0.6694  1.3530
 2223TIP3    H228161   6.691   0.894   5.305  1.3093  2.1502 -1.3632
 2224TIP3   OH228162   0.528   0.334  12.365  0.4006  0.5901  0.5881
 2224TIP3    H128163   0.463   0.333  12.295  0.5322 -0.0118  0.4676
 2224TIP3    H228164   0.596   0.395  12.333  0.5176  0.2280  0.1350
 2225TIP3   OH228165   3.725   2.776   3.142  0.0822  0.3283 -0.0818
 2225TIP3    H128166   3.707   2.804   3.232 -0.7850 -0.2380 -0.0674
 2225TIP3    H228167   3.738   2.682   3.149  0.9525  0.4101 -0.4276
 2226TIP3   OH228168   6.256   5.387  16.070 -0.0086  0.0172 -0.2557
 2226TIP3    H128169   6.197   5.459  16.091 -1.9537 -1.9740  1.6385
 2226TIP3    H228170   6.342   5.418  16.098 -0.3962  2.3003 -1.3514
 2227TIP3   OH228171   4.827   5.443  10.783  0.1089 -0.5018  0.5168
 2227TIP3    H128172   4.896   5.451  10.849 -0.5949  1.7413  1.0789
 2227TIP3    H228173   4.825   5.350  10.761  3.2958 -0.6474  0.4635
 2228TIP3   OH228174   5.526   3.263   5.108 -0.2248  0.1097  0.0289
 2228TIP3    H128175   5.508   3.296   5.196 -0.4831 -2.3102  0.9758
 2228TIP3    H228176   5.618   3.282   5.093  1.2675 -3.5885  2.9450
 2229TIP3   OH228177   0.356   2.594  12.586  0.1097 -0.2646 -0.3904
 2229TIP3    H128178   0.336   2.607  12.494 -1.9263 -1.2249 -0.1433
 2229TIP3    H228179   0.451   2.605  12.592  0.1686  0.7683 -2.4050
 2230TIP3   OH228180   2.349   2.572  11.694 -0.6739 -0.5668  0.1142
 2230TIP3    H128181   2.287   2.529  11.634 -1.4921  0.5241  0.1464
 2230TIP3    H228182   2.426   2.515  11.694 -1.3854 -1.5590 -0.5232
 2231TIP3   OH228183   5.443   0.307  15.039 -0.2917  0.5366 -0.2368
 2231TIP3    H128184   5.423   0.398  15.018 -0.2959  0.6742  0.3503
 2231TIP3    H228185   5.469   0.308  15.131  0.5288  0.0728 -0.4463
 2232TIP3   OH228186   2.102   6.447  16.618  0.2481 -0.1786 -0.0473
 2232TIP3    H128187   2.151   6.370  16.591  0.7260  0.5719 -1.4505
 2232TIP3    H228188   2.011   6.417  16.623  0.5379 -1.0249  0.2654
 2233TIP3   OH228189   4.506   3.622  15.177  0.2320  0.3794  0.5635
 2233TIP3    H128190   4.533   3.571  15.100  0.7573  0.6894  0.5395
 2233TIP3    H228191   4.552   3.705  15.168  0.1272  0.4995  1.1054
 2234TIP3   OH228192   4.951   2.920  16.030 -0.0227 -0.1068 -0.5768
 2234TIP3    H128193   4.964   2.834  16.070 -0.1658 -0.0218 -0.3457
 2234TIP3    H228194   5.035   2.965  16.041 -0.2385  0.1232  0.1350
 2235TIP3   OH228195   6.360   4.265   3.725 -0.4005 -0.1409 -0.4850
 2235TIP3    H128196   6.380   4.340   3.781 -1.4929  0.1470 -0.4595
 2235TIP3    H228197   6.344   4.193   3.785 -0.4136 -0.1250 -0.4694
 2236TIP3   OH228198   4.996   5.815   0.008 -0.0465 -0.2335 -0.3098
 2236TIP3    H128199   4.924   5.875   0.030 -0.2366  0.0687 -1.6293
 2236TIP3    H228200   5.061   5.871  -0.034  0.9591 -0.5199  0.8066
 2237TIP3   OH228201   1.408   0.244  14.456  0.7996 -0.2424 -0.3091
 2237TIP3    H128202   1.377   0.156  14.474  1.5712 -0.7298 -1.3044
 2237TIP3    H228203   1.476   0.233  14.390  0.7289  1.1226 -0.6404
 2238TIP3   OH228204   2.119   3.075  12.332 -0.2313  0.1295 -0.2481
 2238TIP3    H128205   2.099   3.140  12.266  0.9658  0.2586 -0.4885
 2238TIP3    H228206   2.091   2.992  12.293  0.5048  0.1980 -0.9424
 2239TIP3   OH228207   2.876   0.440  14.852 -0.5441 -0.2518  0.2949
 2239TIP3    H128208   2.822   0.500  14.902  0.4237  0.9333 -0.0447
 2239TIP3    H228209   2.901   0.372  14.915 -1.6217 -0.2964  0.6893
 2240TIP3   OH228210   1.885   0.918   2.179  0.7408 -0.0253  0.0480
 2240TIP3    H128211   1.846   0.838   2.216 -2.0759 -0.1568 -2.7999
 2240TIP3    H228212   1.814   0.982   2.179  1.8891  1.3086 -1.1270
 2241TIP3   OH228213   3.560   3.725   0.513 -0.0529  0.0424 -0.2828
 2241TIP3    H128214   3.593   3.637   0.496  1.0245  0.4589 -0.4876
 2241TIP3    H228215   3.479   3.713   0.562  1.3154 -1.0253  1.8549
 2242TIP3   OH228216   1.599   2.844  15.163  0.0577 -0.0946 -0.0697
 2242TIP3    H128217   1.516   2.881  15.192 -0.2447 -0.2442 -0.7191
 2242TIP3    H228218   1.648   2.918  15.129  0.5977  0.1576  1.2077
 2243TIP3   OH228219   3.776   0.101  11.782  0.1415 -0.2914 -0.2391
 2243TIP3    H128220   3.715   0.172  11.761 -0.3312 -0.9633 -1.2371
 2243TIP3    H228221   3.855   0.146  11.812 -0.7335  0.6014  0.8033
 2244TIP3   OH228222   1.366   4.102   3.533 -0.2836 -0.1644 -0.4478
 2244TIP3    H128223   1.327   4.157   3.465  0.3791  0.2257 -0.5313
 2244TIP3    H228224   1.354   4.013   3.502 -0.0316  0.0060 -1.0637
 2245TIP3   OH228225   3.649   0.245   6.593 -0.4795 -0.2167 -0.2845
 2245TIP3    H128226   3.569   0.199   6.619 -0.9997  0.5607 -0.4760
 2245TIP3    H228227   3.619   0.309   6.528  0.2083  0.4558  0.0478
 2246TIP3   OH228228   0.643   5.857   5.138 -0.6750  0.3363  0.1547
 2246TIP3    H128229   0.627   5.779   5.085 -0.6909  1.1354 -1.0606
 2246TIP3    H228230   0.570   5.859   5.200 -1.2938 -0.0205 -0.5427
 2247TIP3   OH228231   4.485   1.667  13.384  0.2735 -0.9828 -0.0733
 2247TIP3    H128232   4.427   1.715  13.325  1.1047 -1.3190 -1.2064
 2247TIP3    H228233   4.491   1.722  13.462  4.0163  2.8400 -2.5578
 2248TIP3   OH228234   3.410   0.811   0.065 -0.1645  0.1698 -0.0143
 2248TIP3    H128235   3.381   0.770   0.146  2.0178 -2.0438 -0.2393
 2248TIP3    H228236   3.474   0.877   0.093 -2.1549  2.1359  0.2053
 2249TIP3   OH228237   5.130   0.571  15.529 -0.1381  0.4543 -0.0784
 2249TIP3    H128238   5.115   0.580  15.623  2.1731 -0.4521  0.4498
 2249TIP3    H228239   5.211   0.521  15.522  1.1918  2.6843 -2.5354
 2250TIP3   OH228240   5.229   4.417  15.350 -0.0374 -0.6345 -0.1207
 2250TIP3    H128241   5.197   4.334  15.314  0.8678 -0.6001 -1.0773
 2250TIP3    H228242   5.200   4.417  15.441 -0.9606 -1.5106 -0.3961
 2251TIP3   OH228243   1.547   5.662   1.242 -0.2564  0.6045  0.4928
 2251TIP3    H128244   1.530   5.655   1.149  0.6927 -0.0748  0.3581
 2251TIP3    H228245   1.513   5.749   1.266 -2.8726 -0.2202  0.0878
 2252TIP3   OH228246   0.932   0.432   4.043 -0.4696  0.0063  0.5043
 2252TIP3    H128247   0.953   0.484   3.965 -0.3914  2.4844  2.0762
 2252TIP3    H228248   0.981   0.351   4.031 -0.4491  0.3057 -1.9896
 2253TIP3   OH228249   3.266   4.332  12.558 -0.3936 -0.6244  0.0495
 2253TIP3    H128250   3.348   4.336  12.608 -0.2350 -0.4188 -0.2304
 2253TIP3    H228251   3.212   4.270  12.607 -0.2345 -0.4305  0.4780
 2254TIP3   OH228252   2.619   4.858   0.223 -0.4647  0.5776 -0.2850
 2254TIP3    H128253   2.610   4.807   0.303  0.8551 -0.3307 -0.6725
 2254TIP3    H228254   2.532   4.892   0.205 -0.6534  1.4711  1.9520
 2255TIP3   OH228255   0.442   0.174  14.213  0.4527 -0.0794  0.3955
 2255TIP3    H128256   0.396   0.156  14.295  0.4328 -0.8109  0.2324
 2255TIP3    H228257   0.506   0.241  14.236 -0.4101  0.6605  0.7165
 2256TIP3   OH228258   5.593   4.051   5.277 -0.1192  0.8833  0.8039
 2256TIP3    H128259   5.545   4.003   5.345 -1.0283  1.0858  0.3135
 2256TIP3    H228260   5.669   3.996   5.259  0.1357  0.8232  1.9862
 2257TIP3   OH228261   1.026   0.339   0.375  0.1785  0.3115 -0.0505
 2257TIP3    H128262   1.087   0.343   0.301 -0.3072  1.2089 -0.4144
 2257TIP3    H228263   1.001   0.247   0.381  0.1551  0.2464 -1.0622
 2258TIP3   OH228264   4.558   6.220  12.651  0.1401  0.4997  0.3293
 2258TIP3    H128265   4.474   6.204  12.695 -0.3949  1.8723 -0.1296
 2258TIP3    H228266   4.593   6.298  12.695  1.0640  0.0941  0.3386
 2259TIP3   OH228267   0.075   2.373  17.254  0.9431  0.2832  0.1568
 2259TIP3    H128268   0.060   2.313  17.180 -1.8362 -0.7010  1.3605
 2259TIP3    H228269   0.037   2.456  17.224 -0.7279 -0.2733  0.6000
 2260TIP3   OH228270   6.070   1.048   0.732  0.1333 -0.1088  0.5004
 2260TIP3    H128271   6.007   1.010   0.793  0.6636 -1.4967  0.2075
 2260TIP3    H228272   6.021   1.117   0.687 -1.2074 -1.2253  0.1955
 2261TIP3   OH228273   1.110   1.142   2.399  0.2360 -0.0894 -0.1930
 2261TIP3    H128274   1.055   1.076   2.358 -0.4354  0.5471 -0.3307
 2261TIP3    H228275   1.050   1.193   2.454  0.7243  0.4663 -0.1640
 2262TIP3   OH228276   2.014   3.947  15.817 -0.2118 -0.2809  0.3506
 2262TIP3    H128277   2.069   3.938  15.895 -0.5997 -0.5130  0.6029
 2262TIP3    H228278   1.933   3.900  15.839  0.3931 -2.0201 -0.8761
 2263TIP3   OH228279   3.611   5.873   0.513  0.2912  1.0974  0.1238
 2263TIP3    H128280   3.656   5.791   0.496  0.9030  1.1121  1.5244
 2263TIP3    H228281   3.561   5.857   0.593  0.3525  2.0595  0.3682
 2264TIP3   OH228282   1.003   1.917  16.415  0.7867 -0.4252 -0.0092
 2264TIP3    H128283   0.986   1.983  16.482 -0.3407 -1.1952  0.5078
 2264TIP3    H228284   1.017   1.967  16.335  2.7480  0.5472  0.8690
 2265TIP3   OH228285   1.854   3.429   0.186  0.3274  0.0416  0.2125
 2265TIP3    H128286   1.877   3.409   0.276 -0.5982  0.2414  0.5042
 2265TIP3    H228287   1.815   3.349   0.152 -1.8659  0.7432  0.8745
 2266TIP3   OH228288   0.838   5.161   0.459  1.1985  0.2048  0.1656
 2266TIP3    H128289   0.750   5.186   0.433  1.4622  0.8625 -0.1215
 2266TIP3    H228290   0.858   5.084   0.405  0.1869 -0.9673  1.4243
 2267TIP3   OH228291   5.937   2.159   3.755  0.4521  0.0518  0.3950
 2267TIP3    H128292   5.851   2.171   3.795 -0.7765  0.6745 -2.2145
 2267TIP3    H228293   5.943   2.065   3.738  0.8552 -0.1706  1.6951
 2268TIP3   OH228294   4.559   6.792  16.273  0.3447 -0.3004  0.1244
 2268TIP3    H128295   4.573   6.779  16.367 -0.6350  1.3712  0.5554
 2268TIP3    H228296   4.628   6.852  16.247 -0.5445  0.8187  0.2543
 2269TIP3   OH228297   5.658   0.789  15.270  0.2088 -0.0488 -0.2109
 2269TIP3    H128298   5.648   0.816  15.178  1.1743 -0.2953 -0.3948
 2269TIP3    H228299   5.568   0.789  15.304 -0.4002 -1.7895 -1.6783
 2270TIP3   OH228300   4.370   6.256   2.220  0.1420  0.2433  0.1732
 2270TIP3    H128301   4.399   6.167   2.237  0.1730  0.4133  1.0462
 2270TIP3    H228302   4.444   6.311   2.248  0.3858  0.5216 -0.9593
 2271TIP3   OH228303   6.349   4.540  13.783  0.3470 -0.4705 -0.4748
 2271TIP3    H128304   6.421   4.478  13.781  0.8079 -0.1347  1.8921
 2271TIP3    H228305   6.391   4.626  13.785 -0.0242 -0.2808  1.3390
 2272TIP3   OH228306   2.898   1.794   5.875  0.1416  0.3281 -0.1245
 2272TIP3    H128307   2.983   1.785   5.919  0.1489 -0.9954 -0.3682
 2272TIP3    H228308   2.837   1.818   5.945  0.3234 -0.8653  0.4672
 2273TIP3   OH228309   5.873   0.710   1.739 -0.2617 -0.0149 -0.1458
 2273TIP3    H128310   5.841   0.797   1.762  2.4846  1.3979 -1.1922
 2273TIP3    H228311   5.812   0.649   1.781 -2.0182  2.3864  0.9783
 2274TIP3   OH228312   4.801   2.549   4.121  0.2704 -1.1241  0.0673
 2274TIP3    H128313   4.747   2.589   4.189  1.3474  0.0012  0.2974
 2274TIP3    H228314   4.817   2.620   4.058  0.1431 -1.8739 -0.8453
 2275TIP3   OH228315   5.555   0.728  12.833 -0.0752  0.3937 -0.0898
 2275TIP3    H128316   5.596   0.811  12.858  0.9333 -0.4256  1.0283
 2275TIP3    H228317   5.544   0.735  12.738  0.1692  1.7254 -0.0397
 2276TIP3   OH228318   1.138   2.172   2.098 -0.3913 -0.4449  0.9589
 2276TIP3    H128319   1.144   2.257   2.054  1.6156 -1.0560 -0.0768
 2276TIP3    H228320   1.210   2.121   2.061  0.0448 -1.7567  3.3816
 2277TIP3   OH228321   0.056   4.527  14.296 -0.2929 -0.1704 -0.2017
 2277TIP3    H128322   0.071   4.449  14.350  0.6594 -0.2676 -0.5947
 2277TIP3    H228323   0.143   4.553  14.266 -0.5617  1.1745  0.0841
 2278TIP3   OH228324   2.849   2.656   0.166  0.3443 -0.6987  0.1750
 2278TIP3    H128325   2.865   2.749   0.178  1.3513 -0.8082 -0.2572
 2278TIP3    H228326   2.806   2.628   0.247 -0.7930  0.3100 -0.0486
 2279TIP3   OH228327   2.255   0.987  11.237 -0.4482 -0.0129 -0.5069
 2279TIP3    H128328   2.202   0.991  11.158 -1.9130  1.0171  0.4688
 2279TIP3    H228329   2.217   1.053  11.295  1.5448  0.3300  0.4892
 2280TIP3   OH228330   2.633   2.154  13.882  0.0346 -0.2941 -0.1767
 2280TIP3    H128331   2.622   2.099  13.959 -0.1846  0.5996  0.4492
 2280TIP3    H228332   2.544   2.168  13.849 -0.1047  1.0621  0.6798
 2281TIP3   OH228333   4.211   4.246   3.745 -0.4501  0.5175 -0.0318
 2281TIP3    H128334   4.207   4.153   3.769 -0.4817  0.3298 -0.7359
 2281TIP3    H228335   4.250   4.289   3.820  0.7386 -0.2465 -0.1939
 2282TIP3   OH228336   5.432   0.550  10.845  0.1718  0.0078  0.3909
 2282TIP3    H128337   5.440   0.496  10.923  1.3993 -1.4754 -0.7173
 2282TIP3    H228338   5.493   0.512  10.782 -1.1286  0.8453 -1.4858
 2283TIP3   OH228339   0.704   0.146   3.702 -0.3403 -0.2474 -0.2231
 2283TIP3    H128340   0.634   0.210   3.691 -0.5903 -0.4093  0.4195
 2283TIP3    H228341   0.710   0.132   3.796 -0.8410 -1.7619 -0.3875
 2284TIP3   OH228342   4.157   1.795   2.713  0.0179 -0.1411 -0.0281
 2284TIP3    H128343   4.065   1.819   2.724 -0.8441 -2.8843 -0.4526
 2284TIP3    H228344   4.167   1.716   2.766  1.7693 -0.6631 -1.0671
 2285TIP3   OH228345   0.714   6.704  11.129 -0.2597  0.1443  0.4006
 2285TIP3    H128346   0.801   6.720  11.166  1.3715 -0.6572 -2.7118
 2285TIP3    H228347   0.702   6.609  11.137 -0.2750  0.0847 -0.2936
 2286TIP3   OH228348   0.066   1.447  14.731 -0.8458 -0.7119 -0.5871
 2286TIP3    H128349   0.133   1.471  14.666 -0.1357 -1.3462 -0.1126
 2286TIP3    H228350   0.052   1.353  14.717 -0.4448 -0.9258  0.3779
 2287TIP3   OH228351   6.559   5.065   4.474 -0.0547 -0.1540 -0.3456
 2287TIP3    H128352   6.568   4.997   4.541 -0.7340  0.9069  0.8573
 2287TIP3    H228353   6.465   5.079   4.467 -0.0591 -0.7759 -2.1160
 2288TIP3   OH228354   6.254   4.276   3.090  0.4481 -0.4696 -0.7493
 2288TIP3    H128355   6.218   4.323   3.016 -1.7237 -0.3995  0.2577
 2288TIP3    H228356   6.183   4.218   3.118  0.0378  1.4891  2.9509
 2289TIP3   OH228357   3.751   0.128   1.084  0.6219 -0.0244 -0.4091
 2289TIP3    H128358   3.752   0.034   1.104  1.1886 -0.9372 -3.9253
 2289TIP3    H228359   3.827   0.163   1.129  0.4586 -1.2627  0.8961
 2290TIP3   OH228360   4.330   5.109  16.025  0.3205 -0.1643 -0.1125
 2290TIP3    H128361   4.390   5.180  16.000 -0.4892  0.3856 -0.5021
 2290TIP3    H228362   4.346   5.097  16.118 -1.3297  2.3153  0.5914
 2291TIP3   OH228363   5.619   1.466   3.019 -0.3203 -0.3264  0.2440
 2291TIP3    H128364   5.698   1.515   2.995  0.2872 -0.3601  2.0227
 2291TIP3    H228365   5.632   1.379   2.982  0.6055 -0.4025  0.7091
 2292TIP3   OH228366   2.314   2.161  15.970 -0.0908 -0.1333  0.1058
 2292TIP3    H128367   2.221   2.167  15.991  0.2639 -0.2720  1.8410
 2292TIP3    H228368   2.352   2.238  16.012  0.7493 -0.7507  0.4953
 2293TIP3   OH228369   4.620   4.917  14.109 -0.4114 -0.2203 -0.1044
 2293TIP3    H128370   4.662   4.940  14.192 -0.4791  1.0196 -0.3899
 2293TIP3    H228371   4.622   4.821  14.107 -0.2321 -0.2716  1.2302
 2294TIP3   OH228372   6.642   1.728  11.823  0.1463  0.0592  0.1770
 2294TIP3    H128373   6.581   1.802  11.812  0.0814 -0.1025 -0.6288
 2294TIP3    H228374   6.599   1.655  11.778  1.0829  0.0329 -0.7256
 2295TIP3   OH228375   1.328   3.284   1.068 -0.0925 -0.8882  0.2508
 2295TIP3    H128376   1.331   3.344   0.993 -1.6429 -0.4836  0.4771
 2295TIP3    H228377   1.414   3.292   1.108 -0.0067  0.6367 -0.1536
 2296TIP3   OH228378   3.132   0.432   2.944 -0.1079 -0.5023 -0.0442
 2296TIP3    H128379   3.097   0.460   2.860  0.0831 -0.4835 -0.1187
 2296TIP3    H228380   3.075   0.473   3.009 -0.4399 -0.7663 -0.1686
 2297TIP3   OH228381   5.227   6.539   3.356  0.1653 -0.2372  0.0972
 2297TIP3    H128382   5.186   6.453   3.362 -0.7367  0.1360 -0.6221
 2297TIP3    H228383   5.321   6.521   3.363  0.0424 -1.3671 -0.8941
 2298TIP3   OH228384   2.167   0.556  14.528  0.0046  0.3105  0.5133
 2298TIP3    H128385   2.108   0.630  14.517  1.8992  1.7690 -0.5798
 2298TIP3    H228386   2.204   0.567  14.616 -1.3671 -0.6696  1.2432
 2299TIP3   OH228387   0.309   3.606  12.436  0.4314 -0.5192 -0.0938
 2299TIP3    H128388   0.295   3.519  12.475  2.6019 -0.7600  0.2986
 2299TIP3    H228389   0.351   3.588  12.352 -0.0162  0.1265 -0.4588
 2300TIP3   OH228390   2.568   4.253   3.796  0.1592 -0.2582 -0.2227
 2300TIP3    H128391   2.622   4.330   3.813  1.3264 -0.9667 -0.6637
 2300TIP3    H228392   2.519   4.274   3.717 -1.0343  0.7960  0.7471
 2301TIP3   OH228393   5.586   0.706   2.138  0.2442 -0.1372 -0.4628
 2301TIP3    H128394   5.629   0.635   2.090 -2.0624 -0.4765 -2.1789
 2301TIP3    H228395   5.537   0.754   2.071  0.5035  2.1876  0.8999
 2302TIP3   OH228396   1.981   1.598   1.260 -0.7606  0.0057 -0.1001
 2302TIP3    H128397   1.959   1.680   1.217  1.4222  1.1547  0.8419
 2302TIP3    H228398   1.983   1.619   1.353  0.9674 -0.7810  0.0804
 2303TIP3   OH228399   0.749   4.686   2.315 -0.3228  0.2995 -0.3570
 2303TIP3    H128400   0.773   4.772   2.282  0.1386  0.0464 -0.7010
 2303TIP3    H228401   0.727   4.635   2.237  1.0262 -0.3756 -0.3324
 2304TIP3   OH228402   4.297   4.525  15.876  0.4759 -0.1421 -0.3048
 2304TIP3    H128403   4.232   4.587  15.841  1.4950  1.6902  0.8755
 2304TIP3    H228404   4.271   4.513  15.967  1.2728 -0.0975 -0.0644
 2305TIP3   OH228405   4.404   2.934  16.989 -0.0996  0.1186  0.0841
 2305TIP3    H128406   4.317   2.906  17.017 -0.4783  0.8937 -0.2870
 2305TIP3    H228407   4.394   3.027  16.969  1.1262  0.5686  1.3533
 2306TIP3   OH228408   6.140   4.176  14.857  0.0742  0.0690 -0.4036
 2306TIP3    H128409   6.139   4.263  14.817  0.5410 -0.5141 -1.7362
 2306TIP3    H228410   6.203   4.182  14.928 -1.3822  1.3640  0.8567
 2307TIP3   OH228411   5.023   4.736  13.830  0.8890 -0.3109  0.3757
 2307TIP3    H128412   4.944   4.782  13.859 -0.2296  0.0362 -2.7395
 2307TIP3    H228413   5.027   4.657  13.885 -2.0033 -0.6317  0.2959
 2308TIP3   OH228414   5.360   0.948   0.430 -0.9045  1.0219  0.0845
 2308TIP3    H128415   5.378   1.037   0.400 -0.8988  0.8911 -0.3048
 2308TIP3    H228416   5.266   0.946   0.445 -0.6282  1.8277  2.5107
 2309TIP3   OH228417   4.443   1.498  11.200  0.1199 -0.6528 -0.1287
 2309TIP3    H128418   4.477   1.585  11.222 -1.1386 -0.4843  1.3097
 2309TIP3    H228419   4.518   1.452  11.163  1.2803  0.4546  0.7407
 2310TIP3   OH228420   2.388   0.907  15.299  0.6580  0.1274 -0.7907
 2310TIP3    H128421   2.446   0.939  15.368  0.2025 -2.3206  0.8419
 2310TIP3    H228422   2.307   0.957  15.310  1.4997  1.6730 -1.3669
 2311TIP3   OH228423   0.974   2.313   6.372 -0.0678  0.2434 -0.1486
 2311TIP3    H128424   0.928   2.395   6.356  0.2558  0.2413 -1.1235
 2311TIP3    H228425   1.010   2.323   6.460 -0.1475  1.0820 -0.2025
 2312TIP3   OH228426   5.647   0.679   5.086  0.5139 -0.0321 -0.0092
 2312TIP3    H128427   5.677   0.762   5.124 -0.2970  0.3665 -0.2228
 2312TIP3    H228428   5.725   0.624   5.085  0.3458 -0.6024  3.6388
 2313TIP3   OH228429   4.445   2.609  14.828 -0.3832 -0.1154 -0.3989
 2313TIP3    H128430   4.483   2.546  14.890  1.1931  0.5335 -0.6424
 2313TIP3    H228431   4.356   2.578  14.814 -0.1308 -1.4306  0.6370
 2314TIP3   OH228432   0.010   0.350   4.437  0.3320 -0.3135  0.0391
 2314TIP3    H128433  -0.038   0.329   4.357  1.2462  0.1663 -0.6722
 2314TIP3    H228434   0.025   0.445   4.431 -0.8229 -0.0097  1.5029
 2315TIP3   OH228435   3.548   5.443  14.801 -0.3960 -0.0110 -0.0630
 2315TIP3    H128436   3.491   5.426  14.726 -0.0821  0.9692 -0.5386
 2315TIP3    H228437   3.529   5.372  14.862 -0.0421 -1.3328 -1.4178
 2316TIP3   OH228438   0.365   1.894  15.964 -0.2749 -0.0524 -0.0393
 2316TIP3    H128439   0.319   1.834  16.021  0.0847 -0.3244 -0.0278
 2316TIP3    H228440   0.428   1.839  15.917  1.7270  0.6379  1.6803
 2317TIP3   OH228441   4.563   2.452   4.842 -0.0128  0.0665  0.0749
 2317TIP3    H128442   4.506   2.382   4.873 -0.0032 -0.6604 -1.4631
 2317TIP3    H228443   4.616   2.412   4.773  1.7141  0.9671  0.8072
 2318TIP3   OH228444   3.310   1.959  16.817  0.0254  0.3768  0.3039
 2318TIP3    H128445   3.389   2.011  16.803 -0.5572  1.3787  0.5989
 2318TIP3    H228446   3.241   2.006  16.770 -0.2784 -0.8600 -0.5402
 2319TIP3   OH228447   6.807   0.845  17.198  0.1231 -0.2386  0.0526
 2319TIP3    H128448   6.896   0.851  17.162  0.3836 -0.7300  0.6032
 2319TIP3    H228449   6.789   0.751  17.204 -0.0656 -0.1608  0.8271
 2320TIP3   OH228450   2.676   4.358   1.773  0.2642 -0.1432  0.2515
 2320TIP3    H128451   2.670   4.451   1.750 -0.4105 -0.3462 -0.4471
 2320TIP3    H228452   2.756   4.351   1.825  2.5399  0.1812 -2.9518
 2321TIP3   OH228453   0.138   5.635  13.895 -0.1395  0.8918 -0.1241
 2321TIP3    H128454   0.091   5.685  13.961 -2.6325  0.3441 -1.3517
 2321TIP3    H228455   0.209   5.692  13.867 -0.0848  1.8108  1.7683
 2322TIP3   OH228456   2.310   4.839  17.024 -0.1720 -0.6210 -0.2225
 2322TIP3    H128457   2.364   4.807  16.952  0.5016  2.3572 -1.1731
 2322TIP3    H228458   2.249   4.900  16.984 -0.1538  0.7168  1.6469
 2323TIP3   OH228459   2.219   2.658  13.793  0.3108 -0.2240  0.6016
 2323TIP3    H128460   2.265   2.633  13.873  1.3128  0.6032  0.3096
 2323TIP3    H228461   2.195   2.575  13.752 -0.6634 -0.6697  1.9917
 2324TIP3   OH228462   5.600   5.614   0.847 -1.2357  0.1431  0.1734
 2324TIP3    H128463   5.517   5.605   0.800 -0.7675 -0.9858 -0.4795
 2324TIP3    H228464   5.575   5.629   0.938 -2.1545  1.5743 -0.2826
 2325TIP3   OH228465   4.004   1.351   1.114 -0.2385 -0.3063 -0.6383
 2325TIP3    H128466   3.956   1.413   1.168  0.6704 -0.2916  0.1921
 2325TIP3    H228467   4.066   1.404   1.065  1.2350 -0.6008  0.8182
 2326TIP3   OH228468   3.580   4.565  11.662 -0.2726 -0.3574  0.3743
 2326TIP3    H128469   3.624   4.512  11.728 -0.9925 -1.9618 -0.3751
 2326TIP3    H228470   3.521   4.504  11.618 -0.8565  0.9974 -0.7956
 2327TIP3   OH228471   6.806   4.544   5.007  0.2455  0.1138  0.0857
 2327TIP3    H128472   6.811   4.524   5.101 -1.1149  0.8619  0.3585
 2327TIP3    H228473   6.893   4.575   4.984  0.3033  1.0246  1.4032
 2328TIP3   OH228474   6.180   4.410  12.792 -0.1533 -0.3100  0.1654
 2328TIP3    H128475   6.202   4.329  12.745 -0.9613 -0.0835 -0.6362
 2328TIP3    H228476   6.087   4.424  12.772  0.2214  1.3504 -0.5390
 2329TIP3   OH228477   0.934   3.005  15.336  0.0430 -0.7991 -0.3807
 2329TIP3    H128478   1.023   3.032  15.314 -0.3376  0.9213  0.0562
 2329TIP3    H228479   0.885   3.087  15.345 -0.7271 -1.4934  3.0702
 2330TIP3   OH228480   0.906   3.216   3.721  0.1627 -0.6508  0.1060
 2330TIP3    H128481   0.993   3.187   3.747 -1.1121 -5.2850  0.1472
 2330TIP3    H228482   0.905   3.208   3.626  0.5096  2.2841 -0.2410
 2331TIP3   OH228483   1.338   1.961   2.963 -0.8401  0.4631 -0.3896
 2331TIP3    H128484   1.273   1.907   3.007  0.0414 -0.1556  0.1877
 2331TIP3    H228485   1.332   1.936   2.871 -0.6558 -0.4011 -0.1691
 2332TIP3   OH228486   6.396   0.511   4.916 -0.1413  0.0083 -0.2845
 2332TIP3    H128487   6.351   0.504   4.832 -1.0069 -3.0899  0.2998
 2332TIP3    H228488   6.441   0.595   4.912 -2.6202  1.3765 -2.5776
 2333TIP3   OH228489   0.480   0.004  13.056 -0.0248 -0.6738  0.1364
 2333TIP3    H128490   0.549   0.044  13.003 -0.6949 -1.1985 -1.1676
 2333TIP3    H228491   0.409   0.068  13.056  0.0724 -0.5610  0.6405
 2334TIP3   OH228492   4.831   1.045   3.104 -0.0717  0.4218  0.0102
 2334TIP3    H128493   4.776   1.060   3.180  0.0046 -0.8166  0.3438
 2334TIP3    H228494   4.781   1.081   3.031 -0.3817  1.1530  0.5711
 2335TIP3   OH228495   0.233   1.995   0.552  0.0748  0.2687 -0.3762
 2335TIP3    H128496   0.319   2.036   0.542 -1.0552  2.6123 -1.0040
 2335TIP3    H228497   0.185   2.021   0.474 -0.7563 -2.3662 -0.8667
 2336TIP3   OH228498   3.032   1.964   0.713 -0.9102 -0.1287  0.3379
 2336TIP3    H128499   2.977   1.980   0.636 -2.2520 -2.9586  0.5834
 2336TIP3    H228500   2.975   1.980   0.788 -0.7592 -0.9173  0.6375
 2337TIP3   OH228501   2.850   1.551  10.279  0.3232  0.1398  0.1009
 2337TIP3    H128502   2.787   1.483  10.257  0.9086 -0.3141 -0.1959
 2337TIP3    H228503   2.924   1.504  10.318  1.7875  0.2929 -2.2707
 2338TIP3   OH228504   2.926   4.193  15.089  0.1838  0.2392 -0.0896
 2338TIP3    H128505   2.928   4.281  15.053  0.9068  0.5102  0.5769
 2338TIP3    H228506   3.010   4.154  15.064  0.4981  0.2678  0.8528
 2339TIP3   OH228507   3.665   1.317   0.053 -0.6590  0.0560  0.0419
 2339TIP3    H128508   3.753   1.339   0.022  0.4948 -2.2290  1.4185
 2339TIP3    H228509   3.610   1.388   0.022  0.9849 -0.1906 -4.0317
 2340TIP3   OH228510   5.373   6.040   4.869 -0.2787  0.1898  0.0889
 2340TIP3    H128511   5.443   6.073   4.812  0.4434  0.6417  1.2096
 2340TIP3    H228512   5.297   6.095   4.848  0.1093  0.6619 -0.1010
 2341TIP3   OH228513   1.967   4.716  12.443 -0.1187 -0.3486 -0.4783
 2341TIP3    H128514   2.044   4.769  12.421 -0.0682 -0.3483 -0.3023
 2341TIP3    H228515   1.928   4.695  12.358 -0.7233  0.8319 -0.5064
 2342TIP3   OH228516   0.027   1.300  12.908 -0.5820 -0.2659 -0.3992
 2342TIP3    H128517   0.095   1.366  12.891  1.3307 -1.9226  0.2918
 2342TIP3    H228518   0.004   1.312  13.000 -1.3416  0.3788 -0.6674
 2343TIP3   OH228519   1.213   1.992  11.482  0.4962  0.5243 -0.3001
 2343TIP3    H128520   1.207   1.923  11.548  0.3830 -0.5726 -1.4318
 2343TIP3    H228521   1.179   1.952  11.402  2.4238  1.2047 -1.5144
 2344TIP3   OH228522   6.372   0.615   1.925  0.3771 -0.4081  0.7996
 2344TIP3    H128523   6.282   0.633   1.899  0.4798  1.6710  1.7028
 2344TIP3    H228524   6.370   0.612   2.021  1.3647  0.4342  0.8674
 2345TIP3   OH228525   5.224   0.395  16.158  0.0396  0.1466  0.2863
 2345TIP3    H128526   5.303   0.428  16.201  1.0461 -1.2576 -0.4073
 2345TIP3    H228527   5.242   0.302  16.143 -1.3667  0.0109 -0.7542
 2346TIP3   OH228528   6.776   4.115   0.629  0.0788  0.1704 -0.0941
 2346TIP3    H128529   6.698   4.064   0.654 -0.4600  0.8239 -0.4180
 2346TIP3    H228530   6.844   4.049   0.616  0.0238 -0.2995  1.7431
 2347TIP3   OH228531   5.744   5.793  12.474 -0.0866 -0.6123 -0.4518
 2347TIP3    H128532   5.661   5.749  12.452 -0.0933  0.6699 -3.4363
 2347TIP3    H228533   5.805   5.721  12.489 -1.5863 -1.5874  1.5568
 2348TIP3   OH228534   1.547   4.528  15.112  0.1201  0.5033  0.0977
 2348TIP3    H128535   1.635   4.565  15.115  0.8793 -1.1642 -0.9094
 2348TIP3    H228536   1.499   4.587  15.053 -0.1803  2.7629  2.3878
 2349TIP3   OH228537   6.467   1.537  15.182 -1.0038  0.3003 -0.1739
 2349TIP3    H128538   6.488   1.485  15.260 -2.2971 -0.3644 -0.2510
 2349TIP3    H228539   6.460   1.626  15.215  2.0300  0.6544 -0.1679
 2350TIP3   OH228540   4.166   5.834  13.739 -0.3516  0.0780  0.3760
 2350TIP3    H128541   4.223   5.887  13.683  0.4019 -0.4293  0.6398
 2350TIP3    H228542   4.111   5.785  13.679  0.2002 -0.1893  0.0771
 2351TIP3   OH228543   1.425   1.322   0.323 -0.3878  0.4776  0.0465
 2351TIP3    H128544   1.444   1.247   0.380  0.8300  1.2762  0.7327
 2351TIP3    H228545   1.360   1.373   0.371  0.3876  0.9728  0.5980
 2352TIP3   OH228546   6.359   6.459   1.704 -0.7569 -0.5594  0.0213
 2352TIP3    H128547   6.306   6.466   1.783 -1.3926  1.1566 -0.5242
 2352TIP3    H228548   6.297   6.434   1.636 -0.3712 -1.1378 -0.1274
 2353TIP3   OH228549   5.109   3.960   2.257 -0.3010  0.6314  0.2371
 2353TIP3    H128550   5.097   4.051   2.232 -1.8640  0.6420  0.8977
 2353TIP3    H228551   5.073   3.910   2.183  0.7928  0.5254 -0.2416
 2354TIP3   OH228552   1.753   2.529  15.768 -0.0541 -0.1798  0.6098
 2354TIP3    H128553   1.737   2.521  15.862  1.1531 -0.3787  0.8199
 2354TIP3    H228554   1.671   2.504  15.727 -0.7886  0.5038  1.6289
 2355TIP3   OH228555   1.772   6.037  16.851 -0.0322 -0.2750  0.3453
 2355TIP3    H128556   1.781   6.125  16.886 -0.5839  0.9433 -2.3000
 2355TIP3    H228557   1.861   6.008  16.833  0.1610 -0.3533  1.4054
 2356TIP3   OH228558   2.847   6.566  13.255 -0.1767 -0.1330 -0.0946
 2356TIP3    H128559   2.889   6.506  13.317  0.8619  1.1620  0.4978
 2356TIP3    H228560   2.786   6.617  13.309  0.5361  0.8189 -0.1706
 2357TIP3   OH228561   5.386   3.619   5.560  0.2167 -0.0295 -0.0497
 2357TIP3    H128562   5.420   3.530   5.569 -0.5736 -0.5851 -2.1236
 2357TIP3    H228563   5.378   3.650   5.650 -0.2735 -2.3425  0.7728
 2358TIP3   OH228564   3.306   3.102  13.759  0.0861  0.0173  0.2193
 2358TIP3    H128565   3.396   3.131  13.747 -0.0018  0.3655  0.4000
 2358TIP3    H228566   3.283   3.059  13.677  0.6325 -0.6518  0.4017
 2359TIP3   OH228567   1.266   0.952   6.063  0.4361  0.2097  0.0803
 2359TIP3    H128568   1.215   1.031   6.044  1.1017  0.4616 -0.7430
 2359TIP3    H228569   1.312   0.972   6.144  1.5337  1.1643 -0.7409
 2360TIP3   OH228570   3.572   0.540  11.041  0.0172  0.0780 -0.2924
 2360TIP3    H128571   3.513   0.581  10.978  0.0308 -0.0333 -0.3780
 2360TIP3    H228572   3.546   0.575  11.125 -0.2378 -0.0497 -0.3187
 2361TIP3   OH228573   6.068   1.624   3.722 -0.0746  0.3830  0.5966
 2361TIP3    H128574   6.018   1.592   3.797 -2.2181  1.5531 -0.2299
 2361TIP3    H228575   6.112   1.702   3.754  0.2147  0.0547  1.0082
 2362TIP3   OH228576   6.255   3.361   4.576  0.1709  0.2177  0.1796
 2362TIP3    H128577   6.326   3.392   4.633  0.2364  0.3309  0.0380
 2362TIP3    H228578   6.267   3.266   4.573  0.3996  0.2485  0.0509
 2363TIP3   OH228579   4.738   2.517  11.498 -0.4827 -0.1047  0.2122
 2363TIP3    H128580   4.757   2.494  11.588  0.4366 -0.6771 -0.1156
 2363TIP3    H228581   4.714   2.435  11.456  0.4711 -0.1037 -0.3870
 2364TIP3   OH228582   4.991   2.839   2.253 -0.0739 -0.0321  0.2356
 2364TIP3    H128583   5.008   2.780   2.327  0.7813 -3.0137 -2.1338
 2364TIP3    H228584   4.902   2.819   2.226 -0.5728  1.4224  0.7213
 2365TIP3   OH228585   0.829   6.281  16.438 -0.1712  0.4653  0.0264
 2365TIP3    H128586   0.752   6.323  16.477 -0.9663  0.2831 -1.2753
 2365TIP3    H228587   0.898   6.346  16.445  0.0818  0.0272  2.7598
 2366TIP3   OH228588   5.531   6.180  14.092 -0.8422 -0.0784  0.2839
 2366TIP3    H128589   5.469   6.117  14.130 -2.1952  1.2684  0.4257
 2366TIP3    H228590   5.543   6.149  14.002 -0.1755 -1.4473  0.8169
 2367TIP3   OH228591   6.500   6.702  16.567  0.2897 -0.1937 -0.0460
 2367TIP3    H128592   6.511   6.788  16.527 -0.2526 -1.2289 -2.5765
 2367TIP3    H228593   6.420   6.710  16.618  0.6849  1.0092  0.4392
 2368TIP3   OH228594   0.438   5.115  11.478 -0.4173 -0.0139  0.7345
 2368TIP3    H128595   0.474   5.171  11.408  1.6747 -1.2047  0.7685
 2368TIP3    H228596   0.430   5.174  11.553  1.0594  0.4599  0.5701
 2369TIP3   OH228597   2.055   3.668  12.954  0.0855 -0.0132 -0.5262
 2369TIP3    H128598   2.014   3.655  12.868 -0.3243  0.2547 -0.3702
 2369TIP3    H228599   2.040   3.586  13.000 -0.8538  0.3183 -0.2302
 2370TIP3   OH228600   2.613   0.854   2.460  0.6663 -0.4844  0.2649
 2370TIP3    H128601   2.625   0.888   2.371  2.3242  1.2737  1.0938
 2370TIP3    H228602   2.684   0.790   2.470  0.1989 -1.0227  0.1872
 2371TIP3   OH228603   1.798   3.846  12.900  0.1973 -0.1883  0.0030
 2371TIP3    H128604   1.872   3.808  12.853  2.6285  2.9935  0.9428
 2371TIP3    H228605   1.837   3.893  12.974 -2.9687  0.0475  1.7198
 2372TIP3   OH228606   0.928   0.622  12.172 -0.0722  0.5951 -0.2137
 2372TIP3    H128607   0.935   0.705  12.221 -1.7630  1.4791 -1.3483
 2372TIP3    H228608   0.845   0.630  12.125 -1.0272 -2.3957  0.7751
 2373TIP3   OH228609   1.322   3.416  12.951 -0.5319  0.1197 -0.2409
 2373TIP3    H128610   1.303   3.489  12.892 -0.4640  0.6129  0.3362
 2373TIP3    H228611   1.386   3.452  13.013 -2.4158  0.4061  1.6742
 2374TIP3   OH228612   5.554   0.493   2.395 -0.3658  0.3771  0.1177
 2374TIP3    H128613   5.498   0.438   2.449  0.1668  0.2894  0.5952
 2374TIP3    H228614   5.606   0.432   2.343  0.8190  0.3599  1.2454
 2375TIP3   OH228615   4.870   3.659   2.972 -0.8727 -0.1448  0.8230
 2375TIP3    H128616   4.797   3.689   2.918 -0.6748  2.9218  2.0771
 2375TIP3    H228617   4.835   3.661   3.061 -0.1274 -1.6562  1.1857
 2376TIP3   OH228618   3.605   4.010   0.794 -0.8166  0.0925 -0.0771
 2376TIP3    H128619   3.567   4.077   0.738 -1.1414  0.4558  0.5727
 2376TIP3    H228620   3.532   3.949   0.810 -0.8901  0.3230  0.4580
 2377TIP3   OH228621   6.721   2.428   5.882 -0.7104 -0.5281  0.2947
 2377TIP3    H128622   6.714   2.513   5.926  1.4562 -0.4713  0.6775
 2377TIP3    H228623   6.765   2.449   5.799 -1.8294 -1.0537 -0.4419
 2378TIP3   OH228624   3.023   2.525   2.691 -0.3940 -0.0962 -0.5422
 2378TIP3    H128625   3.012   2.434   2.719  0.0328 -0.0065 -0.0623
 2378TIP3    H228626   3.111   2.528   2.653  1.0556  0.8330  2.5339
 2379TIP3   OH228627   2.279   6.804  10.590  0.1791 -0.1852 -0.1419
 2379TIP3    H128628   2.331   6.735  10.550  2.3817 -0.3625  2.6982
 2379TIP3    H228629   2.331   6.884  10.578 -0.0640  0.0934  0.5604
 2380TIP3   OH228630   5.945   4.704  16.173 -0.4555  0.1152  0.1739
 2380TIP3    H128631   6.037   4.717  16.196 -0.4237  0.3876 -0.1012
 2380TIP3    H228632   5.901   4.785  16.198  0.0408  1.5598 -3.0648
 2381TIP3   OH228633   5.524   0.764   4.864 -0.2392 -0.5339 -0.1276
 2381TIP3    H128634   5.547   0.855   4.885 -1.1383 -0.4669  0.6135
 2381TIP3    H228635   5.552   0.714   4.941 -1.0171 -0.6779  0.0698
 2382TIP3   OH228636   2.109   6.293   1.430 -0.2397  0.1058 -0.3353
 2382TIP3    H128637   2.082   6.345   1.355  1.4056 -1.3570 -2.0296
 2382TIP3    H228638   2.067   6.208   1.417 -2.9386  0.8365  2.4222
 2383TIP3   OH228639   5.239   2.515  11.958 -0.2925  0.1861 -0.1888
 2383TIP3    H128640   5.297   2.530  12.033 -0.7246  0.3296  0.1256
 2383TIP3    H228641   5.298   2.506  11.883  0.0933  1.5362 -0.0776
 2384TIP3   OH228642   4.144   2.095  13.838 -0.1187  0.2432  0.3601
 2384TIP3    H128643   4.067   2.121  13.889 -0.0143 -0.7953  1.0885
 2384TIP3    H228644   4.205   2.060  13.903  0.7132  0.4507 -0.2879
 2385TIP3   OH228645   6.030   1.045   6.501 -0.5185 -0.5309 -0.2953
 2385TIP3    H128646   6.097   1.050   6.433 -0.3339  1.5193 -0.0415
 2385TIP3    H228647   6.051   0.965   6.550 -0.1828 -1.6156 -2.1249
 2386TIP3   OH228648   2.445   2.046   0.352 -0.0390  0.0539 -0.2679
 2386TIP3    H128649   2.412   2.136   0.358  0.4397  0.2158 -0.0655
 2386TIP3    H228650   2.382   2.001   0.294 -1.2431  0.0715  0.9800
 2387TIP3   OH228651   6.369   2.308   1.743  0.6907 -0.0424 -0.4300
 2387TIP3    H128652   6.375   2.402   1.761 -1.0009  0.2904 -1.4480
 2387TIP3    H228653   6.443   2.291   1.684  0.1721  0.9709 -1.4256
 2388TIP3   OH228654   1.899   2.965  14.399  0.5533  0.5384  0.2427
 2388TIP3    H128655   1.926   2.941  14.488  2.3255 -2.2878 -0.9288
 2388TIP3    H228656   1.981   2.982  14.353 -0.0488 -1.4186 -1.6938
 2389TIP3   OH228657   2.795   4.933  13.820 -0.0919 -0.2922  0.6900
 2389TIP3    H128658   2.794   5.009  13.762  1.1814 -0.8735 -0.1371
 2389TIP3    H228659   2.780   4.970  13.908  0.7271  0.9523  0.3371
 2390TIP3   OH228660   3.351   5.868   3.967  0.2561 -0.5691  0.4395
 2390TIP3    H128661   3.437   5.828   3.960  0.9793  0.6926  1.5989
 2390TIP3    H228662   3.368   5.956   4.001 -1.4148  0.0526 -0.2302
 2391TIP3   OH228663   1.167   4.633  12.779  0.1657 -0.3994  1.1987
 2391TIP3    H128664   1.201   4.713  12.738 -0.8500 -1.0880 -1.1923
 2391TIP3    H228665   1.224   4.563  12.747 -0.2745 -0.8940  1.4703
 2392TIP3   OH228666   3.548   0.418   2.686  0.3139 -0.0215  0.1367
 2392TIP3    H128667   3.623   0.387   2.736  1.2264  2.8440  0.7183
 2392TIP3    H228668   3.472   0.392   2.738  1.0529 -0.2742  1.1132
 2393TIP3   OH228669   3.098   6.424  16.711 -0.0143  0.1983 -0.5916
 2393TIP3    H128670   3.127   6.471  16.633 -0.2278 -0.8978 -1.3569
 2393TIP3    H228671   3.004   6.443  16.717 -0.0739 -0.0174 -0.8258
 2394TIP3   OH228672   5.929   6.642   1.538  0.4234 -0.0743  0.2259
 2394TIP3    H128673   5.984   6.696   1.481  0.4033 -0.2685  0.0184
 2394TIP3    H228674   5.861   6.607   1.480 -0.8277  1.3546  0.7624
 2395TIP3   OH228675   4.734   1.121   1.352 -0.4066  0.2643  0.2111
 2395TIP3    H128676   4.641   1.116   1.375 -1.2227  0.9589 -2.5932
 2395TIP3    H228677   4.741   1.199   1.297  1.7167 -0.1737 -0.2251
 2396TIP3   OH228678   0.279   6.763  16.371  0.2505  0.1016 -0.0025
 2396TIP3    H128679   0.192   6.736  16.398 -1.1381  1.3268 -2.7997
 2396TIP3    H228680   0.324   6.787  16.452 -1.8874 -0.8051  1.5312
 2397TIP3   OH228681   6.662   0.228  17.082  0.4811  0.0115 -0.1018
 2397TIP3    H128682   6.626   0.174  17.012  3.4996 -3.3214  0.6655
 2397TIP3    H228683   6.592   0.232  17.147 -0.3682 -1.6753 -0.8588
 2398TIP3   OH228684   1.078   0.633  15.524 -0.4685  0.1706  0.0473
 2398TIP3    H128685   1.159   0.600  15.563 -1.6009 -2.3203  0.4828
 2398TIP3    H228686   1.103   0.660  15.436  0.7545 -1.1647 -0.0554
 2399TIP3   OH228687   1.683   2.172   2.958  0.2439 -0.1963 -0.3230
 2399TIP3    H128688   1.756   2.178   2.895  0.4545  0.4983 -0.0207
 2399TIP3    H228689   1.614   2.126   2.910  0.9808 -1.1269 -0.5184
 2400TIP3   OH228690   6.082   6.208  12.113  0.3877  0.7259  0.6291
 2400TIP3    H128691   6.069   6.157  12.034 -0.3138  1.3736  0.3124
 2400TIP3    H228692   6.119   6.291  12.082 -0.6838  1.3144  0.8730
 2401TIP3   OH228693   1.498   0.474   1.329  0.2484 -0.6390 -0.5335
 2401TIP3    H128694   1.410   0.470   1.292 -0.0332  0.6096 -0.0427
 2401TIP3    H228695   1.555   0.484   1.253  0.1723 -3.1815 -1.0093
 2402TIP3   OH228696   2.258   3.355   4.089  0.1826 -0.5849  0.0195
 2402TIP3    H128697   2.317   3.412   4.138 -0.5594  0.2665 -0.0367
 2402TIP3    H228698   2.176   3.404   4.086  0.6080  0.1952 -3.4641
 2403TIP3   OH228699   0.744   1.732  12.447 -0.3109  0.1313 -0.5709
 2403TIP3    H128700   0.712   1.769  12.365 -1.0530 -2.0581 -1.3437
 2403TIP3    H228701   0.826   1.689  12.424  0.2631  0.8057  0.1773
 2404TIP3   OH228702   6.335   4.006  14.265  0.1417 -0.5690 -0.4697
 2404TIP3    H128703   6.376   3.938  14.211 -0.5539 -0.6231 -0.9507
 2404TIP3    H228704   6.329   3.967  14.352  1.3386 -0.4558 -0.3175
 2405TIP3   OH228705   1.946   0.562   5.053 -0.3686 -0.1026  0.4097
 2405TIP3    H128706   1.888   0.580   4.978  2.4942 -0.6991 -2.1508
 2405TIP3    H228707   1.974   0.648   5.083 -1.0699  0.1293  0.4205
 2406TIP3   OH228708   6.028   6.243   3.313 -0.4947  0.5959  0.1571
 2406TIP3    H128709   6.107   6.295   3.296 -1.2339  1.1539 -1.8401
 2406TIP3    H228710   5.989   6.282   3.391  0.9021  0.6517  0.8554
 2407TIP3   OH228711   0.064   2.136   0.968  0.6894 -0.0056  0.1222
 2407TIP3    H128712   0.079   2.045   0.943 -0.6064 -0.3314  0.4440
 2407TIP3    H228713  -0.019   2.134   1.016 -1.1426  1.7854 -2.6800
 2408TIP3   OH228714   1.799   4.539  15.279 -0.0586  0.0119 -0.2655
 2408TIP3    H128715   1.861   4.515  15.210 -0.3136 -0.3732 -0.3665
 2408TIP3    H228716   1.771   4.455  15.316  1.1016  0.2396  1.2376
 2409TIP3   OH228717   3.482   4.944  16.894 -0.9226 -0.2167  0.2846
 2409TIP3    H128718   3.518   4.938  16.982  0.1814 -0.2544 -0.1616
 2409TIP3    H228719   3.387   4.935  16.907 -0.8586  0.6928  1.5547
 2410TIP3   OH228720   2.532   4.023  14.080  0.2582 -0.2021  0.2508
 2410TIP3    H128721   2.461   4.035  14.143 -1.0119 -0.8176 -1.0111
 2410TIP3    H228722   2.591   4.097  14.095 -0.3728  0.0369  1.6768
 2411TIP3   OH228723   0.975   1.657   6.022 -0.3689  0.4328  0.1692
 2411TIP3    H128724   0.883   1.653   6.046 -0.2670  0.5689  0.5964
 2411TIP3    H228725   1.011   1.572   6.049  0.1301  1.2281  2.1674
 2412TIP3   OH228726   4.485   5.217   2.502 -0.1940 -0.0736 -0.1014
 2412TIP3    H128727   4.485   5.305   2.464  0.5292 -0.1796 -0.3838
 2412TIP3    H228728   4.472   5.230   2.595 -0.3958  0.3159 -0.1840
 2413TIP3   OH228729   3.000   0.220  16.578  0.1949 -0.3487 -0.0212
 2413TIP3    H128730   2.985   0.151  16.513 -0.1314 -1.0869  0.8223
 2413TIP3    H228731   3.084   0.197  16.619  0.6156  0.3539 -0.4660
 2414TIP3   OH228732   6.744   2.215  13.387  0.3239  0.5022  0.0724
 2414TIP3    H128733   6.675   2.266  13.346 -0.6014  0.0436  1.0042
 2414TIP3    H228734   6.820   2.226  13.330 -0.1341  2.0810 -0.2688
 2415TIP3   OH228735   6.456   5.328  12.511 -0.0871  0.7002 -0.5593
 2415TIP3    H128736   6.381   5.270  12.525  0.3501  0.6528  2.0061
 2415TIP3    H228737   6.434   5.377  12.432 -2.1763 -0.2787 -0.6506
 2416TIP3   OH228738   3.023   3.143   1.412 -0.5174  0.7079  0.1041
 2416TIP3    H128739   3.003   3.181   1.498  1.0270 -0.4435  1.0252
 2416TIP3    H228740   2.998   3.051   1.421  2.0128 -0.0464  0.2692
 2417TIP3   OH228741   4.193   3.037   4.751 -0.3988 -0.1126 -0.3210
 2417TIP3    H128742   4.204   3.049   4.846  3.2076  0.2774 -0.6258
 2417TIP3    H228743   4.121   2.975   4.743 -0.2630 -0.8562  2.7103
 2418TIP3   OH228744   3.589   6.573  16.554  0.2512  0.0341  0.4113
 2418TIP3    H128745   3.638   6.533  16.483 -0.4722  0.0551 -0.1066
 2418TIP3    H228746   3.655   6.625  16.601  1.1298 -1.4857  0.9160
 2419TIP3   OH228747   2.095   1.607  16.101 -0.1672 -0.1749  0.3555
 2419TIP3    H128748   2.039   1.559  16.040  1.5869 -3.0241  0.8431
 2419TIP3    H228749   2.184   1.584  16.076  0.7507  2.0514  1.3222
 2420TIP3   OH228750   4.943   3.025   0.790  0.0179  0.5441  0.3094
 2420TIP3    H128751   4.958   3.076   0.711  2.5436 -0.5029  0.0205
 2420TIP3    H228752   4.944   2.934   0.761 -0.1466  0.1795  1.3848
 2421TIP3   OH228753   2.257   4.453  14.172 -0.7062  0.0520  0.2116
 2421TIP3    H128754   2.202   4.504  14.231  1.6823  0.8453  1.8915
 2421TIP3    H228755   2.333   4.428  14.225 -0.2330 -2.5078 -1.4826
 2422TIP3   OH228756   2.871   2.793  13.059 -0.1826 -0.1345 -0.2690
 2422TIP3    H128757   2.863   2.809  12.965 -0.4051 -0.8094 -0.3756
 2422TIP3    H228758   2.783   2.808  13.094  0.3795  2.3784  0.2266
 2423TIP3   OH228759   1.375   5.076  12.071 -0.3115  0.0089 -0.3687
 2423TIP3    H128760   1.382   4.993  12.025  0.1385  0.3654 -0.9645
 2423TIP3    H228761   1.363   5.052  12.162  0.2646 -0.7090 -0.4696
 2424TIP3   OH228762   5.691   2.362  16.059 -0.0829  0.7321  0.1250
 2424TIP3    H128763   5.625   2.385  15.993  0.4063  1.5552 -0.0931
 2424TIP3    H228764   5.710   2.444  16.103 -2.1688 -0.1661  3.0132
 2425TIP3   OH228765   6.780   3.180  13.624  0.2182  0.2655  0.1893
 2425TIP3    H128766   6.795   3.144  13.536 -0.8781  1.2166 -0.3994
 2425TIP3    H228767   6.744   3.106  13.674 -0.4173  0.0775 -0.5324
 2426TIP3   OH228768   2.017   0.324   5.960  0.4988 -0.3584 -0.6943
 2426TIP3    H128769   1.967   0.386   5.906 -0.1893  0.6297  1.0097
 2426TIP3    H228770   2.045   0.376   6.035  1.4243 -1.7095 -0.0745
 2427TIP3   OH228771   5.556   2.284   3.779  0.2930 -0.0925 -0.4819
 2427TIP3    H128772   5.558   2.378   3.765  0.7393 -0.1216 -0.6058
 2427TIP3    H228773   5.619   2.248   3.716 -0.9744 -0.6101 -1.5262
 2428TIP3   OH228774   0.622   1.447   4.068 -0.0822  0.3136 -0.1482
 2428TIP3    H128775   0.717   1.458   4.072 -0.1356  1.6694 -1.6992
 2428TIP3    H228776   0.600   1.461   3.976 -1.3996 -3.8135 -0.6416
 2429TIP3   OH228777   0.482   1.454   1.304  0.1578  0.2494 -0.5161
 2429TIP3    H128778   0.480   1.473   1.398 -0.1482 -0.4989 -0.3596
 2429TIP3    H228779   0.431   1.373   1.295  0.4596  0.1349 -1.2828
 2430TIP3   OH228780   1.936   4.395  17.169  0.2629  0.5791  0.4865
 2430TIP3    H128781   1.978   4.464  17.117 -2.3107  2.1352  0.2944
 2430TIP3    H228782   1.936   4.429  17.259  1.2349 -0.3707  0.8731
 2431TIP3   OH228783   5.594   5.173   5.132 -0.1109 -0.1639 -0.2015
 2431TIP3    H128784   5.522   5.184   5.071  0.7989 -1.0068 -1.4763
 2431TIP3    H228785   5.608   5.260   5.170 -1.7166  0.0180  0.0129
 2432TIP3   OH228786   1.503   6.072  12.678  0.3734 -0.0394  0.0560
 2432TIP3    H128787   1.475   6.043  12.765 -0.6005 -1.5379 -0.7018
 2432TIP3    H228788   1.425   6.112  12.640  0.8533  0.7977 -0.0611
 2433TIP3   OH228789   2.159   4.905   5.351  0.0832 -0.5397 -0.2454
 2433TIP3    H128790   2.097   4.944   5.290 -2.1183 -0.7962  1.7186
 2433TIP3    H228791   2.204   4.979   5.391 -0.7786 -0.2106  0.1327
 2434TIP3   OH228792   1.416   3.995  12.645 -0.0350 -0.3653  0.0765
 2434TIP3    H128793   1.332   3.989  12.691  0.7574 -0.0138  1.6709
 2434TIP3    H228794   1.481   4.005  12.715  1.0897  2.0602 -1.1503
 2435TIP3   OH228795   3.872   3.469   3.007 -0.0293 -0.1630 -0.1106
 2435TIP3    H128796   3.856   3.556   3.044  0.0032 -0.9789  1.9375
 2435TIP3    H228797   3.947   3.436   3.056  0.8501 -0.8266 -1.8435
 2436TIP3   OH228798   1.867   1.418  12.008 -0.7575 -0.2685 -0.2379
 2436TIP3    H128799   1.904   1.330  11.999 -0.4949 -0.6144  3.1898
 2436TIP3    H228800   1.773   1.404  12.020 -1.0086  0.1063 -1.5901
 2437TIP3   OH228801   5.072   2.275  17.097 -0.7240 -0.4793 -1.1305
 2437TIP3    H128802   5.098   2.273  17.005 -0.9020  1.6422 -1.2901
 2437TIP3    H228803   4.992   2.329  17.097 -1.5505 -1.6400  0.1116
 2438TIP3   OH228804   3.965   2.653   0.599  0.0173  0.5786  0.3202
 2438TIP3    H128805   3.973   2.612   0.513 -0.0922  1.3740 -0.0724
 2438TIP3    H228806   3.997   2.742   0.587 -1.1439  1.0789  0.8074
 2439TIP3   OH228807   5.570   0.280   1.928  0.3200  0.6401  0.1734
 2439TIP3    H128808   5.516   0.221   1.876  0.4305  0.6198  0.0823
 2439TIP3    H228809   5.660   0.254   1.909  0.3527  0.3806  0.6729
 2440TIP3   OH228810   5.551   1.071   0.811  0.2801 -0.6713  0.1895
 2440TIP3    H128811   5.619   1.023   0.763 -0.7958 -2.9711  0.8408
 2440TIP3    H228812   5.482   1.086   0.747  0.2722 -0.7696  0.1738
 2441TIP3   OH228813   2.478   5.521   6.145 -0.3583  0.1479  0.5106
 2441TIP3    H128814   2.428   5.507   6.226 -0.2935  1.3165  0.7683
 2441TIP3    H228815   2.509   5.611   6.151 -1.2394  0.6226 -1.3015
 2442TIP3   OH228816   3.680   1.634  12.439  0.4631 -0.2265  0.1088
 2442TIP3    H128817   3.638   1.705  12.390 -0.6856 -0.1736  1.1094
 2442TIP3    H228818   3.712   1.676  12.519 -0.4123 -0.8397  0.8081
 2443TIP3   OH228819   1.665   1.764  14.033 -0.3247  0.1193  0.0279
 2443TIP3    H128820   1.722   1.722  14.097 -1.1946  0.8536  1.3274
 2443TIP3    H228821   1.726   1.814  13.977  0.6496 -2.2218 -1.1453
 2444TIP3   OH228822   1.071   4.273  14.870  0.4269  0.2729  0.2247
 2444TIP3    H128823   1.155   4.298  14.831  1.1888 -1.8231  0.3711
 2444TIP3    H228824   1.006   4.324  14.821  1.7233  1.5501 -0.2579
 2445TIP3   OH228825   5.557   4.807  11.063  0.0673 -0.1746 -0.3231
 2445TIP3    H128826   5.535   4.714  11.057 -0.7495 -0.1240  1.2856
 2445TIP3    H228827   5.652   4.809  11.076  0.4020 -0.6488 -2.3601
 2446TIP3   OH228828   1.669   4.081  12.001  0.6835 -0.2777 -0.1394
 2446TIP3    H128829   1.598   4.090  12.066  0.9044 -2.7109  0.5584
 2446TIP3    H228830   1.748   4.071  12.054  0.8450 -2.4988 -0.6753
 2447TIP3   OH228831   1.836   6.067   3.237  0.1004  0.1596  0.4641
 2447TIP3    H128832   1.850   5.992   3.294 -1.2131  1.6326  2.9291
 2447TIP3    H228833   1.868   6.039   3.152 -3.5567 -4.4712  0.2420
 2448TIP3   OH228834   2.364   5.488   5.870  0.4417 -0.6087  0.3014
 2448TIP3    H128835   2.397   5.577   5.857 -1.3974  0.1964  0.7943
 2448TIP3    H228836   2.409   5.457   5.949  0.1207  0.3916  0.8887
 2449TIP3   OH228837   4.080   3.705  15.590  0.0007  0.7875  0.2452
 2449TIP3    H128838   4.159   3.715  15.538 -1.6240  1.8462 -2.1924
 2449TIP3    H228839   4.068   3.790  15.631 -0.9411  1.3238 -1.0819
 2450TIP3   OH228840   5.693   3.514   0.130  0.4289 -0.4969 -0.0986
 2450TIP3    H128841   5.613   3.482   0.173 -0.4582  0.7110 -0.7955
 2450TIP3    H228842   5.669   3.520   0.037  1.2406  0.1767 -0.2701
 2451TIP3   OH228843   4.939   1.399  16.065 -0.1418 -0.2146  0.3401
 2451TIP3    H128844   5.019   1.392  16.014 -1.1143 -2.1869 -1.0469
 2451TIP3    H228845   4.958   1.352  16.146  1.0372  1.9415  1.3819
 2452TIP3   OH228846   1.377   2.147   4.150  0.4255  0.4929  0.1202
 2452TIP3    H128847   1.441   2.105   4.093 -0.3462 -1.0061  0.3124
 2452TIP3    H228848   1.363   2.084   4.221 -0.0264  1.5195  0.9711
 2453TIP3   OH228849   1.621   3.625  12.770 -0.1007  0.4746 -0.0327
 2453TIP3    H128850   1.700   3.586  12.807 -0.9246 -2.3532 -1.0381
 2453TIP3    H228851   1.635   3.719  12.780  2.7182  0.0469  1.1490
 2454TIP3   OH228852   4.438   2.196   4.836  0.0176  0.2376  0.1723
 2454TIP3    H128853   4.482   2.140   4.901  2.8127  1.8152 -0.1769
 2454TIP3    H228854   4.462   2.158   4.752  1.2304  1.3902 -0.0401
 2455TIP3   OH228855   6.527   4.769   0.245  0.3568  0.1607  0.0552
 2455TIP3    H128856   6.541   4.860   0.221  2.9871 -0.3099 -0.4177
 2455TIP3    H228857   6.442   4.747   0.207  0.0174  2.1748 -0.4571
 2456TIP3   OH228858   6.549   5.534  15.507 -1.1993 -0.1880  0.2807
 2456TIP3    H128859   6.539   5.588  15.428 -0.5645  0.6550  0.7648
 2456TIP3    H228860   6.643   5.538  15.527 -0.6691 -3.3418 -0.9669
 2457TIP3   OH228861   4.564   2.566   5.592 -0.1464 -0.0041  0.3085
 2457TIP3    H128862   4.483   2.604   5.626 -0.7787 -1.0538  0.0348
 2457TIP3    H228863   4.537   2.481   5.557  1.1662 -0.5876  0.6713
 2458TIP3   OH228864   1.292   5.351   1.554 -0.0816  0.2243  0.4924
 2458TIP3    H128865   1.287   5.308   1.639  0.4987 -0.4758  0.1865
 2458TIP3    H228866   1.245   5.293   1.494 -2.5863  1.8765  0.7382
 2459TIP3   OH228867   2.757   6.481   3.819 -0.4258 -0.0884 -0.4808
 2459TIP3    H128868   2.822   6.499   3.752  0.8766 -0.9820  0.4832
 2459TIP3    H228869   2.809   6.464   3.898 -1.8894  0.6566  0.6858
 2460TIP3   OH228870   1.578   1.481   0.553  0.0288 -0.2557 -0.1802
 2460TIP3    H128871   1.502   1.485   0.611 -0.4268  0.9933 -0.8243
 2460TIP3    H228872   1.559   1.408   0.495 -0.4166 -0.3131  0.0266
 2461TIP3   OH228873   4.305   1.165   4.816  0.1615  0.0737 -0.1463
 2461TIP3    H128874   4.329   1.255   4.793  2.0116 -0.2895  0.2378
 2461TIP3    H228875   4.233   1.144   4.757  1.8059  0.7180 -2.5358
 2462TIP3   OH228876   2.675   5.854   2.249  0.4020 -0.5353  0.1197
 2462TIP3    H128877   2.724   5.896   2.320 -0.4773 -0.8213  0.9167
 2462TIP3    H228878   2.726   5.776   2.227  0.3758 -0.7725  0.8602
 2463TIP3   OH228879   3.290   0.744  11.552 -0.0733  0.2144  0.4044
 2463TIP3    H128880   3.293   0.743  11.647  0.7451  1.4204  0.4204
 2463TIP3    H228881   3.382   0.745  11.525 -0.2928  0.6914 -0.3637
 2464TIP3   OH228882   2.468   6.726  11.868  0.4389  0.2254  0.5824
 2464TIP3    H128883   2.400   6.659  11.869 -0.8926  1.5359  1.6777
 2464TIP3    H228884   2.475   6.754  11.959  2.4247  0.1935  0.4910
 2465TIP3   OH228885   5.155   3.825   3.239 -0.2835 -0.0841 -0.0355
 2465TIP3    H128886   5.135   3.837   3.332  0.5715 -1.8531  0.4272
 2465TIP3    H228887   5.227   3.885   3.222 -0.2270  0.0135  0.5367
 2466TIP3   OH228888   0.361   2.925  11.613  0.1219  0.1527 -0.0398
 2466TIP3    H128889   0.305   2.932  11.691  0.3331  0.5622  0.0767
 2466TIP3    H228890   0.449   2.941  11.645  0.1769  0.6167 -0.4168
 2467TIP3   OH228891   5.051   6.115  12.177 -0.7199  0.0746 -0.3892
 2467TIP3    H128892   5.070   6.099  12.269  0.4059  0.3434 -0.5581
 2467TIP3    H228893   5.106   6.190  12.154 -1.5451  0.4829 -1.0941
 2468TIP3   OH228894   0.540   5.500   0.052 -0.3327  0.3102 -0.0075
 2468TIP3    H128895   0.590   5.469  -0.024  1.4030 -2.0387  1.9120
 2468TIP3    H228896   0.467   5.440   0.059  0.2432 -0.3152  0.8717
 2469TIP3   OH228897   2.021   2.635   6.000 -0.0371  0.1220  0.1015
 2469TIP3    H128898   1.966   2.583   5.941  1.7598 -1.3194 -0.4116
 2469TIP3    H228899   1.995   2.725   5.984 -0.9807 -0.3805 -1.4558
 2470TIP3   OH228900   5.232   0.372  16.959 -0.4281  0.6274  0.0273
 2470TIP3    H128901   5.189   0.457  16.955  1.0781  1.5628  1.8295
 2470TIP3    H228902   5.235   0.351  17.052  1.8958  0.0957 -0.0911
 2471TIP3   OH228903   0.683   4.377   2.294  0.0735  0.2969 -0.1317
 2471TIP3    H128904   0.626   4.414   2.360  0.3211  0.3576  0.0486
 2471TIP3    H228905   0.669   4.283   2.300  1.7392  0.0951  1.5550
 2472TIP3   OH228906   2.468   4.863   1.816  0.5237  0.7666 -0.1352
 2472TIP3    H128907   2.402   4.854   1.746  0.3225  1.6588 -0.0822
 2472TIP3    H228908   2.552   4.849   1.772  0.3908  1.2144 -0.5437
 2473TIP3   OH228909   6.018   2.096   6.573 -0.2123 -0.3565  0.2970
 2473TIP3    H128910   5.996   2.181   6.610  0.2299  0.2015 -0.7132
 2473TIP3    H228911   6.005   2.106   6.479  0.5987 -1.1707  0.0874
 2474TIP3   OH228912   4.522   4.569   2.932 -0.2427 -0.2131 -0.6158
 2474TIP3    H128913   4.567   4.555   2.849  1.6982 -0.7723  0.4497
 2474TIP3    H228914   4.440   4.520   2.924  0.4867 -1.3114 -1.7579
 2475TIP3   OH228915   2.225   1.187  16.267 -0.2856 -0.0836 -0.5097
 2475TIP3    H128916   2.140   1.194  16.224 -1.4994  1.0102  1.8816
 2475TIP3    H228917   2.258   1.277  16.269 -0.8465  0.1285  1.8133
 2476TIP3   OH228918   0.877   4.549  12.774  0.0959  0.0888  0.1859
 2476TIP3    H128919   0.955   4.602  12.792  0.2067  0.0396 -0.1478
 2476TIP3    H228920   0.804   4.603  12.805  0.2610  0.1275  0.5184
 2477TIP3   OH228921   5.309   0.496  12.860 -0.4050 -0.2192  0.4289
 2477TIP3    H128922   5.330   0.574  12.912 -0.6114 -0.8691  1.5262
 2477TIP3    H228923   5.271   0.529  12.780  1.5831  0.8991 -0.1185
 2478TIP3   OH228924   1.239   1.288   4.825 -0.4611 -0.1617 -0.2529
 2478TIP3    H128925   1.233   1.250   4.913  1.5637  1.3609  0.6036
 2478TIP3    H228926   1.330   1.313   4.815 -0.7955  0.4208 -2.5298
 2479TIP3   OH228927   4.659   2.027  12.195  0.0956  0.2056 -0.2208
 2479TIP3    H128928   4.580   1.989  12.156  0.1584  0.6172 -0.7650
 2479TIP3    H228929   4.633   2.116  12.219  0.0327 -0.0698  0.7778
 2480TIP3   OH228930   3.816   4.640  11.433 -0.6813 -1.0579 -0.0403
 2480TIP3    H128931   3.836   4.615  11.524 -0.2886  0.8153  0.4343
 2480TIP3    H228932   3.723   4.621  11.423 -1.7822  2.3031  2.1274
 2481TIP3   OH228933   2.670   5.119   0.267  0.2246 -0.5061  0.1727
 2481TIP3    H128934   2.627   5.122   0.181 -0.2228  0.8882  0.4236
 2481TIP3    H228935   2.672   5.026   0.289 -2.1957 -0.6809 -0.1097
 2482TIP3   OH228936   3.247   6.641  12.063  0.7935  0.2833  0.3512
 2482TIP3    H128937   3.328   6.593  12.048  0.4478 -0.1994 -0.0002
 2482TIP3    H228938   3.261   6.687  12.146  1.8046  1.0202 -0.2099
 2483TIP3   OH228939   6.560   5.196  10.845 -0.3082 -0.3095  0.0545
 2483TIP3    H128940   6.518   5.274  10.809  1.4704  0.9386  0.5290
 2483TIP3    H228941   6.595   5.150  10.769  0.4071  0.4625 -0.0981
 2484TIP3   OH228942   0.982   1.479  12.181  0.2680  0.3263  0.2933
 2484TIP3    H128943   0.891   1.455  12.163 -0.4200  2.5674  0.4743
 2484TIP3    H228944   1.006   1.540  12.111  1.1539  0.8369  1.0019
 2485TIP3   OH228945   3.143   4.617  16.727 -0.1366 -0.1521 -0.2540
 2485TIP3    H128946   3.121   4.639  16.817  0.6151 -1.9965  0.4322
 2485TIP3    H228947   3.227   4.571  16.733 -0.1986 -0.5469 -1.8468
 2486TIP3   OH228948   3.824   6.743   4.452 -0.8776 -0.2135  0.8512
 2486TIP3    H128949   3.899   6.722   4.508 -0.0090 -1.5230 -0.7117
 2486TIP3    H228950   3.748   6.709   4.499 -0.2019 -1.0768  1.3474
 2487TIP3   OH228951   5.729   3.933  11.283 -0.2389 -0.2816  0.1327
 2487TIP3    H128952   5.677   4.011  11.267  0.6663  0.3527  0.2280
 2487TIP3    H228953   5.667   3.870  11.320 -0.8245  0.6281  0.7382
 2488TIP3   OH228954   5.193   0.090  11.455 -0.4669  0.2283  0.3392
 2488TIP3    H128955   5.249   0.167  11.464 -0.1617  0.1071 -0.4157
 2488TIP3    H228956   5.118   0.107  11.512  0.1281  0.5894  1.0200
 2489TIP3   OH228957   5.329   6.801   0.326 -0.4828 -0.2242 -0.2456
 2489TIP3    H128958   5.354   6.734   0.262  0.2406 -1.3968  1.1916
 2489TIP3    H228959   5.372   6.773   0.407 -0.5518  1.7464  0.5224
 2490TIP3   OH228960   5.307   6.024   0.587 -0.1205 -0.4098  0.3840
 2490TIP3    H128961   5.340   5.989   0.670 -0.0813 -1.0622  0.0993
 2490TIP3    H228962   5.212   6.030   0.600 -0.0633 -0.0254  0.6509
 2491TIP3   OH228963   6.295   0.994   4.107  0.0310  0.4521  0.3761
 2491TIP3    H128964   6.321   1.086   4.098  1.3428  0.2426  1.6096
 2491TIP3    H228965   6.362   0.946   4.058  0.2142  0.0796  0.9824
 2492TIP3   OH228966   4.677   6.310   3.289  0.0333  0.5342  0.5068
 2492TIP3    H128967   4.605   6.362   3.323  0.1513  0.6276  0.6152
 2492TIP3    H228968   4.735   6.374   3.247  0.2381  0.5068  0.7453
 2493TIP3   OH228969   4.641   1.743  16.412 -0.2372 -0.3978  0.4777
 2493TIP3    H128970   4.563   1.702  16.449 -0.7430 -0.5689 -0.7498
 2493TIP3    H228971   4.640   1.718  16.320  0.0522  1.4212 -0.0513
 2494TIP3   OH228972   3.600   4.810  15.640  0.3751  0.5484  0.2218
 2494TIP3    H128973   3.677   4.861  15.663  0.7946 -0.2616  0.6160
 2494TIP3    H228974   3.567   4.776  15.723 -0.3216  0.7552  0.0405
 2495TIP3   OH228975   1.429   2.827  16.997  0.1446 -0.1565  0.5702
 2495TIP3    H128976   1.506   2.777  16.970 -0.1080 -1.0118  1.3980
 2495TIP3    H228977   1.461   2.890  17.060  0.2313 -0.2402  0.6091
 2496TIP3   OH228978   3.254   2.859   6.479  1.0245  0.1069 -0.5094
 2496TIP3    H128979   3.285   2.793   6.417  0.1233 -2.1560  1.3483
 2496TIP3    H228980   3.321   2.927   6.475  3.5427 -2.2027 -0.4459
 2497TIP3   OH228981   3.393   5.300   4.340 -0.4808  0.5216 -0.4986
 2497TIP3    H128982   3.338   5.368   4.301  0.0866  0.1351 -2.0287
 2497TIP3    H228983   3.472   5.300   4.287  0.9792  0.9595  1.5440
 2498TIP3   OH228984   0.577   6.603  14.144 -0.0346 -0.3724  0.0547
 2498TIP3    H128985   0.574   6.600  14.049  1.2850  0.3121 -0.0270
 2498TIP3    H228986   0.572   6.511  14.171  0.0687 -0.6035 -0.6872
 2499TIP3   OH228987   4.710   6.371   4.459 -0.1521  0.0467 -0.4590
 2499TIP3    H128988   4.721   6.305   4.392 -1.1653  1.5395 -2.1875
 2499TIP3    H228989   4.622   6.405   4.445  0.5210  2.1224 -0.0145
 2500TIP3   OH228990   2.843   5.586  15.629 -0.2082 -0.0096  0.4905
 2500TIP3    H128991   2.777   5.530  15.590  0.2883 -0.6088  0.5007
 2500TIP3    H228992   2.908   5.526  15.665  1.0979  0.5632 -0.8051
 2501TIP3   OH228993   2.419   1.270   4.525  0.4227 -0.2765  0.5607
 2501TIP3    H128994   2.449   1.357   4.552  1.4939 -0.6651  0.6844
 2501TIP3    H228995   2.444   1.264   4.433 -1.4490  0.2877 -0.0344
 2502TIP3   OH228996   5.598   4.123  17.055  0.4916 -0.2981  0.0539
 2502TIP3    H128997   5.690   4.121  17.030  0.0559 -0.8798 -1.5911
 2502TIP3    H228998   5.583   4.039  17.099  0.6892 -0.2921  0.1342
 2503TIP3   OH228999   0.736   2.788  13.910  0.2039 -0.0865 -0.1308
 2503TIP3    H129000   0.824   2.750  13.911  1.1833  1.9442  2.3543
 2503TIP3    H229001   0.735   2.845  13.833  1.6451  0.9792  0.5965
 2504TIP3   OH229002   5.519   6.646  15.161 -0.4636 -0.8086  0.0198
 2504TIP3    H129003   5.489   6.736  15.172  3.1003  0.6615 -1.0072
 2504TIP3    H229004   5.452   6.606  15.105 -2.3885  0.9936  0.8916
 2505TIP3   OH229005   6.797   6.664   3.696 -0.2528  0.4540 -0.2694
 2505TIP3    H129006   6.781   6.677   3.790  1.5190 -0.0909  0.1469
 2505TIP3    H229007   6.749   6.584   3.675  0.7152 -0.4084  0.6186
 2506TIP3   OH229008   0.657   1.579  11.102 -0.5898  0.5492 -0.5527
 2506TIP3    H129009   0.601   1.534  11.038  0.3986  0.8247 -1.6543
 2506TIP3    H229010   0.648   1.672  11.080 -0.8012  0.7134  0.1986
 2507TIP3   OH229011   4.022   0.791  15.712 -0.5633 -0.3966  0.2599
 2507TIP3    H129012   3.955   0.727  15.689 -1.0633 -0.4349  1.7274
 2507TIP3    H229013   4.002   0.816  15.802  0.7502  0.4185  0.3568
 2508TIP3   OH229014   4.196   1.741   4.104  0.1733  0.4292 -0.3167
 2508TIP3    H129015   4.230   1.742   4.014 -0.2640  1.0790 -0.4843
 2508TIP3    H229016   4.171   1.832   4.120  0.8821  0.4604  0.7106
 2509TIP3   OH229017   2.894   5.635  13.378 -0.1935 -0.3759 -0.7016
 2509TIP3    H129018   2.888   5.703  13.445 -0.0167 -1.5175  0.5316
 2509TIP3    H229019   2.896   5.682  13.295  1.4011  1.1842  0.1557
 2510TIP3   OH229020   1.209   3.656   5.910 -0.2868 -0.5275  0.0888
 2510TIP3    H129021   1.213   3.691   5.821 -1.7829 -3.4253 -1.2679
 2510TIP3    H229022   1.261   3.575   5.906 -0.6517 -0.8799  1.7710
 2511TIP3   OH229023   0.155   6.682  11.721 -0.1575 -0.0966  0.0375
 2511TIP3    H129024   0.107   6.655  11.643 -2.4222  2.7366  0.2963
 2511TIP3    H229025   0.203   6.760  11.694  1.7466 -0.9748  0.6884
 2512TIP3   OH229026   1.533   0.337  14.680 -0.3260  0.1749 -0.2650
 2512TIP3    H129027   1.477   0.317  14.605 -0.4615  0.7690 -0.3267
 2512TIP3    H229028   1.566   0.251  14.709 -2.2385 -0.3372  0.5583
 2513TIP3   OH229029   1.797   2.761   2.568  0.5143  0.2498  0.2035
 2513TIP3    H129030   1.877   2.805   2.542  0.4370  1.5105  1.9043
 2513TIP3    H229031   1.736   2.832   2.591 -1.7037 -0.5938 -2.5179
 2514TIP3   OH229032   1.985   3.589   5.169 -0.2227  0.0347 -0.1676
 2514TIP3    H129033   1.931   3.572   5.247 -0.0156  0.4232  0.0618
 2514TIP3    H229034   1.968   3.514   5.112 -0.4611 -0.2004  0.2052
 2515TIP3   OH229035   0.257   0.508   1.037 -0.1658 -0.5947 -0.6876
 2515TIP3    H129036   0.312   0.443   0.993 -0.5533  0.4861 -2.9099
 2515TIP3    H229037   0.237   0.572   0.969 -1.4151  0.8188  0.9318
 2516TIP3   OH229038   0.137   1.810  10.979 -0.2697  0.1332 -0.8781
 2516TIP3    H129039   0.084   1.858  10.915  1.2717  2.8940 -0.2693
 2516TIP3    H229040   0.087   1.818  11.061 -0.5447 -0.2920 -1.0018
 2517TIP3   OH229041   3.576   2.236   4.980 -0.0868  0.4134 -0.2537
 2517TIP3    H129042   3.643   2.176   4.948  1.0026  1.4803 -0.0843
 2517TIP3    H229043   3.548   2.199   5.064 -0.9027 -0.8938 -1.0765
 2518TIP3   OH229044   5.053   6.355   5.505  0.0003  0.4184  0.3313
 2518TIP3    H129045   4.972   6.397   5.533  0.5783  0.6293  1.7891
 2518TIP3    H229046   5.122   6.413   5.537  0.7433  0.7583 -1.7405
 2519TIP3   OH229047   6.257   4.517  14.779  0.0469 -0.6045  0.1044
 2519TIP3    H129048   6.249   4.607  14.747  2.2095 -0.2838  0.3086
 2519TIP3    H229049   6.296   4.469  14.706  0.5401 -0.9659  0.6024
 2520TIP3   OH229050   4.420   5.046  14.755 -0.0782 -0.9946 -0.2336
 2520TIP3    H129051   4.501   5.012  14.792 -0.5786 -1.2714  0.6413
 2520TIP3    H229052   4.437   5.139  14.742  0.1920 -0.9296  0.5018
 2521TIP3   OH229053   6.572   6.308  11.732  0.0447  0.1924  1.1109
 2521TIP3    H129054   6.554   6.269  11.817  0.3464  1.1564  1.6373
 2521TIP3    H229055   6.501   6.371  11.719  0.0910  0.1717  0.7279
 2522TIP3   OH229056   1.543   6.387  12.162  0.3015  0.5504  0.0149
 2522TIP3    H129057   1.557   6.457  12.098 -1.6269 -0.0422 -1.1378
 2522TIP3    H229058   1.628   6.376  12.204  0.6364  3.7657  0.4666
 2523TIP3   OH229059   1.888   5.316   6.134  0.4081  0.1836 -0.4083
 2523TIP3    H129060   1.868   5.240   6.189  0.0889  0.0942 -0.6415
 2523TIP3    H229061   1.956   5.364   6.181  0.8032 -0.3906 -0.3861
 2524TIP3   OH229062   1.873   2.175  10.699 -0.1782 -0.2603  0.1242
 2524TIP3    H129063   1.878   2.112  10.628 -1.4495  0.8498 -0.9839
 2524TIP3    H229064   1.815   2.135  10.763 -0.7914 -0.3189 -0.4663
 2525TIP3   OH229065   6.578   6.183  12.333  0.0068  0.1207 -0.2048
 2525TIP3    H129066   6.576   6.157  12.241 -0.5927 -0.2483 -0.0904
 2525TIP3    H229067   6.614   6.272  12.332 -2.6559  1.3040 -1.0866
 2526TIP3   OH229068   2.011   3.230   5.664  0.2451  0.4266  0.3144
 2526TIP3    H129069   2.017   3.233   5.569  0.0298 -1.1255  0.2251
 2526TIP3    H229070   2.082   3.171   5.691 -0.9999 -0.8789  0.9121
 2527TIP3   OH229071   3.406   0.784   4.764 -0.2237  0.3214  0.2116
 2527TIP3    H129072   3.470   0.854   4.755 -1.2536  1.3283  0.4401
 2527TIP3    H229073   3.376   0.790   4.855 -0.4516 -0.3020  0.1842
 2528TIP3   OH229074   2.159   3.225   0.978  0.1931  0.2415  0.3192
 2528TIP3    H129075   2.087   3.267   0.929 -0.3183  0.0872  0.9255
 2528TIP3    H229076   2.179   3.147   0.927 -0.4242  0.0154  0.4073
 2529TIP3   OH229077   3.948   5.285   1.020  0.4811  0.5842  0.4528
 2529TIP3    H129078   4.020   5.306   1.079  0.9659  2.0992 -0.6115
 2529TIP3    H229079   3.874   5.263   1.077  1.4501  0.1558  1.5656
 2530TIP3   OH229080   1.364   3.011   0.647  0.0711  0.0285  0.1563
 2530TIP3    H129081   1.333   2.988   0.735 -1.4287 -0.2339 -0.4040
 2530TIP3    H229082   1.284   3.032   0.599  0.8783  0.2270 -1.1346
 2531TIP3   OH229083   2.240   0.942  11.789 -0.0273 -0.2749 -0.1614
 2531TIP3    H129084   2.291   0.861  11.793 -1.4639 -1.4770 -3.1271
 2531TIP3    H229085   2.304   1.011  11.772  1.3731 -0.4438  3.5039
 2532TIP3   OH229086   5.996   4.846   1.403 -0.6866  0.4874  0.1456
 2532TIP3    H129087   5.938   4.777   1.372 -0.4008 -0.7808  2.2829
 2532TIP3    H229088   6.056   4.802   1.463  1.4552  2.0567 -0.7267
 2533TIP3   OH229089   6.592   3.587  14.961 -0.1344 -0.1252 -0.0363
 2533TIP3    H129090   6.640   3.504  14.957 -0.7266 -0.4629 -0.4997
 2533TIP3    H229091   6.651   3.651  14.922  0.5340 -0.2213  0.7966
 2534TIP3   OH229092   4.330   1.893   1.269  0.2285 -0.2880  0.0072
 2534TIP3    H129093   4.402   1.853   1.317 -1.9692 -2.0503  2.0892
 2534TIP3    H229094   4.274   1.820   1.242 -0.9524  1.0101 -1.2574
 2535TIP3   OH229095   0.694   2.381   0.103 -0.4093 -0.7911  0.3662
 2535TIP3    H129096   0.609   2.411   0.070 -0.0365 -0.5521 -0.4130
 2535TIP3    H229097   0.680   2.289   0.124 -0.8517 -0.7651  0.2046
 2536TIP3   OH229098   0.691   4.980   2.888  0.7081  0.3414  0.4310
 2536TIP3    H129099   0.678   5.073   2.905 -0.0880 -0.1210  2.7729
 2536TIP3    H229100   0.622   4.956   2.826 -0.1771  0.9877  1.1432
 2537TIP3   OH229101   3.117   4.984   2.504  0.1691 -0.1973 -0.2405
 2537TIP3    H129102   3.041   4.963   2.558 -0.8657 -0.9182 -1.9137
 2537TIP3    H229103   3.175   4.908   2.513  1.3512  0.8591  2.0067
 2538TIP3   OH229104   2.793   6.582  11.226  0.2158 -0.9858  0.3971
 2538TIP3    H129105   2.845   6.604  11.303  0.1019 -0.7337  0.4026
 2538TIP3    H229106   2.821   6.494  11.202  1.2624 -0.5337 -0.1022
 2539TIP3   OH229107   2.396   4.986   2.381 -0.1629 -0.0840  0.4492
 2539TIP3    H129108   2.301   4.983   2.365 -0.2357  0.7261  0.6894
 2539TIP3    H229109   2.435   4.975   2.294 -0.4662 -0.5614  0.3653
 2540TIP3   OH229110   1.224   0.017   2.937  0.6328  0.2130  0.3108
 2540TIP3    H129111   1.133   0.048   2.930  0.4563  0.0624  1.6388
 2540TIP3    H229112   1.260   0.069   3.009  1.2194 -0.6027  0.6128
 2541TIP3   OH229113   1.515   1.187  13.823 -0.7402  0.1990  0.2357
 2541TIP3    H129114   1.498   1.195  13.729  1.0679  0.5294 -0.1097
 2541TIP3    H229115   1.553   1.271  13.848  1.9642 -0.9827  0.4707
 2542TIP3   OH229116   3.301   0.915  11.091 -0.2075 -0.0765 -0.2516
 2542TIP3    H129117   3.264   1.004  11.085 -0.1202  0.1183  1.6069
 2542TIP3    H229118   3.260   0.878  11.168  2.4146 -0.3601  1.1104
 2543TIP3   OH229119   1.172   3.230  11.487 -0.6739  0.4274 -0.2720
 2543TIP3    H129120   1.206   3.159  11.541 -2.3636  1.2640  2.0577
 2543TIP3    H229121   1.218   3.308  11.517 -0.8059  0.7458 -0.8637
 2544TIP3   OH229122   1.847   4.146   5.582  0.6519 -0.2277  0.1656
 2544TIP3    H129123   1.755   4.143   5.554  0.5636 -0.4695  0.4746
 2544TIP3    H229124   1.870   4.239   5.578  0.1749 -0.0776  0.7740
 2545TIP3   OH229125   1.130   2.030  14.448 -0.1340 -0.6579  0.1182
 2545TIP3    H129126   1.225   2.034  14.453 -0.1577 -0.5416  0.5987
 2545TIP3    H229127   1.102   2.014  14.539 -0.4571 -3.0720 -0.3247
 2546TIP3   OH229128   4.281   5.956  12.230 -0.3068  0.2696  0.6567
 2546TIP3    H129129   4.308   6.006  12.306  1.5195 -1.7292  1.4439
 2546TIP3    H229130   4.297   6.014  12.156  0.4568  1.3284  1.6102
 2547TIP3   OH229131   6.461   1.274  14.594  0.2114 -0.4921  0.2455
 2547TIP3    H129132   6.534   1.321  14.553 -0.1301 -0.2028 -0.0377
 2547TIP3    H229133   6.387   1.335  14.588  0.0494 -0.6171  0.9089
 2548TIP3   OH229134   1.797   4.011  16.152  0.3051 -0.0004  0.1634
 2548TIP3    H129135   1.887   3.987  16.174  0.7413  1.8383  0.5785
 2548TIP3    H229136   1.785   4.096  16.193 -2.2439 -0.9732  1.6597
 2549TIP3   OH229137   4.883   2.911   3.164 -0.2591 -0.1800 -0.0525
 2549TIP3    H129138   4.827   2.838   3.191  0.9073 -0.9312  0.4164
 2549TIP3    H229139   4.828   2.963   3.106 -1.1533 -1.3678 -0.3080
 2550TIP3   OH229140   6.058   1.758   3.483 -0.7967 -0.3719  0.4205
 2550TIP3    H129141   6.075   1.706   3.561  0.3182  0.4953  0.7798
 2550TIP3    H229142   6.011   1.698   3.424 -1.2613 -1.1625  1.5667
 2551TIP3   OH229143   1.868   3.242  13.190 -0.1185  0.0238  0.1164
 2551TIP3    H129144   1.914   3.198  13.118 -1.1748  3.5070 -3.0075
 2551TIP3    H229145   1.777   3.213  13.182 -0.5508  1.5755 -1.0967
 2552TIP3   OH229146   0.351   1.797   0.738  0.2794 -1.0040 -0.1075
 2552TIP3    H129147   0.416   1.852   0.784  0.4082 -0.7891 -0.5424
 2552TIP3    H229148   0.318   1.853   0.669  1.3321 -1.8810 -1.3654
 2553TIP3   OH229149   4.300   2.987  15.878  0.1965 -0.0762  0.4265
 2553TIP3    H129150   4.270   3.024  15.960 -0.4472 -0.7216  0.4880
 2553TIP3    H229151   4.301   3.061  15.817 -2.0937 -0.1072  0.2608
 2554TIP3   OH229152   2.328   4.092  16.152  0.0187  0.4631  0.4255
 2554TIP3    H129153   2.286   4.163  16.202 -1.1221 -0.3586  0.6786
 2554TIP3    H229154   2.421   4.111  16.157 -0.1828  1.2665  1.5490
 2555TIP3   OH229155   2.942   2.024  14.218  0.4404  0.2744  0.7061
 2555TIP3    H129156   2.947   2.055  14.128 -2.0997  1.2086  0.8265
 2555TIP3    H229157   2.863   1.970  14.221  1.3884 -1.1167  2.0154
 2556TIP3   OH229158   0.882   6.148   5.882  0.2151  0.6846 -0.2368
 2556TIP3    H129159   0.803   6.094   5.887 -0.7515  2.0195 -0.4481
 2556TIP3    H229160   0.906   6.164   5.973  1.3645 -1.2230 -0.1427
 2557TIP3   OH229161   0.499   0.531  14.964  0.1152  0.3597 -0.1013
 2557TIP3    H129162   0.492   0.613  14.915  2.7228 -0.0677 -1.3538
 2557TIP3    H229163   0.516   0.464  14.897 -0.9042 -1.0567  0.9913
 2558TIP3   OH229164   2.888   1.049  16.869  0.5892  0.1570 -0.1816
 2558TIP3    H129165   2.823   0.980  16.851  0.7106 -0.3296  1.1440
 2558TIP3    H229166   2.918   1.076  16.783 -1.6692  0.6902 -0.8830
 2559TIP3   OH229167   1.378   3.438   1.517 -0.3624 -0.4404  0.0425
 2559TIP3    H129168   1.427   3.514   1.487  0.3537 -0.7471  0.4301
 2559TIP3    H229169   1.308   3.428   1.452 -0.9466  1.0140  0.4118
 2560TIP3   OH229170   1.801   2.847   0.537  0.0479 -0.1237  0.0979
 2560TIP3    H129171   1.783   2.781   0.470 -1.4485  0.0824  0.2655
 2560TIP3    H229172   1.796   2.799   0.620  0.9032 -0.1778  0.1257
 2561TIP3   OH229173   4.471   4.294   0.010 -0.4855  0.4861 -0.5031
 2561TIP3    H129174   4.509   4.260  -0.072  0.6731  0.0162  0.1989
 2561TIP3    H229175   4.511   4.380   0.021  1.4829 -0.5495  0.9162
 2562TIP3   OH229176   4.678   3.116  13.775  0.5186 -0.7758 -0.0379
 2562TIP3    H129177   4.660   3.066  13.854  0.6682 -1.3213 -0.3514
 2562TIP3    H229178   4.682   3.207  13.805  0.4488 -0.9673  0.5570
 2563TIP3   OH229179   6.229   3.881   5.917  0.2227  0.4051 -0.1043
 2563TIP3    H129180   6.242   3.855   5.826 -0.0902  0.0727 -0.0605
 2563TIP3    H229181   6.238   3.799   5.967  0.2959  0.5669  0.1516
 2564TIP3   OH229182   5.404   6.108   2.301 -0.5842 -0.2794  0.5172
 2564TIP3    H129183   5.326   6.125   2.355  0.7610  1.8524  1.9731
 2564TIP3    H229184   5.393   6.165   2.225 -0.2205  0.4892  1.0203
 2565TIP3   OH229185   4.061   0.298  13.144 -0.4728 -0.1462  0.1265
 2565TIP3    H129186   4.086   0.346  13.065  1.5385  1.8910  1.8646
 2565TIP3    H229187   3.975   0.260  13.123  0.5882 -0.9172 -3.4811
 2566TIP3   OH229188   0.688   2.315   2.269 -0.4224 -0.4164  0.4505
 2566TIP3    H129189   0.697   2.308   2.174 -1.3146  2.7851  0.0105
 2566TIP3    H229190   0.778   2.312   2.302  0.0031 -0.2263 -0.6344
 2567TIP3   OH229191   4.013   0.717   4.927  0.1242 -0.6262 -0.4238
 2567TIP3    H129192   4.024   0.730   4.833 -1.7459  2.3404 -0.3546
 2567TIP3    H229193   3.921   0.692   4.937  0.0306  0.1029  0.6782
 2568TIP3   OH229194   3.683   1.588  14.189  0.4583  0.2911 -0.0218
 2568TIP3    H129195   3.618   1.526  14.219  0.6097  0.1587  0.0354
 2568TIP3    H229196   3.653   1.616  14.103 -0.6067  1.5558  0.7261
 2569TIP3   OH229197   6.172   2.377  14.765 -0.0811 -0.0070  0.1265
 2569TIP3    H129198   6.100   2.435  14.740  1.4767  2.1568  0.3768
 2569TIP3    H229199   6.196   2.405  14.853  0.2291 -1.5973  0.5715
 2570TIP3   OH229200   0.230   4.019  14.856  0.5080  0.4095  0.0112
 2570TIP3    H129201   0.265   3.932  14.838 -0.9551  0.1022 -1.5491
 2570TIP3    H229202   0.236   4.066  14.773 -0.3197  1.2138  0.3870
 2571TIP3   OH229203   3.360   0.041   2.684 -0.1617 -0.3252  0.5533
 2571TIP3    H129204   3.351   0.125   2.728 -2.1102  0.5199 -1.2934
 2571TIP3    H229205   3.455   0.026   2.680  0.1698  0.8752  2.4598
 2572TIP3   OH229206   2.314   6.438  14.800  0.1841  0.0543 -0.4064
 2572TIP3    H129207   2.349   6.512  14.850  1.2041 -1.0757  0.6338
 2572TIP3    H229208   2.219   6.448  14.805  0.3014  0.8466  0.4248
 2573TIP3   OH229209   4.716   0.741  11.667  0.0112  0.3689 -0.0952
 2573TIP3    H129210   4.686   0.777  11.750  0.9014  1.2889 -0.1537
 2573TIP3    H229211   4.808   0.766  11.662  0.1159 -0.1714 -1.0920
 2574TIP3   OH229212   1.131   4.254   1.204 -0.4200  0.1282  0.4862
 2574TIP3    H129213   1.136   4.175   1.151 -1.2555  0.8331 -0.6883
 2574TIP3    H229214   1.167   4.229   1.289 -0.6119 -1.4752  0.1092
 2575TIP3   OH229215   1.852   4.808   6.345  0.6608  0.0824 -0.5240
 2575TIP3    H129216   1.904   4.868   6.291 -0.0673 -0.1909 -1.5548
 2575TIP3    H229217   1.784   4.776   6.286 -0.9441  0.7425  0.8888
 2576TIP3   OH229218   2.369   3.668   3.970  0.4391 -0.4214  0.1225
 2576TIP3    H129219   2.410   3.600   3.917  2.3970  0.7385  0.0540
 2576TIP3    H229220   2.435   3.690   4.036 -1.1876 -0.4465  1.8336
 2577TIP3   OH229221   0.152   3.261   1.947  0.6503 -0.3061  0.1410
 2577TIP3    H129222   0.222   3.316   1.981  2.1067 -1.0560 -1.4928
 2577TIP3    H229223   0.107   3.317   1.883  1.1962 -0.5067 -0.4342
 2578TIP3   OH229224   5.780   5.739   0.572 -0.9311 -0.6797  0.4918
 2578TIP3    H129225   5.759   5.832   0.572 -0.4000 -0.5441 -0.5040
 2578TIP3    H229226   5.697   5.696   0.551 -0.8129 -0.3027 -0.8447
 2579TIP3   OH229227   0.701   0.480   1.965 -0.1003 -0.5642 -0.0914
 2579TIP3    H129228   0.643   0.511   1.895  1.0022  0.9383 -0.3694
 2579TIP3    H229229   0.645   0.424   2.019 -2.1279  1.5995  0.2181
 2580TIP3   OH229230   6.657   3.915  15.473 -0.7458  0.0719 -0.0966
 2580TIP3    H129231   6.688   3.981  15.535 -0.4625  0.8180 -0.9868
 2580TIP3    H229232   6.629   3.966  15.397 -0.9356 -0.8183 -0.6401
 2581TIP3   OH229233   6.319   5.560  15.681  0.1715 -0.4152  0.4090
 2581TIP3    H129234   6.411   5.557  15.707  0.0680 -1.5621  0.6919
 2581TIP3    H229235   6.293   5.469  15.672 -0.9142 -0.1079  0.2089
 2582TIP3   OH229236   4.776   6.030   4.011  0.4181 -0.0833  0.4108
 2582TIP3    H129237   4.843   6.056   4.074  1.4847 -0.9272 -0.3295
 2582TIP3    H229238   4.733   5.955   4.051  0.7874 -0.3377  0.3354
 2583TIP3   OH229239   5.253   5.217   6.636  0.2524 -0.3620 -0.3892
 2583TIP3    H129240   5.306   5.138   6.648 -1.6925 -1.6241  0.2060
 2583TIP3    H229241   5.251   5.258   6.722  1.4515  0.5103 -0.7482
 2584TIP3   OH229242   5.277   2.684   3.852 -0.5910  0.1068  0.3197
 2584TIP3    H129243   5.344   2.637   3.902 -1.6267 -1.6316  0.1824
 2584TIP3    H229244   5.311   2.688   3.763 -0.2120  0.1628  0.4686
 2585TIP3   OH229245   2.891   6.417   0.774 -0.1766  0.2434 -0.7375
 2585TIP3    H129246   2.963   6.419   0.838  2.1628 -0.6536 -3.1181
 2585TIP3    H229247   2.831   6.351   0.807  0.5606  0.3504  0.9022
 2586TIP3   OH229248   1.206   2.054  13.473  0.5358 -0.3425 -0.0353
 2586TIP3    H129249   1.115   2.080  13.487  0.4407 -1.0383  0.7586
 2586TIP3    H229250   1.253   2.136  13.457 -0.2439  0.0116 -0.5460
 2587TIP3   OH229251   0.470   2.609  10.769  0.2997 -0.0875  0.2788
 2587TIP3    H129252   0.491   2.642  10.682 -1.3762 -1.6103 -0.7657
 2587TIP3    H229253   0.545   2.634  10.823  0.9546  1.7012 -1.3614
 2588TIP3   OH229254   6.557   6.318   0.948 -0.1299  0.0334 -0.5436
 2588TIP3    H129255   6.475   6.355   0.981  0.6311  0.0966  1.4032
 2588TIP3    H229256   6.608   6.394   0.921 -0.1711  0.0964 -0.4461
 2589TIP3   OH229257   1.418   5.213   5.287 -0.2794 -0.3337 -0.2270
 2589TIP3    H129258   1.417   5.233   5.194 -1.5956  0.0621 -0.1410
 2589TIP3    H229259   1.478   5.278   5.325 -0.4751  0.1048 -0.6668
 2590TIP3   OH229260   2.207   3.155   6.402  0.0244 -0.4180  0.0923
 2590TIP3    H129261   2.137   3.218   6.384  0.1543 -0.1511  0.5034
 2590TIP3    H229262   2.162   3.071   6.410  0.0723 -0.7789 -2.6123
 2591TIP3   OH229263   2.198   4.631   2.469  0.2499 -0.2299  0.3823
 2591TIP3    H129264   2.125   4.617   2.529  1.0742  1.1518  1.7943
 2591TIP3    H229265   2.172   4.587   2.388 -2.0102 -0.0101  0.9223
 2592TIP3   OH229266   1.262   4.930   4.219  0.4918  1.0115 -0.2920
 2592TIP3    H129267   1.233   4.851   4.174 -3.1891  2.2042 -0.3022
 2592TIP3    H229268   1.314   4.897   4.292 -2.5338 -1.6495  0.8963
 2593TIP3   OH229269   2.320   5.406   1.121 -0.3974  0.3577 -0.4200
 2593TIP3    H129270   2.349   5.426   1.210 -0.7873  1.3285 -0.4969
 2593TIP3    H229271   2.240   5.456   1.110 -1.1642 -0.9164 -0.8235
 2594TIP3   OH229272   6.044   1.195   5.438  0.0417 -0.2993  0.1416
 2594TIP3    H129273   5.949   1.193   5.428  0.1212 -1.3198 -0.5726
 2594TIP3    H229274   6.059   1.190   5.532 -0.6105 -1.3121  0.2080
 2595TIP3   OH229275   5.383   2.227   2.684 -0.0720  0.1579  0.4897
 2595TIP3    H129276   5.474   2.207   2.702  0.3073 -0.4345 -1.8120
 2595TIP3    H229277   5.377   2.322   2.692  0.6128  0.1606  1.0933
 2596TIP3   OH229278   3.073   5.527  11.055  0.1544 -0.1425 -0.3837
 2596TIP3    H129279   2.992   5.510  11.006 -1.5301  2.2430  1.3336
 2596TIP3    H229280   3.142   5.522  10.989 -1.3880 -1.9759 -1.9862
 2597TIP3   OH229281   5.547   0.400  16.573 -0.2625 -0.1531 -0.2313
 2597TIP3    H129282   5.461   0.397  16.616 -0.1226  1.7432  0.2530
 2597TIP3    H229283   5.527   0.402  16.479 -0.7042 -0.5698 -0.1495
 2598TIP3   OH229284   4.012   5.201  15.330  0.3188 -0.3693 -0.1734
 2598TIP3    H129285   3.982   5.214  15.420  1.3645 -0.4948  0.2053
 2598TIP3    H229286   4.012   5.106  15.318  2.2895 -0.4884  0.4636
 2599TIP3   OH229287   6.713   4.737   1.712 -0.0681 -0.3659  0.4820
 2599TIP3    H129288   6.623   4.760   1.734 -0.0691 -0.1077  0.2155
 2599TIP3    H229289   6.767   4.794   1.767 -0.0690 -0.1514  0.2606
 2600TIP3   OH229290   6.264   2.044  13.346 -0.3311 -0.1672 -0.1332
 2600TIP3    H129291   6.273   1.987  13.269  0.3935  0.1023 -0.2479
 2600TIP3    H229292   6.264   2.133  13.310  0.6843 -0.0073  0.2276
 2601TIP3   OH229293   3.786   0.116  10.017  0.8688  0.4905  0.0843
 2601TIP3    H129294   3.705   0.075  10.047  0.7331  1.2743  0.8472
 2601TIP3    H229295   3.757   0.183   9.955  1.1899 -1.5919 -2.4727
 2602TIP3   OH229296   3.019   1.267   4.498 -0.2946 -0.5620 -0.5318
 2602TIP3    H129297   2.927   1.291   4.512 -0.1034  0.1999 -0.5294
 2602TIP3    H229298   3.033   1.192   4.555 -0.8440 -0.5112 -0.3250
 2603TIP3   OH229299   2.189   1.185  12.286 -0.0271  0.0489  0.3343
 2603TIP3    H129300   2.105   1.154  12.253  0.0634  1.7881 -1.7345
 2603TIP3    H229301   2.248   1.110  12.274 -0.9956 -0.7949  0.7190
 2604TIP3   OH229302   1.131   0.201   4.431 -0.1587 -0.4213  0.6233
 2604TIP3    H129303   1.168   0.285   4.405 -0.7323 -0.4849 -0.4449
 2604TIP3    H229304   1.047   0.196   4.386  0.3445 -2.0316 -0.2396
 2605TIP3   OH229305   6.654   2.246  16.366 -0.4863 -0.0709 -0.5861
 2605TIP3    H129306   6.677   2.165  16.412  1.3091  2.1800  2.9440
 2605TIP3    H229307   6.581   2.282  16.416 -0.5795  0.9884 -1.4518
 2606TIP3   OH229308   4.738   5.680  16.925  0.4140 -0.1598  0.5402
 2606TIP3    H129309   4.737   5.756  16.867 -1.5801 -0.3002  0.3052
 2606TIP3    H229310   4.689   5.708  17.002 -2.3002 -1.7491 -0.4389
 2607TIP3   OH229311   3.703   3.681   2.677 -0.0718 -0.3678 -0.1497
 2607TIP3    H129312   3.790   3.652   2.703  0.2865 -1.6988 -2.5292
 2607TIP3    H229313   3.718   3.740   2.603 -1.1725  0.1742  0.0328
 2608TIP3   OH229314   3.314   0.160   4.015 -0.3524  0.0319 -0.1802
 2608TIP3    H129315   3.266   0.243   4.023 -0.7375 -0.3020  1.1792
 2608TIP3    H229316   3.347   0.142   4.103  0.8671 -0.6032 -0.7421
 2609TIP3   OH229317   5.732   6.099   0.023 -0.0235 -0.0436 -0.2669
 2609TIP3    H129318   5.823   6.072   0.011  0.3363  1.3907 -0.9412
 2609TIP3    H229319   5.717   6.092   0.118  0.6928 -0.5488 -0.1852
 2610TIP3   OH229320   3.992   2.838   0.269  0.5638  0.3740 -0.1292
 2610TIP3    H129321   3.916   2.793   0.232 -0.3424  1.5586  0.2429
 2610TIP3    H229322   3.959   2.924   0.295  1.3199 -0.0769  2.7081
 2611TIP3   OH229323   1.682   3.125  15.832 -0.0415  0.1186 -0.6662
 2611TIP3    H129324   1.667   3.182  15.907 -1.5787 -1.4108  0.2598
 2611TIP3    H229325   1.735   3.053  15.866 -0.9759 -0.7279 -0.9488
 2612TIP3   OH229326   2.520   6.760  14.292 -0.0971  0.0833 -0.2007
 2612TIP3    H129327   2.474   6.695  14.346 -0.0864 -0.2847 -0.6273
 2612TIP3    H229328   2.470   6.840  14.303  0.6835  0.3961  1.4624
 2613TIP3   OH229329   0.954   2.136  12.177  0.1137 -0.0964 -0.2777
 2613TIP3    H129330   0.949   2.201  12.106  1.8919 -0.1177 -0.4606
 2613TIP3    H229331   0.867   2.140  12.218 -0.2858  1.3936 -1.1574
 2614TIP3   OH229332   5.162   1.498   3.276 -0.5679 -0.3745 -0.4301
 2614TIP3    H129333   5.088   1.535   3.324 -1.7453 -1.7590 -1.0845
 2614TIP3    H229334   5.175   1.558   3.203  0.2841  0.9534  0.7858
 2615TIP3   OH229335   1.107   0.313  16.275  0.3901  0.4712 -0.3146
 2615TIP3    H129336   1.166   0.239  16.258  0.4997  0.7142 -1.0101
 2615TIP3    H229337   1.031   0.273  16.318  1.7881  0.3837  2.2159
 2616TIP3   OH229338   5.803   2.164   0.433  0.9130 -0.4439 -0.3159
 2616TIP3    H129339   5.710   2.181   0.449  1.5920  2.9780  1.0081
 2616TIP3    H229340   5.828   2.100   0.500 -0.5679 -1.9047 -1.1083
 2617TIP3   OH229341   6.318   0.868   2.240  0.4159  0.2193 -0.3019
 2617TIP3    H129342   6.242   0.907   2.196 -0.7330 -0.8946  0.6002
 2617TIP3    H229343   6.305   0.774   2.229  1.6727  0.0098 -0.0938
 2618TIP3   OH229344   2.637   4.386  11.030  0.1526 -0.7801  0.8095
 2618TIP3    H129345   2.654   4.306  10.978 -0.0112 -0.8503  0.8631
 2618TIP3    H229346   2.682   4.455  10.982 -0.0389 -0.8359  0.5413
 2619TIP3   OH229347   4.977   0.216   4.747 -0.0588 -0.0182 -0.2104
 2619TIP3    H129348   4.996   0.170   4.829 -2.1736 -0.8340 -0.1116
 2619TIP3    H229349   5.059   0.213   4.698  1.6897  1.6792  2.3608
 2620TIP3   OH229350   4.396   3.337  16.072 -0.5752 -0.0992  0.6314
 2620TIP3    H129351   4.324   3.276  16.055 -0.6098  0.2262 -0.4385
 2620TIP3    H229352   4.368   3.384  16.151 -2.2647  1.0654 -0.5888
 2621TIP3   OH229353   4.005   5.462   0.828  0.1611 -0.3022  0.2827
 2621TIP3    H129354   4.084   5.514   0.819  1.0465 -1.7360 -0.4976
 2621TIP3    H229355   4.022   5.402   0.901  0.3510 -1.5143 -0.7170
 2622TIP3   OH229356   6.138   0.998   3.629  0.4183  0.3952  0.0918
 2622TIP3    H129357   6.169   0.911   3.654 -1.0897  0.7688  4.1164
 2622TIP3    H229358   6.214   1.055   3.640  0.4195  0.1285  1.8127
 2623TIP3   OH229359   6.525   4.451   3.271  0.0964 -0.1607 -0.3106
 2623TIP3    H129360   6.602   4.503   3.292  1.9490 -1.9574 -2.2580
 2623TIP3    H229361   6.458   4.516   3.249  1.9106  1.4302 -1.3997
 2624TIP3   OH229362   4.090   3.846   4.473 -0.4142 -0.5955  0.0798
 2624TIP3    H129363   4.172   3.799   4.490  0.2410  0.4746 -0.0609
 2624TIP3    H229364   4.085   3.912   4.542 -1.1273 -0.6010  0.0397
 2625TIP3   OH229365   0.810   6.268  17.258  0.2283  0.0151 -0.3932
 2625TIP3    H129366   0.887   6.216  17.237  1.6783  2.0398 -0.3186
 2625TIP3    H229367   0.837   6.359  17.246 -2.0846  0.8165 -0.1371
 2626TIP3   OH229368   5.232   5.197  16.102  0.2847  0.0132 -0.1687
 2626TIP3    H129369   5.242   5.292  16.104 -3.0036  0.4821  2.2336
 2626TIP3    H229370   5.141   5.183  16.075 -0.2898 -2.2062  2.4418
 2627TIP3   OH229371   3.212   0.195   0.647  0.3935 -0.1742 -0.0167
 2627TIP3    H129372   3.162   0.121   0.614 -0.1325  1.0386 -2.0965
 2627TIP3    H229373   3.195   0.266   0.584 -1.4213  2.6487  3.2598
 2628TIP3   OH229374   4.650   4.869  14.716 -0.3163  0.5264  0.0439
 2628TIP3    H129375   4.696   4.810  14.656  0.6119  0.4974  0.7598
 2628TIP3    H229376   4.643   4.820  14.798  1.5232  1.7667  1.0289
 2629TIP3   OH229377   1.470   5.889  13.197  0.3762  0.1765  0.1235
 2629TIP3    H129378   1.564   5.870  13.190 -0.0672 -2.0610 -0.7331
 2629TIP3    H229379   1.429   5.803  13.206 -1.7540  0.9136 -1.6295
 2630TIP3   OH229380   0.506   6.438   3.287  0.1782  0.7061  0.0533
 2630TIP3    H129381   0.580   6.433   3.226  0.7350 -0.0503  0.7632
 2630TIP3    H229382   0.519   6.520   3.334  0.4809  0.6542  0.0651
 2631TIP3   OH229383   1.554   2.241  13.272 -0.2726  0.2884 -0.2519
 2631TIP3    H129384   1.510   2.202  13.196  1.7048  0.4562 -1.5475
 2631TIP3    H229385   1.533   2.335  13.266  0.1570  0.3521 -0.7931
 2632TIP3   OH229386   4.807   5.675   4.096  1.0418  0.0252  0.3440
 2632TIP3    H129387   4.851   5.695   4.179 -1.1754  0.5440  1.4925
 2632TIP3    H229388   4.723   5.637   4.123 -1.2046  3.2491 -1.5023
 2633TIP3   OH229389   5.561   3.667  14.151 -0.2264  0.4053 -0.1848
 2633TIP3    H129390   5.630   3.636  14.093 -1.9694 -1.1308 -1.5709
 2633TIP3    H229391   5.483   3.618  14.124 -1.5002  0.8152  2.4144
 2634TIP3   OH229392   1.377   2.582   4.334  0.3961  0.0410  0.0873
 2634TIP3    H129393   1.385   2.503   4.281  0.4173  1.2959 -1.8750
 2634TIP3    H229394   1.455   2.633   4.313 -0.6874  1.5591 -0.4474
 2635TIP3   OH229395   5.493   3.394   0.753  0.0670  0.1594 -0.3055
 2635TIP3    H129396   5.479   3.304   0.784  0.7913  0.6901  1.7309
 2635TIP3    H229397   5.550   3.433   0.819  0.7801  1.7610 -1.8106
 2636TIP3   OH229398   2.452   5.386  12.237  0.4404  0.4546 -0.0084
 2636TIP3    H129399   2.424   5.295  12.225  2.6312 -0.7201  2.7545
 2636TIP3    H229400   2.381   5.437  12.197 -0.7274 -2.3884 -1.9826
 2637TIP3   OH229401   6.008   6.196   2.062  0.3378  0.1420 -0.0074
 2637TIP3    H129402   6.073   6.233   2.123  0.5314  0.2178 -0.2572
 2637TIP3    H229403   6.013   6.102   2.077  0.1965  0.1774  0.2804
 2638TIP3   OH229404   3.149   3.511   1.183 -0.4351  0.5255 -0.0209
 2638TIP3    H129405   3.082   3.577   1.164 -0.1261  1.1596  1.0394
 2638TIP3    H229406   3.175   3.528   1.273  1.5748  0.6531 -0.5925
 2639TIP3   OH229407   2.468   2.193  13.488 -0.1881  0.4716  0.3104
 2639TIP3    H129408   2.563   2.205  13.490 -0.1517  0.1749  2.0207
 2639TIP3    H229409   2.436   2.265  13.434  1.0025  0.5480 -0.3339
 2640TIP3   OH229410   5.138   4.720  16.660 -0.0570  0.2622  0.1431
 2640TIP3    H129411   5.186   4.798  16.634 -0.6633  0.5059 -0.2459
 2640TIP3    H229412   5.051   4.731  16.622 -0.6375  0.1343  1.3964
 2641TIP3   OH229413   6.468   2.927   4.961 -0.0908 -0.8471 -0.3311
 2641TIP3    H129414   6.511   2.849   4.998  2.7851  0.6924 -0.1265
 2641TIP3    H229415   6.476   2.915   4.866  1.3389 -0.3885 -0.3033
 2642TIP3   OH229416   0.832   2.121   4.038  0.1158  0.0465  0.2047
 2642TIP3    H129417   0.862   2.045   4.088 -1.5035 -0.3493  0.6538
 2642TIP3    H229418   0.807   2.185   4.104  1.4345  0.9880 -0.1709
 2643TIP3   OH229419   0.283   0.452   5.516  0.2281  0.7437 -0.1119
 2643TIP3    H129420   0.240   0.521   5.465  0.3474  0.8922 -0.0117
 2643TIP3    H229421   0.211   0.407   5.560  0.2385  1.5912  0.8072
 2644TIP3   OH229422   1.230   2.537   2.799 -0.3731 -0.1186  0.0451
 2644TIP3    H129423   1.156   2.591   2.827 -1.3271 -0.2253 -2.1025
 2644TIP3    H229424   1.254   2.488   2.878 -0.2928  2.4188  1.7334
 2645TIP3   OH229425   5.956   0.511  13.265  0.2884 -0.2744 -0.1897
 2645TIP3    H129426   5.875   0.461  13.260 -0.4284  0.8888 -0.3721
 2645TIP3    H229427   6.025   0.447  13.245 -0.8263 -0.4920 -4.3452
 2646TIP3   OH229428   6.248   6.719   6.443  0.2025 -0.5172 -0.3605
 2646TIP3    H129429   6.235   6.698   6.536 -1.9489 -0.0068 -0.4838
 2646TIP3    H229430   6.284   6.808   6.443  0.1187 -0.4827 -0.0220
 2647TIP3   OH229431   4.442   5.675  15.086 -0.2389 -0.4663 -0.3567
 2647TIP3    H129432   4.431   5.732  15.162  0.3203 -0.5695 -0.1946
 2647TIP3    H229433   4.353   5.656  15.057 -0.4690 -0.6474  0.4456
 2648TIP3   OH229434   1.730   0.902   4.353  0.0898 -0.0205  0.1556
 2648TIP3    H129435   1.720   0.994   4.378 -0.9533  0.2142 -1.0071
 2648TIP3    H229436   1.711   0.854   4.433 -1.4404  0.7416  0.2977
 2649TIP3   OH229437   2.998   2.449   4.123  0.2817  0.2109  0.4673
 2649TIP3    H129438   2.986   2.543   4.127  0.1140  0.2016  0.1849
 2649TIP3    H229439   2.914   2.415   4.092  0.7144  0.0712 -0.5983
 2650TIP3   OH229440   0.265   1.932   3.367 -0.5439  0.2107  0.5353
 2650TIP3    H129441   0.195   1.890   3.418 -1.6815  1.2586 -0.1003
 2650TIP3    H229442   0.331   1.956   3.433 -1.7374  1.0514  1.4854
 2651TIP3   OH229443   6.499   0.410  12.898  0.5930  0.2507 -0.4209
 2651TIP3    H129444   6.472   0.444  12.984  3.4663 -1.5873  1.3751
 2651TIP3    H229445   6.573   0.465  12.873 -0.8886  1.4943 -2.4017
 2652TIP3   OH229446   4.414   6.586   4.650  0.9080  0.6295 -0.7416
 2652TIP3    H129447   4.503   6.552   4.647  0.5122 -0.9450  1.7583
 2652TIP3    H229448   4.419   6.664   4.705  0.9783  1.5170 -1.9859
 2653TIP3   OH229449   1.670   4.880   4.370  0.4997 -0.4577 -0.0504
 2653TIP3    H129450   1.593   4.823   4.375 -0.0960 -0.0144 -2.6014
 2653TIP3    H229451   1.739   4.822   4.337 -0.0458  0.1424 -2.4163
 2654TIP3   OH229452   6.703   0.892   5.487  0.3968  0.0352 -0.3134
 2654TIP3    H129453   6.693   0.980   5.524 -0.3286 -0.8607  1.8019
 2654TIP3    H229454   6.620   0.849   5.506  1.7005 -1.9767  1.3341
 2655TIP3   OH229455   3.376   0.714   0.319  0.3785 -0.0224  0.5683
 2655TIP3    H129456   3.429   0.759   0.384  0.3709  0.8243  0.0022
 2655TIP3    H229457   3.286   0.738   0.340  0.3428 -0.1041  0.5124
 2656TIP3   OH229458   5.856   3.739   2.768  0.0185 -0.1946  0.1978
 2656TIP3    H129459   5.786   3.712   2.828  0.7563 -1.8257  0.3768
 2656TIP3    H229460   5.844   3.834   2.759 -2.8069 -0.5097 -0.5119
 2657TIP3   OH229461   0.480   2.531   4.596  0.5350 -0.5890  0.1455
 2657TIP3    H129462   0.443   2.534   4.508 -0.9916 -1.1471  0.7312
 2657TIP3    H229463   0.537   2.608   4.601  0.1808 -0.2220 -1.1152
 2658TIP3   OH229464   6.509   2.386  15.040  0.4080  0.6247  0.9815
 2658TIP3    H129465   6.577   2.371  14.974 -0.0536  2.0980  0.1315
 2658TIP3    H229466   6.476   2.298  15.060  0.6667  0.1153 -0.6472
 2659TIP3   OH229467   6.539   0.673  16.719 -0.2690  0.2035  0.3699
 2659TIP3    H129468   6.456   0.714  16.738 -0.4857  0.9282 -1.8311
 2659TIP3    H229469   6.602   0.717  16.776 -0.9748  1.5128  0.1600
 2660TIP3   OH229470   2.824   2.415  15.248 -0.0177  0.3528  0.3086
 2660TIP3    H129471   2.769   2.430  15.325  1.9564  2.0411  1.4667
 2660TIP3    H229472   2.812   2.494  15.195  2.3866  1.4883  1.3361
 2661TIP3   OH229473   2.292   2.489  12.701  0.8095 -0.5612  0.3170
 2661TIP3    H129474   2.340   2.433  12.761  0.8041 -0.7004  0.1916
 2661TIP3    H229475   2.201   2.461  12.710  0.9329 -1.2452 -0.4742
 2662TIP3   OH229476   5.715   6.144  11.338 -0.0706 -0.6964 -0.3331
 2662TIP3    H129477   5.738   6.237  11.326 -0.9287 -0.2064  1.4175
 2662TIP3    H229478   5.787   6.108  11.389  0.3088 -1.0252 -1.0946
 2663TIP3   OH229479   1.880   1.114   1.677 -0.1379 -0.6142 -0.6587
 2663TIP3    H129480   1.818   1.107   1.750 -0.5982 -0.8132 -1.0601
 2663TIP3    H229481   1.899   1.023   1.653  2.5125 -0.6688  1.2576
 2664TIP3   OH229482   3.594   3.089  13.682  0.4657 -0.0044 -0.2967
 2664TIP3    H129483   3.681   3.083  13.644  0.4736  0.3800 -0.3459
 2664TIP3    H229484   3.562   3.175  13.655  0.4901  0.3049  0.5990
 2665TIP3   OH229485   6.073   4.561  11.834  0.1669  0.0715 -0.6749
 2665TIP3    H129486   6.061   4.656  11.831  0.2236  0.0728 -0.8426
 2665TIP3    H229487   6.161   4.546  11.798  0.1148 -0.0534 -0.7522
 2666TIP3   OH229488   6.418   6.483  10.539 -0.0675  0.6208 -0.5265
 2666TIP3    H129489   6.430   6.555  10.600 -0.9314  0.9316 -0.7020
 2666TIP3    H229490   6.446   6.405  10.587 -0.8887  0.8372  0.3380
 2667TIP3   OH229491   0.155   0.434  13.016 -0.9612 -0.8144 -0.2299
 2667TIP3    H129492   0.160   0.477  13.101 -0.3083 -0.8363 -0.2526
 2667TIP3    H229493   0.062   0.424  13.000 -1.1069 -2.1642  1.1813
 2668TIP3   OH229494   5.279   2.324  15.833 -0.3379  0.5834  0.2273
 2668TIP3    H129495   5.253   2.337  15.742  0.6461  2.4323  0.1522
 2668TIP3    H229496   5.204   2.283  15.874 -0.3616 -1.4215 -1.6526
 2669TIP3   OH229497   2.306   2.155  11.183  0.0474  0.0378  0.6402
 2669TIP3    H129498   2.239   2.126  11.245 -0.4683 -2.9122 -1.0952
 2669TIP3    H229499   2.384   2.105  11.206 -0.5450 -2.2557 -1.7703
 2670TIP3   OH229500   0.001   0.039  11.303 -0.5046  0.1725  0.2802
 2670TIP3    H129501  -0.021   0.111  11.244 -0.4027 -0.1688 -0.1830
 2670TIP3    H229502   0.083   0.066  11.344  0.2654 -0.2724 -0.9188
 2671TIP3   OH229503   1.147   4.663  15.765 -0.0102 -0.6935 -0.0343
 2671TIP3    H129504   1.220   4.700  15.814 -0.1608 -0.6629  0.1649
 2671TIP3    H229505   1.086   4.632  15.831  0.4391 -1.9688 -0.1843
 2672TIP3   OH229506   5.028   5.746  14.379 -0.2667  0.1153 -0.1016
 2672TIP3    H129507   4.965   5.806  14.420  1.4749  2.5386 -0.6978
 2672TIP3    H229508   5.022   5.766  14.286  0.0891 -0.9404 -0.3569
 2673TIP3   OH229509   6.733   0.974   3.497  0.1639 -0.3140  0.2388
 2673TIP3    H129510   6.823   0.953   3.519 -0.1202 -2.2768 -0.2967
 2673TIP3    H229511   6.722   0.942   3.408 -0.9370  0.3524  0.1131
 2674TIP3   OH229512   0.869   5.239  13.791  0.2202 -0.0065  0.0060
 2674TIP3    H129513   0.805   5.294  13.837 -1.0274 -0.6399 -0.9067
 2674TIP3    H229514   0.953   5.265  13.827 -0.4433  1.6527  0.4577
 2675TIP3   OH229515   1.983   4.151   5.292 -0.3829  0.5486 -0.0056
 2675TIP3    H129516   1.887   4.149   5.296 -0.3771  2.0625  2.0463
 2675TIP3    H229517   2.002   4.185   5.204 -1.7711  2.0140  0.2247
 2676TIP3   OH229518   4.555   4.365  12.944 -0.0576  0.0167 -0.4339
 2676TIP3    H129519   4.473   4.317  12.933 -0.4444  0.6478 -0.4011
 2676TIP3    H229520   4.582   4.388  12.855  0.5185 -0.8838 -0.5000
 2677TIP3   OH229521   0.476   3.724  13.875 -0.1143 -0.3500  0.0909
 2677TIP3    H129522   0.542   3.764  13.819 -0.9191  1.7617  0.5559
 2677TIP3    H229523   0.416   3.681  13.813 -0.1235  0.5813 -0.5666
 2678TIP3   OH229524   2.996   2.992   5.938  0.2021 -0.0123  0.4965
 2678TIP3    H129525   2.987   2.917   5.879 -0.2810  0.4207  0.0018
 2678TIP3    H229526   2.914   3.040   5.928  0.7192  0.8841  0.3675
 2679TIP3   OH229527   5.350   2.329  12.377 -0.0873  0.0829  0.1259
 2679TIP3    H129528   5.368   2.386  12.302 -0.0476  1.3587  1.0726
 2679TIP3    H229529   5.408   2.254  12.364 -0.4026  0.0589 -1.3372
 2680TIP3   OH229530   2.412   6.263  14.025 -0.5461  0.1239  0.0903
 2680TIP3    H129531   2.495   6.296  13.990  0.0836  0.1785  1.5383
 2680TIP3    H229532   2.370   6.340  14.064 -0.6287 -0.1541  0.5602
 2681TIP3   OH229533   0.531   3.711   5.617  0.2088 -0.1835  0.3381
 2681TIP3    H129534   0.476   3.662   5.556 -0.0295  0.6343 -0.1083
 2681TIP3    H229535   0.561   3.645   5.680 -0.4627 -0.8236  0.0011
 2682TIP3   OH229536   5.878   1.072   3.009 -0.4370 -0.2478 -0.3170
 2682TIP3    H129537   5.907   1.027   3.089 -0.7702 -1.9694 -1.1156
 2682TIP3    H229538   5.858   1.001   2.948  0.0580  1.0274 -2.0355
 2683TIP3   OH229539   3.700   2.295  17.224  0.0850 -0.0953  0.7734
 2683TIP3    H129540   3.651   2.303  17.306  0.9558 -2.9280  1.6885
 2683TIP3    H229541   3.790   2.279  17.252  0.5849 -0.0711 -0.7617
 2684TIP3   OH229542   5.880   6.527  14.819  0.3284 -0.4279 -0.1963
 2684TIP3    H129543   5.839   6.594  14.873  1.6163  0.7363 -0.6055
 2684TIP3    H229544   5.844   6.444  14.851 -0.4696  0.3840  1.0557
 2685TIP3   OH229545   4.129   0.575   3.859 -0.4042  0.0136 -0.2975
 2685TIP3    H129546   4.157   0.499   3.909  0.0033  0.3365 -0.0232
 2685TIP3    H229547   4.189   0.645   3.886 -0.7831  0.4361 -0.5281
 2686TIP3   OH229548   6.029   2.920  12.915  0.3205  0.7661  0.8770
 2686TIP3    H129549   5.957   2.980  12.897  0.5096  1.0760  1.1421
 2686TIP3    H229550   6.104   2.959  12.870 -0.4537 -1.5333 -2.7401
 2687TIP3   OH229551   0.763   3.842   6.713  0.3319 -0.3061  0.1519
 2687TIP3    H129552   0.734   3.900   6.783 -0.6959 -2.0507  1.2467
 2687TIP3    H229553   0.858   3.856   6.709  0.4348 -0.1752  1.9459
 2688TIP3   OH229554   2.135   6.428   6.210  0.1138 -0.5067 -0.0282
 2688TIP3    H129555   2.122   6.447   6.303  0.8061 -2.1894  0.4524
 2688TIP3    H229556   2.064   6.475   6.166  0.0710  0.7256  1.2881
 2689TIP3   OH229557   6.417   3.368   3.062 -0.4907  0.1124 -0.2735
 2689TIP3    H129558   6.405   3.443   3.004 -0.5087  0.7652  0.5668
 2689TIP3    H229559   6.393   3.292   3.008  1.6619  0.4793 -1.8441
 2690TIP3   OH229560   5.367   4.049   1.685 -0.0247 -0.3354 -0.5368
 2690TIP3    H129561   5.406   4.128   1.648 -2.2259  1.5356  0.9041
 2690TIP3    H229562   5.438   4.010   1.737  0.7082  1.4966 -0.0889
 2691TIP3   OH229563   1.313   6.364   1.549  0.5845  0.0568  0.4128
 2691TIP3    H129564   1.284   6.456   1.546  3.6755  1.2537  2.1474
 2691TIP3    H229565   1.396   6.364   1.503  1.2928 -1.5828  1.6156
 2692TIP3   OH229566   0.286   5.975   4.745  0.5270  0.0922  0.1886
 2692TIP3    H129567   0.326   5.896   4.783 -3.4129 -1.4653  1.6274
 2692TIP3    H229568   0.282   6.037   4.817  2.5315  1.2950 -0.6419
 2693TIP3   OH229569   2.232   4.963  14.889  0.3971 -0.1456  0.1868
 2693TIP3    H129570   2.260   4.909  14.962 -1.6376  0.4458  1.4812
 2693TIP3    H229571   2.271   5.049  14.905 -1.8384  0.6433  1.9192
 2694TIP3   OH229572   3.870   5.801   4.048  0.1096  0.2996  0.2856
 2694TIP3    H129573   3.884   5.743   4.123  1.5813  0.0032 -0.1922
 2694TIP3    H229574   3.948   5.856   4.045 -0.6695  1.4201 -0.0726
 2695TIP3   OH229575   5.264   4.282   3.908  0.2897 -0.1313 -0.5376
 2695TIP3    H129576   5.241   4.205   3.856  0.4240  1.9563 -4.0155
 2695TIP3    H229577   5.353   4.265   3.938 -0.5290 -2.2823  0.8978
 2696TIP3   OH229578   0.437   1.817   1.703 -0.1216 -0.0333 -0.0524
 2696TIP3    H129579   0.382   1.892   1.723 -1.4636 -1.4993  2.3159
 2696TIP3    H229580   0.378   1.753   1.663  0.3409 -0.7999  0.4464
 2697TIP3   OH229581   5.596   4.681   0.145 -0.1783  0.0348 -0.5022
 2697TIP3    H129582   5.689   4.684   0.167 -0.2615  0.5917 -0.2022
 2697TIP3    H229583   5.591   4.709   0.054  0.1199 -1.7907 -1.1173
 2698TIP3   OH229584   4.741   5.110   3.095 -0.4033 -0.1859 -0.7446
 2698TIP3    H129585   4.739   5.021   3.131 -1.9230 -0.2911 -1.0231
 2698TIP3    H229586   4.737   5.098   3.001 -2.3513  0.1754 -0.7442
 2699TIP3   OH229587   1.861   1.492  12.859 -0.3156 -0.4972  0.1220
 2699TIP3    H129588   1.917   1.559  12.899 -0.1635 -0.2730 -0.4592
 2699TIP3    H229589   1.775   1.532  12.856 -0.8124 -1.2692  2.1006
 2700TIP3   OH229590   5.178   6.196  12.791  0.0243  0.2380  0.2034
 2700TIP3    H129591   5.159   6.244  12.871 -0.7439  1.3087 -0.5914
 2700TIP3    H229592   5.236   6.254  12.742 -2.4355  1.3602 -1.6316
 2701TIP3   OH229593   2.024   0.284   5.000 -0.6288 -0.6498 -0.0392
 2701TIP3    H129594   2.085   0.244   4.937  0.7853  0.3494  0.6226
 2701TIP3    H229595   1.997   0.365   4.958  0.4003  0.0715  0.6368
 2702TIP3   OH229596   2.535   2.685  14.981  0.2225  0.2750  0.7098
 2702TIP3    H129597   2.500   2.735  15.055 -2.0118 -0.4114  0.1895
 2702TIP3    H229598   2.591   2.748  14.935 -0.4421  1.5079  1.5144
 2703TIP3   OH229599   5.329   6.050  15.124 -0.0194 -0.0461  0.0808
 2703TIP3    H129600   5.269   5.980  15.148 -0.3148  0.1036 -0.2027
 2703TIP3    H229601   5.303   6.074  15.035 -1.0695  1.5975  0.7707
 2704TIP3   OH229602   1.438   1.555  17.215  0.6727  0.1349 -0.5271
 2704TIP3    H129603   1.350   1.592  17.215  0.8349  0.5611  0.8863
 2704TIP3    H229604   1.434   1.484  17.150 -1.4177 -1.4399  1.1933
 2705TIP3   OH229605   5.703   6.795   4.637 -0.3643 -0.2268  0.0440
 2705TIP3    H129606   5.731   6.803   4.545  0.0524 -0.3303  0.1614
 2705TIP3    H229607   5.608   6.812   4.634 -0.6980 -1.9635 -0.6574
 2706TIP3   OH229608   3.439   5.963  14.620 -0.1468  0.4766  0.5696
 2706TIP3    H129609   3.505   5.965  14.689 -0.4548  0.7809  0.8586
 2706TIP3    H229610   3.417   6.055  14.605 -0.9344  0.3569  0.8992
 2707TIP3   OH229611   4.572   6.528  15.108 -0.9219 -0.0033  0.1024
 2707TIP3    H129612   4.504   6.478  15.153  0.1174 -1.6247 -0.0662
 2707TIP3    H229613   4.649   6.472  15.111  0.1710  1.4037 -0.5267
 2708TIP3   OH229614   3.045   6.490  11.955  0.6245 -0.2730 -0.1191
 2708TIP3    H129615   3.088   6.493  11.869 -2.7725  0.0801 -1.9531
 2708TIP3    H229616   3.093   6.554  12.007  1.7278  0.8075 -2.2998
 2709TIP3   OH229617   0.372   2.168  13.325  0.5115  0.0413  0.1455
 2709TIP3    H129618   0.298   2.217  13.289 -0.1515 -0.6406  0.5536
 2709TIP3    H229619   0.446   2.192  13.268 -0.0709  0.5265 -0.4304
 2710TIP3   OH229620   1.484   1.115  13.058 -0.4465  0.0594 -0.7706
 2710TIP3    H129621   1.454   1.206  13.051 -0.7932 -0.1150 -1.6728
 2710TIP3    H229622   1.546   1.104  12.986  1.6535  0.3188  0.8962
 2711TIP3   OH229623   3.816   4.924  15.742  0.2316 -0.2310  0.0715
 2711TIP3    H129624   3.871   4.853  15.711  0.7090  0.3941 -0.5463
 2711TIP3    H229625   3.844   4.938  15.833 -0.1707 -1.1070  0.3428
 2712TIP3   OH229626   3.046   3.861  16.848  0.3548 -0.6526 -0.1699
 2712TIP3    H129627   3.086   3.902  16.925 -1.0769  1.6530 -0.5525
 2712TIP3    H229628   2.973   3.919  16.826 -0.1267 -2.0204 -2.4440
 2713TIP3   OH229629   6.224   2.492   5.997 -0.1512  0.4297 -0.3439
 2713TIP3    H129630   6.257   2.490   5.907  3.0450 -2.8274  0.6427
 2713TIP3    H229631   6.291   2.540   6.046 -0.9659  0.6538  0.5909
 2714TIP3   OH229632   4.233   6.596  12.024  0.1925  0.3932 -0.2474
 2714TIP3    H129633   4.274   6.665  12.076  0.4373  0.1489 -0.1169
 2714TIP3    H229634   4.298   6.575  11.956  0.7986 -0.8463  0.6863
 2715TIP3   OH229635   2.239   1.909  12.111 -0.2646  0.6703  0.7119
 2715TIP3    H129636   2.162   1.935  12.162  1.0673  1.0686  2.6494
 2715TIP3    H229637   2.228   1.953  12.027 -2.0333  0.8813  1.0208
 2716TIP3   OH229638   1.616   0.092  14.890 -0.1235 -0.3916  0.5492
 2716TIP3    H129639   1.627  -0.002  14.904 -1.0513 -0.7331 -0.8370
 2716TIP3    H229640   1.533   0.113  14.933  0.0570 -0.2080  0.8122
 2717TIP3   OH229641   4.760   6.029  12.183  0.1849  0.0901  0.3621
 2717TIP3    H129642   4.853   6.038  12.165  0.5154  0.6292  2.1480
 2717TIP3    H229643   4.750   6.056  12.274 -1.0838 -3.7335  1.5650
 2718TIP3   OH229644   3.333   5.738   5.822 -0.5137 -0.0722 -0.2646
 2718TIP3    H129645   3.265   5.757   5.758 -1.3088 -3.8421 -0.7436
 2718TIP3    H229646   3.400   5.691   5.773  0.4942 -0.0253  1.0183
 2719TIP3   OH229647   4.326   4.593   2.589 -0.1614 -0.5125  0.2687
 2719TIP3    H129648   4.421   4.597   2.597 -0.2787  1.7803  1.1057
 2719TIP3    H229649   4.293   4.632   2.670 -1.8010 -0.1609 -0.5347
 2720TIP3   OH229650   4.442   2.384  11.275 -0.0466  0.4661  0.2434
 2720TIP3    H129651   4.360   2.375  11.226 -0.0487  4.0366 -0.6987
 2720TIP3    H229652   4.506   2.410  11.209  1.1056  0.6995  1.4236
 2721TIP3   OH229653   3.357   5.494   4.703 -0.1961 -0.7118  0.0589
 2721TIP3    H129654   3.271   5.464   4.734  0.3618 -0.0511  2.4581
 2721TIP3    H229655   3.358   5.587   4.724  1.0734 -0.6944 -0.0286
 2722TIP3   OH229656   6.491   3.798   2.398 -0.0173  0.4103  0.3065
 2722TIP3    H129657   6.576   3.781   2.439 -0.5315 -0.5303  1.0188
 2722TIP3    H229658   6.461   3.712   2.368  0.4075  1.0817 -2.2417
 2723TIP3   OH229659   0.504   2.836  14.350 -0.2123  0.5695 -0.1931
 2723TIP3    H129660   0.420   2.881  14.343  0.0178  0.9588 -0.4911
 2723TIP3    H229661   0.558   2.894  14.404 -0.7893 -0.6625  1.8046
 2724TIP3   OH229662   3.279   4.307   0.898  0.9116 -0.6071  0.7967
 2724TIP3    H129663   3.225   4.233   0.870 -1.1890  0.3620  2.0676
 2724TIP3    H229664   3.297   4.291   0.990  0.3025  0.4818  1.1320
 2725TIP3   OH229665   4.446   6.461   4.420 -0.1193 -0.2264 -0.2278
 2725TIP3    H129666   4.408   6.506   4.495  0.4658 -0.5347  0.2570
 2725TIP3    H229667   4.382   6.392   4.399  1.0632 -2.0937  1.8844
 2726TIP3   OH229668   5.830   5.978  16.414  0.3843 -0.7367 -0.1750
 2726TIP3    H129669   5.917   6.003  16.385  0.7124  0.0335  1.3836
 2726TIP3    H229670   5.837   5.884  16.432  0.7970 -0.7407 -0.3478
 2727TIP3   OH229671   0.360   2.866   0.322  0.5311 -0.0247 -0.5587
 2727TIP3    H129672   0.317   2.872   0.237  0.8364 -1.1373 -0.8051
 2727TIP3    H229673   0.444   2.911   0.310 -0.5140  2.1606 -0.0732
 2728TIP3   OH229674   1.641   4.495   4.951 -0.0426  0.4560 -0.0443
 2728TIP3    H129675   1.567   4.435   4.964  0.2679  0.1673  0.4536
 2728TIP3    H229676   1.692   4.456   4.880 -0.7208  1.0108 -0.8438
 2729TIP3   OH229677   1.903   6.516   0.722  0.4569 -0.1671  0.0615
 2729TIP3    H129678   1.997   6.531   0.712  0.2727  0.6991 -0.4734
 2729TIP3    H229679   1.887   6.432   0.679  1.1881 -0.9730  1.3111
 2730TIP3   OH229680   1.804   6.521  13.826 -0.0223 -0.1816 -0.2587
 2730TIP3    H129681   1.778   6.613  13.821 -0.0787 -0.2487 -1.5288
 2730TIP3    H229682   1.726   6.475  13.856 -0.2497  0.0865 -0.4334
 2731TIP3   OH229683   4.493   5.255  11.308  0.3874  0.0543  0.2007
 2731TIP3    H129684   4.446   5.231  11.228 -3.6010 -2.1926  2.9213
 2731TIP3    H229685   4.538   5.175  11.334 -2.1920 -0.8014  2.4656
 2732TIP3   OH229686   2.678   4.485   0.653  0.5498 -0.2434  0.0345
 2732TIP3    H129687   2.716   4.398   0.642  1.8621  0.3952 -0.9564
 2732TIP3    H229688   2.714   4.517   0.736  0.6426 -0.3862  0.0494
 2733TIP3   OH229689   6.097   0.761  14.712 -0.5307 -0.0659 -0.3453
 2733TIP3    H129690   6.067   0.690  14.656 -1.1676  0.5279 -0.7696
 2733TIP3    H229691   6.017   0.807  14.738 -0.0621  1.0809 -0.8665
 2734TIP3   OH229692   5.876   5.245   1.348  0.2332  0.9357  0.0673
 2734TIP3    H129693   5.844   5.225   1.260  0.0361 -1.8276  0.6682
 2734TIP3    H229694   5.799   5.275   1.395  0.0151  0.9507 -0.2922
 2735TIP3   OH229695   5.856   4.054   0.029  0.1093  0.4193  0.2639
 2735TIP3    H129696   5.857   4.103  -0.053 -1.1599 -1.1358 -0.7420
 2735TIP3    H229697   5.844   3.962   0.002 -0.1375 -0.1529  2.1697
 2736TIP3   OH229698   4.738   5.162  16.157 -0.0260  0.1957 -0.0552
 2736TIP3    H129699   4.718   5.127  16.071  1.2965 -0.0287 -0.2884
 2736TIP3    H229700   4.654   5.197  16.189 -0.7772 -0.7679 -0.9220
 2737TIP3   OH229701   4.697   2.305   4.043 -0.6078  0.0720  0.1969
 2737TIP3    H129702   4.750   2.302   3.964 -1.6245 -0.3870 -0.4943
 2737TIP3    H229703   4.691   2.398   4.064  1.1217  0.0912  0.7711
 2738TIP3   OH229704   1.291   5.473  14.656 -0.3330  0.5483 -0.1311
 2738TIP3    H129705   1.331   5.512  14.578 -1.4644 -0.6567 -1.3888
 2738TIP3    H229706   1.314   5.532  14.727  1.8464  1.0163 -1.1302
 2739TIP3   OH229707   6.180   3.913   4.733 -0.0279  0.1956  0.0758
 2739TIP3    H129708   6.275   3.898   4.723  0.2715  1.4676  0.8392
 2739TIP3    H229709   6.170   3.941   4.824 -1.1005  0.4731 -0.1162
 2740TIP3   OH229710   0.748   6.799   0.009  0.1460  0.0214  0.5801
 2740TIP3    H129711   0.785   6.872   0.058  2.2388 -1.0445  0.6979
 2740TIP3    H229712   0.696   6.751   0.074  0.2101  0.4212  0.9340
 2741TIP3   OH229713   0.676   2.832   0.649 -0.2960  0.0606  1.2584
 2741TIP3    H129714   0.742   2.800   0.711 -0.4407 -0.6175  1.0611
 2741TIP3    H229715   0.703   2.796   0.565  1.1810  2.7275  0.4500
 2742TIP3   OH229716   1.638   2.971  13.665  0.5697 -0.3510 -0.4684
 2742TIP3    H129717   1.652   2.926  13.582 -0.4199  0.3301 -1.0228
 2742TIP3    H229718   1.714   2.948  13.718  1.1860 -0.8405 -1.5370
 2743TIP3   OH229719   4.884   5.698  16.257 -0.3795 -0.3853  0.0411
 2743TIP3    H129720   4.967   5.701  16.210  0.9707 -0.2788  2.2632
 2743TIP3    H229721   4.834   5.629  16.214  0.7932 -0.3748 -1.4224
 2744TIP3   OH229722   3.871   0.508  13.543 -0.1134 -0.3180 -0.1919
 2744TIP3    H129723   3.792   0.561  13.553  0.3136  0.3274 -0.1412
 2744TIP3    H229724   3.873   0.483  13.451 -0.5847 -0.6681 -0.1062
 2745TIP3   OH229725   2.002   5.228   3.415 -0.2049  0.5159  0.6958
 2745TIP3    H129726   2.014   5.149   3.362  1.0031  0.4620  1.0184
 2745TIP3    H229727   2.091   5.254   3.439 -0.0682  4.5115 -3.0483
 2746TIP3   OH229728   2.413   3.464  15.113  0.3094  0.1885 -0.0444
 2746TIP3    H129729   2.393   3.536  15.174 -0.9910 -0.6443  0.5650
 2746TIP3    H229730   2.434   3.390  15.170 -1.7314 -0.8310 -0.5152
 2747TIP3   OH229731   6.023   2.323   4.435 -0.0468 -0.5413 -0.5065
 2747TIP3    H129732   5.975   2.329   4.352 -0.1239  0.5303 -0.3906
 2747TIP3    H229733   6.074   2.404   4.440 -0.8521 -0.0941  0.9987
 2748TIP3   OH229734   0.142   5.399   2.548  0.2653 -0.4383  0.4056
 2748TIP3    H129735   0.049   5.396   2.571  0.2923 -1.1497  0.4378
 2748TIP3    H229736   0.178   5.317   2.583  0.9429 -0.0844  0.5567
 2749TIP3   OH229737   6.393   5.157  15.868 -0.3890  0.0530  0.2036
 2749TIP3    H129738   6.372   5.236  15.917 -0.3605 -0.1373  0.5234
 2749TIP3    H229739   6.442   5.189  15.792 -1.4417  0.4657 -0.3254
 2750TIP3   OH229740   2.793   3.483  11.415 -0.2345 -0.2388 -0.4927
 2750TIP3    H129741   2.872   3.535  11.402 -0.2019 -0.6800 -2.2668
 2750TIP3    H229742   2.787   3.428  11.337 -1.3810 -1.4308  0.3954
 2751TIP3   OH229743   0.132   4.748  15.221  0.5736  0.6044 -0.0212
 2751TIP3    H129744   0.052   4.711  15.183  0.0717  2.0503 -0.4492
 2751TIP3    H229745   0.196   4.677  15.216 -0.8391 -0.7929  0.9051
 2752TIP3   OH229746   5.450   3.742   2.121  0.2610  0.5763 -0.0185
 2752TIP3    H129747   5.472   3.835   2.130 -0.2843  0.7389 -0.3814
 2752TIP3    H229748   5.535   3.698   2.118  0.5382  0.9110  1.6314
 2753TIP3   OH229749   1.122   3.737   1.248  0.0401  0.6591 -0.4790
 2753TIP3    H129750   1.096   3.827   1.266  0.5496  0.5155  1.1528
 2753TIP3    H229751   1.071   3.685   1.309  1.4507  0.0653  0.2450
 2754TIP3   OH229752   2.961   1.646   0.908  0.2309 -0.1562 -0.5078
 2754TIP3    H129753   2.877   1.640   0.863  0.4706 -2.3558 -0.7675
 2754TIP3    H229754   3.023   1.674   0.841  0.7743 -4.2792 -2.0296
 2755TIP3   OH229755   2.673   3.064  14.892 -0.1836  0.5996 -0.3007
 2755TIP3    H129756   2.693   2.982  14.848 -1.4741 -0.0047  0.2107
 2755TIP3    H229757   2.587   3.090  14.858 -1.1705  0.1765  1.7268
 2756TIP3   OH229758   3.614   5.316   1.767 -0.5005 -0.6666  0.0851
 2756TIP3    H129759   3.541   5.368   1.732 -3.7016 -3.3202  2.2625
 2756TIP3    H229760   3.609   5.233   1.719  0.0536 -1.4626  1.3580
 2757TIP3   OH229761   5.261   3.772  12.020  0.0816 -0.6259 -0.0548
 2757TIP3    H129762   5.170   3.781  11.992  0.3352 -0.8397 -0.9591
 2757TIP3    H229763   5.278   3.678  12.018  0.1350 -0.6422  0.7472
 2758TIP3   OH229764   6.381   3.277   1.541  0.4641 -0.2483  0.1940
 2758TIP3    H129765   6.375   3.292   1.636  1.4565 -2.5654  0.7008
 2758TIP3    H229766   6.317   3.208   1.524 -0.3713  0.7930 -1.0278
 2759TIP3   OH229767   6.003   1.769  16.172  0.7035  0.1135  0.0933
 2759TIP3    H129768   5.988   1.758  16.078  0.1043  0.3223  0.1568
 2759TIP3    H229769   6.036   1.685  16.202 -0.8973 -0.5706  0.0283
 2760TIP3   OH229770   2.298   6.238  17.217 -0.3498 -0.3001  0.4992
 2760TIP3    H129771   2.225   6.273  17.167  0.9290 -0.2724 -1.4657
 2760TIP3    H229772   2.372   6.294  17.195  0.5860 -1.1671  1.3090
 2761TIP3   OH229773   2.492   6.541   2.532 -0.0988  0.0561  0.4610
 2761TIP3    H129774   2.518   6.495   2.611  0.4160  1.9740  1.4786
 2761TIP3    H229775   2.398   6.556   2.542 -0.1568 -0.2491  0.3932
 2762TIP3   OH229776   5.651   2.715  15.716 -0.1779  0.2136  0.1050
 2762TIP3    H129777   5.559   2.717  15.690 -0.6767 -0.8774  1.6070
 2762TIP3    H229778   5.669   2.803  15.750 -0.8234  0.2977  0.2477
 2763TIP3   OH229779   5.289   1.414   5.741 -0.1012  0.2130  0.4655
 2763TIP3    H129780   5.311   1.465   5.664  1.0688  0.8783  1.2077
 2763TIP3    H229781   5.368   1.416   5.795  0.0221 -2.4541  0.5163
 2764TIP3   OH229782   4.010   5.816  12.460  0.2128 -0.4390  0.5403
 2764TIP3    H129783   4.059   5.734  12.465  0.1747 -0.3979  3.6232
 2764TIP3    H229784   4.077   5.883  12.446  0.5029 -0.7790  0.2786
 2765TIP3   OH229785   1.563   4.417  13.246  0.3412  0.1992 -0.2033
 2765TIP3    H129786   1.518   4.468  13.179  1.2491  0.2929 -0.7595
 2765TIP3    H229787   1.646   4.463  13.260 -0.5430  1.1457  2.2459
 2766TIP3   OH229788   6.432   0.573   4.263  0.7874 -0.3107 -0.4888
 2766TIP3    H129789   6.509   0.613   4.221  0.7990 -0.1225 -0.2925
 2766TIP3    H229790   6.385   0.647   4.300  1.5864 -0.6028  1.1828
 2767TIP3   OH229791   1.563   0.789   5.913  0.2872  0.0721 -0.2379
 2767TIP3    H129792   1.625   0.860   5.896  0.6260 -0.3691 -0.8532
 2767TIP3    H229793   1.614   0.722   5.958  0.2030 -0.1951 -0.5384
 2768TIP3   OH229794   0.365   2.759   3.353  0.4460  0.0978  0.0932
 2768TIP3    H129795   0.285   2.756   3.405  1.2699  0.9683  1.4583
 2768TIP3    H229796   0.410   2.677   3.373  0.2939 -0.0130 -0.0201
 2769TIP3   OH229797   3.645   2.456   2.342  0.7889 -0.0804 -0.1560
 2769TIP3    H129798   3.619   2.365   2.323  0.6571 -0.6155  2.1675
 2769TIP3    H229799   3.625   2.466   2.435  1.5158  2.1144 -0.1985
 2770TIP3   OH229800   2.436   1.934  13.416 -0.2539 -0.3998 -0.3862
 2770TIP3    H129801   2.522   1.898  13.440 -0.8150 -1.0291  0.7129
 2770TIP3    H229802   2.442   2.027  13.440 -0.7659 -0.9703  2.2679
 2771TIP3   OH229803   6.787   1.816   1.519  0.1403  0.8108 -0.4721
 2771TIP3    H129804   6.702   1.859   1.532 -0.0490  0.4820 -0.5951
 2771TIP3    H229805   6.778   1.771   1.435 -0.6797 -1.7856  0.8909
 2772TIP3   OH229806   3.877   1.478  14.975  0.0459 -0.0257 -0.2692
 2772TIP3    H129807   3.844   1.497  14.888  1.5780  1.7935 -0.5305
 2772TIP3    H229808   3.859   1.385  14.989 -2.6444  0.2498 -1.3993
 2773TIP3   OH229809   1.921   0.040   4.983  0.4835  0.5275 -0.0428
 2773TIP3    H129810   1.980   0.049   4.908  0.1483  0.4753 -0.3157
 2773TIP3    H229811   1.934   0.121   5.033  0.6288  0.6109 -0.2125
 2774TIP3   OH229812   2.114   0.304  13.581 -0.2475  0.1591  0.5398
 2774TIP3    H129813   2.034   0.353  13.560 -0.5484 -0.2174  0.7853
 2774TIP3    H229814   2.104   0.283  13.674 -0.6052 -1.2591  0.1959
 2775TIP3   OH229815   1.485   6.447  15.489 -0.3940 -0.6422  0.3822
 2775TIP3    H129816   1.539   6.430  15.566 -1.0703  0.0691  1.0352
 2775TIP3    H229817   1.396   6.459  15.524 -0.3346  2.1455 -0.1609
 2776TIP3   OH229818   5.191   6.697  16.347  0.3855 -0.1975 -0.4178
 2776TIP3    H129819   5.120   6.755  16.376 -0.4226 -1.2635 -0.2063
 2776TIP3    H229820   5.174   6.682  16.254  0.9172  0.3352 -0.6079
 2777TIP3   OH229821   1.697   4.499  14.477 -0.2268  0.0287 -0.2302
 2777TIP3    H129822   1.683   4.573  14.419 -1.8566 -0.4909 -0.5691
 2777TIP3    H229823   1.738   4.536  14.555  0.6872  0.9543 -1.1233
 2778TIP3   OH229824   3.597   5.549  15.811  0.3535  0.6112 -0.4024
 2778TIP3    H129825   3.518   5.502  15.787  0.8250  0.3594 -1.5536
 2778TIP3    H229826   3.594   5.555  15.907  0.6346 -2.4024 -0.1208
 2779TIP3   OH229827   5.449   5.805   3.975  0.1892 -0.0530  0.0944
 2779TIP3    H129828   5.504   5.736   3.939 -0.6422  1.0665 -3.7815
 2779TIP3    H229829   5.508   5.879   3.988  0.2643 -0.0441 -0.3022
 2780TIP3   OH229830   5.805   5.500  16.798 -0.1163 -0.1272 -0.3002
 2780TIP3    H129831   5.896   5.507  16.770 -0.2884  1.1149 -0.6072
 2780TIP3    H229832   5.809   5.482  16.892  0.4378 -0.4283 -0.3788
 2781TIP3   OH229833   0.718   4.146   5.212  0.5620 -0.1431 -0.3170
 2781TIP3    H129834   0.660   4.079   5.248  0.0480  0.0426 -0.7963
 2781TIP3    H229835   0.752   4.192   5.289 -0.1059 -0.0995 -0.0471
 2782TIP3   OH229836   0.762   4.624   0.373 -0.1431  0.1928  0.1404
 2782TIP3    H129837   0.830   4.623   0.440  1.0394  0.6622 -0.9994
 2782TIP3    H229838   0.687   4.665   0.415 -0.0479 -1.1433  1.7062
 2783TIP3   OH229839   6.256   6.033   4.115  0.0158 -0.3029 -0.0749
 2783TIP3    H129840   6.194   6.106   4.115  0.7941  0.3682  0.4181
 2783TIP3    H229841   6.280   6.021   4.206  0.6769 -0.5064 -0.2722
 2784TIP3   OH229842   3.522   2.925   0.334 -0.4523 -0.2259 -0.3254
 2784TIP3    H129843   3.499   2.986   0.264 -0.7821 -1.2584 -1.1413
 2784TIP3    H229844   3.459   2.944   0.404 -0.4493  0.4756 -0.5106
 2785TIP3   OH229845   3.573   3.106  10.239  0.1676 -0.2842 -0.5475
 2785TIP3    H129846   3.614   3.058  10.311 -1.9939 -0.1446  0.8826
 2785TIP3    H229847   3.514   3.043  10.198 -0.7462  0.4074 -0.3374
 2786TIP3   OH229848   4.343   4.874  12.709  0.0019 -0.3801  0.2215
 2786TIP3    H129849   4.428   4.910  12.734  0.0840 -1.2737  1.3214
 2786TIP3    H229850   4.340   4.788  12.752 -1.6782 -0.1408  0.6408
 2787TIP3   OH229851   5.894   1.018  12.714  0.1044  0.0378 -0.1258
 2787TIP3    H129852   5.979   1.014  12.759 -0.2721 -1.0103  0.5364
 2787TIP3    H229853   5.860   1.105  12.736  0.8789  0.3631 -0.1638
 2788TIP3   OH229854   3.536   4.385   0.473 -0.1372  0.0642 -0.0152
 2788TIP3    H129855   3.458   4.351   0.518 -0.5821  0.6399 -0.3339
 2788TIP3    H229856   3.610   4.350   0.522 -0.6138  0.8861  1.3282
 2789TIP3   OH229857   3.166   5.794   1.792  0.2068 -0.6529 -0.1481
 2789TIP3    H129858   3.126   5.707   1.791  1.2101 -1.1162 -0.4744
 2789TIP3    H229859   3.230   5.792   1.721  0.0345  0.4596 -0.3586
 2790TIP3   OH229860   3.230   6.770   1.393  0.4279  0.4281  0.1765
 2790TIP3    H129861   3.225   6.832   1.320  0.0880  2.0381  1.4945
 2790TIP3    H229862   3.186   6.692   1.361  2.5845  0.0761 -2.2525
 2791TIP3   OH229863   1.420   0.490  13.854 -0.8403  0.0192  0.2404
 2791TIP3    H129864   1.375   0.520  13.775 -0.1706 -1.1537 -0.6196
 2791TIP3    H229865   1.381   0.406  13.874  0.9758 -1.0902 -0.6042
 2792TIP3   OH229866   1.835   4.425  16.509  0.3720 -0.3490  0.4091
 2792TIP3    H129867   1.748   4.432  16.547  0.3864  0.6903  0.2551
 2792TIP3    H229868   1.866   4.515  16.501  0.9582 -0.6339 -0.7029
 2793TIP3   OH229869   3.330   5.801  13.995  0.4518  0.0087  0.2123
 2793TIP3    H129870   3.298   5.723  13.949 -0.9339 -0.7098  2.2494
 2793TIP3    H229871   3.414   5.820  13.954 -0.8481 -0.2731 -2.8896
 2794TIP3   OH229872   2.974   2.990  12.105 -0.6565  0.0993 -0.0460
 2794TIP3    H129873   3.059   3.023  12.134 -0.1516 -0.6977 -0.5887
 2794TIP3    H229874   2.917   3.067  12.105  1.0569  1.5974 -3.4867
 2795TIP3   OH229875   5.025   2.327  13.666 -0.0498 -0.5705  0.6560
 2795TIP3    H129876   5.087   2.397  13.690  0.0063 -0.5319  0.4096
 2795TIP3    H229877   4.954   2.336  13.728  0.2410 -0.6779  1.0062
 2796TIP3   OH229878   4.557   4.840  15.131  0.0268  0.5986 -0.8779
 2796TIP3    H129879   4.556   4.747  15.110  0.5404 -1.0612  4.7709
 2796TIP3    H229880   4.465   4.865  15.135 -0.2856 -0.6733  0.7397
 2797TIP3   OH229881   0.743   5.349   0.185 -0.5021  0.2710  0.7391
 2797TIP3    H129882   0.666   5.405   0.173 -0.8463 -0.6429 -2.2506
 2797TIP3    H229883   0.774   5.333   0.096  0.8351 -2.5870  1.6122
 2798TIP3   OH229884   6.687   4.759   6.085 -0.4688  0.3159  0.5398
 2798TIP3    H129885   6.728   4.693   6.029  1.3599  1.0917  0.8963
 2798TIP3    H229886   6.731   4.750   6.170 -1.3748  0.8765  1.0887
 2799TIP3   OH229887   6.559   5.005   0.102 -0.6733 -0.2077 -0.1615
 2799TIP3    H129888   6.571   5.000   0.007  2.3375 -2.6402  0.1914
 2799TIP3    H229889   6.619   5.075   0.129 -2.3422  1.2526 -0.0667
 2800TIP3   OH229890   6.140   6.663  13.141  0.2767  0.0844 -0.4830
 2800TIP3    H129891   6.219   6.660  13.086  0.4479  0.3876 -0.2560
 2800TIP3    H229892   6.124   6.756  13.155 -1.5971  0.1846 -2.6133
 2801TIP3   OH229893   2.408   6.312  11.769  0.2882  0.4368  0.1372
 2801TIP3    H129894   2.336   6.249  11.763 -1.4371  2.4389 -1.9268
 2801TIP3    H229895   2.394   6.357  11.853  0.7897 -0.9703  1.0119
 2802TIP3   OH229896   4.353   2.608  12.212 -0.0705 -0.2635 -0.4065
 2802TIP3    H129897   4.292   2.665  12.166 -0.0676  0.8042  0.8616
 2802TIP3    H229898   4.398   2.560  12.143 -1.6934 -0.4109 -1.4067
 2803TIP3   OH229899   0.469   0.282   1.405  0.3317  0.6820  0.0941
 2803TIP3    H129900   0.563   0.267   1.397 -0.0418 -1.5197 -0.8175
 2803TIP3    H229901   0.433   0.259   1.320 -1.0736  1.3969  0.4574
 2804TIP3   OH229902   2.871   0.934  15.365 -0.4538  0.4080 -0.0250
 2804TIP3    H129903   2.946   0.875  15.355 -0.4022  0.6573 -1.2324
 2804TIP3    H229904   2.875   0.961  15.457  0.0537 -0.7450  0.3211
 2805TIP3   OH229905   2.243   5.791  16.745 -0.4967  0.4053 -0.3861
 2805TIP3    H129906   2.302   5.741  16.801 -2.4926  1.2924  2.7516
 2805TIP3    H229907   2.212   5.727  16.680 -1.3134 -1.9773  2.1656
 2806TIP3   OH229908   6.579   0.472   2.595  0.2086  0.1156  0.3615
 2806TIP3    H129909   6.585   0.555   2.643 -0.7002  0.2362  0.2759
 2806TIP3    H229910   6.544   0.496   2.509  0.4493 -0.2932  0.1440
 2807TIP3   OH229911   6.615   0.416   2.924  0.5314 -0.7418  0.5875
 2807TIP3    H129912   6.635   0.430   2.831 -0.5546  0.5167  0.5084
 2807TIP3    H229913   6.524   0.385   2.924 -0.6143  2.2784  1.3271
 2808TIP3   OH229914   1.949   5.897   1.481 -0.3481  0.0977 -0.1836
 2808TIP3    H129915   1.990   5.840   1.546 -0.0140  0.1592 -0.3339
 2808TIP3    H229916   1.913   5.837   1.415  0.3741  0.0608 -0.5607
 2809TIP3   OH229917   2.402   5.428   1.384 -0.2080  0.4748 -0.3780
 2809TIP3    H129918   2.428   5.343   1.420  0.5256  0.2017 -1.4817
 2809TIP3    H229919   2.317   5.446   1.424  0.6191  0.2766  1.5607
 2810TIP3   OH229920   6.493   2.093   2.359 -0.0273 -0.8152 -0.1072
 2810TIP3    H129921   6.453   2.133   2.281 -1.7672 -1.4445  0.4112
 2810TIP3    H229922   6.555   2.158   2.391  0.0978 -0.2002 -1.5298
 2811TIP3   OH229923   2.782   0.127  15.520 -0.0001  0.2408 -0.0899
 2811TIP3    H129924   2.763   0.214  15.484 -1.7884 -0.1599 -0.2088
 2811TIP3    H229925   2.696   0.086  15.529  0.6383 -0.7672  1.9184
 2812TIP3   OH229926   3.807   3.100  12.081  0.5248 -0.5057  0.2454
 2812TIP3    H129927   3.711   3.104  12.076  0.6332  0.8041 -1.5535
 2812TIP3    H229928   3.827   3.124  12.172 -0.7677  1.4007  0.0799
 2813TIP3   OH229929   1.016   1.551  15.538 -0.8225  0.1047  0.2079
 2813TIP3    H129930   1.081   1.594  15.483 -0.3715  0.3375  0.9166
 2813TIP3    H229931   1.008   1.463  15.502  0.2913 -0.1010  0.4397
 2814TIP3   OH229932   4.027   1.492   5.654  0.2455 -0.2412 -0.1361
 2814TIP3    H129933   4.096   1.514   5.592 -0.4772  0.8501 -0.5836
 2814TIP3    H229934   3.995   1.577   5.685 -0.0390 -0.7527  1.0278
 2815TIP3   OH229935   0.974   0.425   4.667 -0.2488 -0.0023  0.5842
 2815TIP3    H129936   1.022   0.452   4.745  1.9050 -0.4376 -0.5321
 2815TIP3    H229937   0.955   0.332   4.680 -1.4501  0.3145  1.3097
 2816TIP3   OH229938   0.476   2.801  15.469 -0.0712  0.2706 -0.1482
 2816TIP3    H129939   0.496   2.708  15.479 -0.2593  0.2394 -0.0724
 2816TIP3    H229940   0.523   2.843  15.541 -0.0422  0.2284 -0.1425
 2817TIP3   OH229941   5.733   0.999  12.375 -0.2704 -0.7692 -0.0297
 2817TIP3    H129942   5.779   1.075  12.410  0.0009 -1.8903  2.2179
 2817TIP3    H229943   5.646   1.003  12.414 -1.5772  0.2915 -2.7667
 2818TIP3   OH229944   6.804   1.508  13.635 -0.4992 -0.0776  0.1067
 2818TIP3    H129945   6.818   1.523  13.728  2.6195 -0.7312 -0.1486
 2818TIP3    H229946   6.805   1.595  13.596  0.5939  0.0847  0.4608
 2819TIP3   OH229947   5.510   4.949  13.513  0.3930  0.2800 -0.3491
 2819TIP3    H129948   5.582   4.887  13.522 -0.2219 -0.7311 -1.9942
 2819TIP3    H229949   5.443   4.917  13.573  0.1759 -0.5512 -1.0080
 2820TIP3   OH229950   2.290   2.250  12.460  0.1055  0.4042 -0.0876
 2820TIP3    H129951   2.307   2.156  12.449 -0.0568  0.0847  2.0482
 2820TIP3    H229952   2.197   2.255  12.483  0.5489  0.8795  1.7287
 2821TIP3   OH229953   2.681   0.226   1.545  0.0743  0.1861 -0.1647
 2821TIP3    H129954   2.671   0.135   1.572 -0.0676  0.4713  0.7549
 2821TIP3    H229955   2.776   0.240   1.543  0.0882  0.4528  1.2298
 2822TIP3   OH229956   1.919   1.296   0.872 -0.0776 -0.1568 -0.0995
 2822TIP3    H129957   1.947   1.326   0.785  2.0802  0.5394  0.7548
 2822TIP3    H229958   1.870   1.369   0.908 -0.3205 -0.1496 -0.4416
 2823TIP3   OH229959   2.023   0.626   3.345  0.3682 -0.1132 -0.5728
 2823TIP3    H129960   2.118   0.632   3.361  1.4300  0.9182 -5.6047
 2823TIP3    H229961   2.005   0.532   3.342  1.7715 -0.3770 -1.7096
 2824TIP3   OH229962   4.696   0.285  13.360  0.4587  0.0184  0.6318
 2824TIP3    H129963   4.784   0.283  13.321  0.5170  1.7360  0.5861
 2824TIP3    H229964   4.638   0.302  13.286  0.4666  2.2676  1.0699
 2825TIP3   OH229965   1.802   2.411  11.976  0.1904  0.0828 -0.4412
 2825TIP3    H129966   1.761   2.346  11.918  0.6854 -0.3318 -0.3357
 2825TIP3    H229967   1.859   2.461  11.917 -1.2076  1.3423 -0.7919
 2826TIP3   OH229968   3.105   5.192   3.389  0.1726  0.5271 -0.3355
 2826TIP3    H129969   3.153   5.202   3.471 -0.9897 -0.8131  0.5745
 2826TIP3    H229970   3.151   5.123   3.342 -1.7761 -2.2296  1.4243
 2827TIP3   OH229971   3.566   3.008   2.751 -0.5748 -0.0689 -0.0449
 2827TIP3    H129972   3.534   3.068   2.819 -1.2719  1.2782 -1.5139
 2827TIP3    H229973   3.541   2.921   2.784 -1.3504  0.5783  1.1810
 2828TIP3   OH229974   5.896   3.734  15.224  0.0189  0.2024  0.3309
 2828TIP3    H129975   5.835   3.799  15.189  0.0417  0.1387  0.1704
 2828TIP3    H229976   5.882   3.656  15.169  2.3684  1.0957 -1.7194
 2829TIP3   OH229977   5.304   1.284  13.357 -0.4691  0.4210  0.5127
 2829TIP3    H129978   5.233   1.345  13.338 -0.7989 -0.2801 -0.6077
 2829TIP3    H229979   5.259   1.207  13.393 -0.3814 -0.3334 -0.9366
 2830TIP3   OH229980   1.733   2.183  12.890 -0.5653 -0.0422 -0.2419
 2830TIP3    H129981   1.731   2.158  12.982 -1.4044 -1.4084 -0.5956
 2830TIP3    H229982   1.771   2.108  12.845  0.0768  0.7130 -0.9973
 2831TIP3   OH229983   5.979   0.784  10.950  0.3615 -0.0598 -0.1597
 2831TIP3    H129984   5.987   0.860  10.893 -1.1550  2.3581  2.5555
 2831TIP3    H229985   5.907   0.733  10.911  1.4478 -0.2261 -2.0647
 2832TIP3   OH229986   5.633   4.137   3.733 -0.5665  0.0278  0.1562
 2832TIP3    H129987   5.608   4.132   3.826 -0.7565 -0.2962  0.0862
 2832TIP3    H229988   5.727   4.156   3.735  0.0742 -2.7929  0.4446
 2833TIP3   OH229989   3.562   0.384  13.196 -0.3951  0.2229  0.1852
 2833TIP3    H129990   3.602   0.471  13.188 -0.5836  0.2266 -0.9119
 2833TIP3    H229991   3.544   0.375  13.289 -0.1341  1.2558  0.3587
 2834TIP3   OH229992   0.819   1.733  11.372  0.5672  0.2286 -0.1522
 2834TIP3    H129993   0.849   1.820  11.345  1.2804  0.1910  0.5147
 2834TIP3    H229994   0.834   1.678  11.295  0.4626  0.6127 -0.4507
 2835TIP3   OH229995   4.109   0.771   0.126  0.4014  0.0525  0.2901
 2835TIP3    H129996   4.039   0.711   0.148  1.7676 -1.2411  1.3212
 2835TIP3    H229997   4.074   0.858   0.145 -0.8287 -0.5842  0.9968
 2836TIP3   OH229998   6.774   1.990  11.998  0.3865  0.0146  0.2016
 2836TIP3    H129999   6.686   1.987  11.961 -0.0261  1.2680  1.0241
 2836TIP3    H230000   6.828   2.027  11.928  0.1993 -0.4308 -0.1822
 2837TIP3   OH230001   0.611   5.734  14.608  0.4208 -0.0215 -1.0060
 2837TIP3    H130002   0.581   5.646  14.630  1.7105 -0.1360  0.4339
 2837TIP3    H230003   0.533   5.778  14.573 -0.8555 -0.9784  0.5151
 2838TIP3   OH230004   2.940   3.440   2.051  0.8425 -0.2862 -0.6364
 2838TIP3    H130005   2.896   3.358   2.026  2.1339 -0.7510 -1.5400
 2838TIP3    H230006   2.946   3.437   2.146  2.7306 -2.3193 -0.7321
 2839TIP3   OH230007   3.607   5.389  16.850  0.0330 -0.1872 -0.2862
 2839TIP3    H130008   3.621   5.339  16.770  1.9388 -1.7554  0.9483
 2839TIP3    H230009   3.680   5.451  16.853  0.0534 -0.2362  0.3247
 2840TIP3   OH230010   6.640   2.544  12.887  0.0103  0.3728  0.3569
 2840TIP3    H130011   6.562   2.498  12.857 -0.2218  0.9841 -0.0007
 2840TIP3    H230012   6.689   2.565  12.807  1.8289 -2.1708  0.6998
 2841TIP3   OH230013   0.756   4.233   3.782 -0.1293  0.0191  0.7274
 2841TIP3    H130014   0.751   4.188   3.867 -1.1058 -0.1034  0.6097
 2841TIP3    H230015   0.794   4.319   3.803  1.8669 -0.8494  0.9411
 2842TIP3   OH230016   4.287   2.544  17.190  0.3744 -0.3182  0.1561
 2842TIP3    H130017   4.266   2.617  17.248  1.6008 -1.0130  1.5299
 2842TIP3    H230018   4.223   2.476  17.212 -0.0378 -0.0885 -0.3087
 2843TIP3   OH230019   4.915   0.457   0.327  0.0708  0.4895 -0.0627
 2843TIP3    H130020   4.903   0.512   0.405 -2.0779  0.9407 -0.6401
 2843TIP3    H230021   4.918   0.367   0.361  1.6630  0.7885  0.7124
 2844TIP3   OH230022   1.258   2.311   1.512 -0.4710  0.2762  0.2814
 2844TIP3    H130023   1.225   2.230   1.473  0.7544  0.5517 -1.4289
 2844TIP3    H230024   1.241   2.378   1.446  0.8060  0.9572  0.6085
 2845TIP3   OH230025   0.666   5.783  16.659  0.8289 -0.0336 -0.6248
 2845TIP3    H130026   0.734   5.847  16.639  0.8417 -0.3503 -1.6588
 2845TIP3    H230027   0.589   5.836  16.681  0.7940  0.3494 -1.6180
 2846TIP3   OH230028   0.644   6.364  11.983 -0.4528  0.4840 -0.5120
 2846TIP3    H130029   0.715   6.372  11.920  0.1598  0.5693  0.1815
 2846TIP3    H230030   0.684   6.322  12.059 -1.3117 -0.1337 -0.3858
 2847TIP3   OH230031   5.745   1.675  17.183  0.2610  0.4658 -0.2357
 2847TIP3    H130032   5.753   1.583  17.158  0.1565  0.8259 -1.7195
 2847TIP3    H230033   5.747   1.675  17.278  2.4913 -0.8523 -0.2353
 2848TIP3   OH230034   3.865   3.115   2.892 -0.5560 -0.2558  0.3646
 2848TIP3    H130035   3.812   3.045   2.855 -0.8794 -0.1526  0.6263
 2848TIP3    H230036   3.895   3.081   2.977 -2.4614  0.6912  1.4811
 2849TIP3   OH230037   2.694   1.769  16.334 -0.2534 -0.0795 -0.4030
 2849TIP3    H130038   2.706   1.693  16.278  0.1881 -0.2052 -0.1410
 2849TIP3    H230039   2.690   1.733  16.423  1.3896  0.3214 -0.1411
 2850TIP3   OH230040   1.418   3.008   2.169  0.5689  0.1424 -0.4416
 2850TIP3    H130041   1.456   2.991   2.255 -0.0231  0.2028 -0.1605
 2850TIP3    H230042   1.339   3.059   2.188  0.0087 -0.5205 -0.9589
 2851TIP3   OH230043   1.434   2.414   4.568 -0.1036 -0.1102  0.1856
 2851TIP3    H130044   1.353   2.451   4.532 -0.1263  0.2131  0.5616
 2851TIP3    H230045   1.409   2.382   4.654 -0.2329 -1.5940 -0.3773
 2852TIP3   OH230046   5.835   0.214  16.411 -0.5473 -0.5142  0.2066
 2852TIP3    H130047   5.868   0.147  16.472  2.9911  1.5392  0.8082
 2852TIP3    H230048   5.781   0.164  16.349  1.7999 -4.0006  0.6210
 2853TIP3   OH230049   5.855   6.106   4.748 -0.0709  0.4314 -0.0116
 2853TIP3    H130050   5.897   6.025   4.777 -1.3027  0.3890  1.8444
 2853TIP3    H230051   5.855   6.101   4.652  0.8612 -1.2320  0.0511
 2854TIP3   OH230052   4.255   5.793   6.287  0.0060 -0.3041  0.6002
 2854TIP3    H130053   4.336   5.800   6.338 -0.1703 -2.4913  1.3106
 2854TIP3    H230054   4.278   5.738   6.212 -1.1719 -2.6683  1.8521
 2855TIP3   OH230055   3.866   4.040  16.201 -0.4040 -0.3592  0.8363
 2855TIP3    H130056   3.806   4.032  16.128 -0.7033  1.1888  0.8710
 2855TIP3    H230057   3.919   3.960  16.199  0.3903  0.1494 -1.7732
 2856TIP3   OH230058   1.397   6.210   2.593  0.5911  0.0806 -0.0527
 2856TIP3    H130059   1.435   6.253   2.516  0.4840  2.7253  1.2622
 2856TIP3    H230060   1.304   6.202   2.573  0.6614  0.2013 -0.4267
 2857TIP3   OH230061   4.338   2.762  13.267  0.0966 -0.0118  0.6217
 2857TIP3    H130062   4.415   2.818  13.254 -0.8536  1.4007  0.9119
 2857TIP3    H230063   4.323   2.763  13.361 -2.3836  2.7452  0.3424
 2858TIP3   OH230064   1.873   0.619  13.295  0.1079 -0.0340  0.7714
 2858TIP3    H130065   1.914   0.705  13.280 -1.1889  0.4834  0.0630
 2858TIP3    H230066   1.782   0.631  13.268  0.4016 -2.2435 -1.5267
 2859TIP3   OH230067   5.675   2.318   5.219  0.1377 -0.1767 -0.0934
 2859TIP3    H130068   5.631   2.382   5.162 -0.6263 -1.1979 -0.6681
 2859TIP3    H230069   5.636   2.332   5.305  0.0453  0.1997 -0.1942
 2860TIP3   OH230070   6.163   2.736  16.989  0.1823  0.0638 -0.2852
 2860TIP3    H130071   6.214   2.811  16.960 -0.3187  0.8890  0.8804
 2860TIP3    H230072   6.105   2.715  16.916  0.6858  0.4822 -0.8054
 2861TIP3   OH230073   5.737   0.669   2.965  0.7498 -0.5422  0.2495
 2861TIP3    H130074   5.732   0.699   3.055 -0.0221 -0.3314  0.1491
 2861TIP3    H230075   5.733   0.749   2.913  0.5665 -0.7027  0.0149
 2862TIP3   OH230076   5.681   0.312  15.513  0.0622  0.1708  0.5891
 2862TIP3    H130077   5.748   0.373  15.545 -0.7292  0.6614  1.3495
 2862TIP3    H230078   5.710   0.227  15.545  0.0621  0.4515  1.3528
 2863TIP3   OH230079   2.142   6.771   6.199 -0.3109  0.3259 -0.5053
 2863TIP3    H130080   2.104   6.755   6.113  0.1832  2.1603 -1.1191
 2863TIP3    H230081   2.090   6.718   6.259 -0.0446 -1.7441 -2.0304
 2864TIP3   OH230082   5.182   1.031  12.995  0.4389 -0.2134  0.1883
 2864TIP3    H130083   5.187   0.991  13.082  0.1140 -2.5755 -0.8026
 2864TIP3    H230084   5.116   1.099  13.004  0.0591 -0.7310  1.6872
 2865TIP3   OH230085   2.226   1.994  15.766  0.0930  0.1446 -0.3213
 2865TIP3    H130086   2.159   1.961  15.826 -1.7075  0.9013 -1.8282
 2865TIP3    H230087   2.271   2.063  15.816 -0.9813  0.3629  0.3680
 2866TIP3   OH230088   5.489   1.724  12.173  0.7268 -0.5223 -0.0309
 2866TIP3    H130089   5.452   1.664  12.239 -0.1638 -1.0000 -0.9352
 2866TIP3    H230090   5.482   1.676  12.091  0.5321  0.6154 -0.6967
 2867TIP3   OH230091   1.748   4.617  14.744  0.0123 -0.2398 -0.1215
 2867TIP3    H130092   1.668   4.666  14.762  0.1627  0.2854 -0.8465
 2867TIP3    H230093   1.809   4.682  14.710  1.3103 -0.3020  1.9022
 2868TIP3   OH230094   6.156   2.142  12.634  0.0851  0.1641  0.7375
 2868TIP3    H130095   6.061   2.134  12.620  0.3510 -1.6570 -0.3458
 2868TIP3    H230096   6.163   2.192  12.716 -1.7950  0.5937  0.6970
 2869TIP3   OH230097   0.624   4.067  13.813 -0.6071  0.1375  0.0295
 2869TIP3    H130098   0.698   4.023  13.854 -0.0067  0.9200 -0.1834
 2869TIP3    H230099   0.651   4.080  13.722 -0.1333  2.2231  0.4115
 2870TIP3   OH230100   3.870   2.926   0.949  0.6951 -0.5489  0.4173
 2870TIP3    H130101   3.831   2.839   0.935  1.8293 -0.9295 -0.5107
 2870TIP3    H230102   3.917   2.918   1.032  1.6351 -1.1634 -0.1494
 2871TIP3   OH230103   1.727   5.576  14.504  0.0751 -0.6486  0.3169
 2871TIP3    H130104   1.760   5.646  14.561 -0.9648 -0.3368  0.5589
 2871TIP3    H230105   1.780   5.582  14.426  0.5649 -0.1329  0.6808
 2872TIP3   OH230106   3.483   2.019   2.245 -0.0404  0.6076 -0.4006
 2872TIP3    H130107   3.508   1.939   2.200  0.1061  0.8187 -0.6963
 2872TIP3    H230108   3.438   1.989   2.324  0.0257  0.2356 -0.5030
 2873TIP3   OH230109   2.279   2.806  16.257  0.3533  0.6020  0.1929
 2873TIP3    H130110   2.248   2.755  16.183  0.3270 -1.6839  1.6648
 2873TIP3    H230111   2.373   2.816  16.242  0.4259 -0.2284  0.0264
 2874TIP3   OH230112   4.932   4.848  15.036 -0.3892  0.2534 -0.6614
 2874TIP3    H130113   4.865   4.848  15.105  0.6919 -0.6670  0.4304
 2874TIP3    H230114   4.905   4.778  14.977 -0.4005 -0.1197 -0.2223
 2875TIP3   OH230115   5.739   6.311  10.794 -0.2666 -0.0164  0.5987
 2875TIP3    H130116   5.676   6.329  10.725 -1.0622  1.2458  1.6107
 2875TIP3    H230117   5.810   6.264  10.750 -1.3779 -0.4752 -0.7838
 2876TIP3   OH230118   3.040   1.886  12.959 -0.0873 -0.3713  0.5645
 2876TIP3    H130119   3.027   1.847  13.045 -0.1961  0.0255  0.7268
 2876TIP3    H230120   3.030   1.980  12.973 -2.3904 -0.4193 -0.2809
 2877TIP3   OH230121   0.591   5.905   3.876  0.1559 -0.3106 -0.2774
 2877TIP3    H130122   0.504   5.903   3.918 -0.9238  0.6105 -2.3324
 2877TIP3    H230123   0.651   5.928   3.947 -1.1980 -1.3007  1.2802
 2878TIP3   OH230124   2.303   4.515  12.345  0.3785 -0.2598  0.3383
 2878TIP3    H130125   2.235   4.535  12.281  0.3617 -1.8117 -0.1715
 2878TIP3    H230126   2.282   4.428  12.377  1.5968 -0.3842  0.8725
 2879TIP3   OH230127   5.777   1.313   1.963 -0.7909 -0.4745 -0.1279
 2879TIP3    H130128   5.844   1.296   2.029 -0.9684 -1.5780 -0.2178
 2879TIP3    H230129   5.823   1.304   1.879 -0.3548  1.7897 -0.1960
 2880TIP3   OH230130   0.376   6.271  12.298 -0.5299 -0.5347 -0.2514
 2880TIP3    H130131   0.392   6.365  12.307 -0.4975 -0.6883  1.8509
 2880TIP3    H230132   0.463   6.231  12.297 -0.4411 -0.7706  3.1380
 2881TIP3   OH230133   5.995   2.764  15.999 -0.5981 -0.0766  0.7598
 2881TIP3    H130134   5.935   2.699  15.965 -2.1722  1.6939 -0.0445
 2881TIP3    H230135   6.065   2.769  15.935 -2.4498  1.6904 -1.3139
 2882TIP3   OH230136   4.315   4.351  12.709  0.3431  0.2581  0.4152
 2882TIP3    H130137   4.334   4.305  12.627 -1.6251  0.4730 -0.2095
 2882TIP3    H230138   4.341   4.289  12.778 -0.0547 -0.8365 -0.3924
 2883TIP3   OH230139   4.989   1.690   2.175 -0.0257 -0.2781 -0.1935
 2883TIP3    H130140   4.915   1.748   2.194  1.3425  1.4796  0.1067
 2883TIP3    H230141   4.988   1.680   2.080 -0.1785  0.4393 -0.2766
 2884TIP3   OH230142   5.703   2.282  10.822  0.8179  0.0134  0.6045
 2884TIP3    H130143   5.781   2.277  10.767 -0.3436 -0.7844 -1.0670
 2884TIP3    H230144   5.727   2.238  10.903  1.3091 -2.7360 -0.9268
 2885TIP3   OH230145   6.238   3.212  16.350 -0.4829  0.0091 -0.1877
 2885TIP3    H130146   6.277   3.129  16.377 -2.2959 -0.8603 -0.1073
 2885TIP3    H230147   6.288   3.278  16.397  2.2989 -0.8109 -1.7230
 2886TIP3   OH230148   1.053   2.555  15.370  0.3076  0.7639 -0.4892
 2886TIP3    H130149   1.034   2.466  15.341 -0.3135  1.4020 -2.1731
 2886TIP3    H230150   0.969   2.588  15.403  0.2685  1.0606 -0.8695
 2887TIP3   OH230151   5.891   0.937  10.721  0.5327 -0.5510  0.1099
 2887TIP3    H130152   5.904   0.856  10.672 -2.0472 -0.6745 -0.5728
 2887TIP3    H230153   5.959   0.996  10.688  1.7526 -2.0604 -0.2080
 2888TIP3   OH230154   3.029   3.484   4.155 -0.1550  0.2610  0.0595
 2888TIP3    H130155   3.052   3.529   4.074 -0.1412 -0.7034 -0.4843
 2888TIP3    H230156   3.080   3.403   4.154 -0.3609  0.1022  0.8987
 2889TIP3   OH230157   0.518   2.833  16.834  0.4913 -0.2351 -0.6840
 2889TIP3    H130158   0.578   2.838  16.909 -0.6398 -1.2660  0.3390
 2889TIP3    H230159   0.492   2.923  16.818 -2.7560 -0.2180  3.1689
 2890TIP3   OH230160   4.326   4.059  17.180 -0.1350  0.7619 -0.0152
 2890TIP3    H130161   4.415   4.055  17.146  0.3530  1.8236  1.0713
 2890TIP3    H230162   4.336   4.080  17.272 -1.5232  3.7928 -0.4143
 2891TIP3   OH230163   2.229   5.679  13.001  0.4713 -0.4771  0.1770
 2891TIP3    H130164   2.161   5.736  13.037  0.1909  0.4546 -1.7270
 2891TIP3    H230165   2.309   5.706  13.045  0.7577  2.9343 -2.1212
 2892TIP3   OH230166   5.415   3.960   4.814  0.3989  0.5039 -0.1169
 2892TIP3    H130167   5.359   3.882   4.820 -1.1422  1.5833  0.1822
 2892TIP3    H230168   5.366   4.020   4.758  2.0056  0.9120 -1.1239
 2893TIP3   OH230169   4.483   4.227  13.439  0.4654  0.2097  0.0401
 2893TIP3    H130170   4.534   4.148  13.422  0.9165  0.2844  0.9652
 2893TIP3    H230171   4.498   4.245  13.532  0.1844  1.2514 -0.1088
 2894TIP3   OH230172   5.046   4.246   3.169 -0.3324  0.5870  0.3242
 2894TIP3    H130173   4.970   4.231   3.225 -0.9225  1.2589 -0.2778
 2894TIP3    H230174   5.030   4.192   3.092 -1.2340  2.2948 -0.7272
 2895TIP3   OH230175   3.169   1.519   1.226  0.1928  0.2418  0.0718
 2895TIP3    H130176   3.259   1.487   1.230  0.3764  0.8197  0.8326
 2895TIP3    H230177   3.143   1.505   1.135  1.8421  2.1103 -0.7736
 2896TIP3   OH230178   0.831   2.441   3.936  0.1628  0.0016 -0.1146
 2896TIP3    H130179   0.736   2.427   3.939  0.3496 -1.2142  1.1177
 2896TIP3    H230180   0.861   2.418   4.024  1.8836 -1.8049 -1.1222
 2897TIP3   OH230181   3.554   6.752  15.610 -0.2868 -0.0601  0.0530
 2897TIP3    H130182   3.571   6.674  15.662  1.1234 -0.4175 -0.8631
 2897TIP3    H230183   3.612   6.819  15.647 -0.1658  0.0260 -0.2863
 2898TIP3   OH230184   6.443   2.763   5.761  0.3882 -0.2923  0.3050
 2898TIP3    H130185   6.419   2.670   5.769 -0.4509 -0.0510  0.7153
 2898TIP3    H230186   6.392   2.794   5.686  0.5746 -0.1265  0.2471
 2899TIP3   OH230187   3.315   5.508  15.748 -0.2440 -1.0496  0.2680
 2899TIP3    H130188   3.307   5.504  15.844 -0.2441 -3.4285  0.2327
 2899TIP3    H230189   3.237   5.464  15.716 -0.7243  0.5748 -0.8975
 2900TIP3   OH230190   3.025   5.780  16.605 -0.3201 -0.0448  0.0209
 2900TIP3    H130191   3.094   5.811  16.546 -1.8922  2.3174 -0.7168
 2900TIP3    H230192   3.050   5.814  16.691  0.9162 -1.7553  0.3860
 2901TIP3   OH230193   5.919   2.154  14.762 -0.0990  0.6502 -0.3902
 2901TIP3    H130194   5.833   2.196  14.752 -0.1715  0.9379  1.1718
 2901TIP3    H230195   5.899   2.064  14.789  0.0855  0.4842 -0.8021
 2902TIP3   OH230196   1.477   2.066   6.127  0.7782  0.3120 -0.3637
 2902TIP3    H130197   1.567   2.048   6.099  0.8819 -0.2755  0.3382
 2902TIP3    H230198   1.432   1.982   6.121  0.9034  0.0743  1.5878
 2903TIP3   OH230199   3.396   1.420   2.732 -0.4247  0.0388 -0.4777
 2903TIP3    H130200   3.413   1.505   2.692  2.0272  0.3353  0.9494
 2903TIP3    H230201   3.333   1.439   2.802  0.1702  0.7391 -0.1110
 2904TIP3   OH230202   5.026   4.814  12.502  0.7979 -0.3661 -0.1512
 2904TIP3    H130203   4.990   4.727  12.518  1.5172 -0.7365 -0.4903
 2904TIP3    H230204   5.001   4.865  12.579  1.0871 -1.1074  0.4487
 2905TIP3   OH230205   3.986   0.105  10.189  0.2663  0.7794  0.3790
 2905TIP3    H130206   4.052   0.070  10.130  1.8108  0.5858  2.1245
 2905TIP3    H230207   3.906   0.109  10.136  1.3461 -0.2136 -1.4296
 2906TIP3   OH230208   4.697   4.909  16.010 -0.2551  0.5701 -1.0576
 2906TIP3    H130209   4.693   4.853  15.933 -1.5557  1.0476 -1.3606
 2906TIP3    H230210   4.787   4.898  16.043 -0.0630 -0.5884 -1.9077
 2907TIP3   OH230211   2.367   3.411   6.538  0.7815 -0.4210 -0.2809
 2907TIP3    H130212   2.296   3.365   6.493  0.2701  0.1464 -0.0741
 2907TIP3    H230213   2.403   3.347   6.599 -1.9247  0.2670  2.2598
 2908TIP3   OH230214   1.592   0.871   5.291  0.2605 -0.7432  0.5671
 2908TIP3    H130215   1.614   0.797   5.235 -1.6589 -0.6563 -0.4179
 2908TIP3    H230216   1.598   0.947   5.233 -2.8120 -0.7667  0.0150
 2909TIP3   OH230217   1.325   5.029   0.051  0.3945 -0.1198 -0.0271
 2909TIP3    H130218   1.289   4.941   0.039 -1.0586  0.6548 -1.9891
 2909TIP3    H230219   1.257   5.087   0.017  0.8437  1.8667  2.1867
 2910TIP3   OH230220   0.506   0.019   4.502 -0.4362 -0.1274  0.3560
 2910TIP3    H130221   0.413   0.022   4.525 -0.9456  0.4337 -1.5798
 2910TIP3    H230222   0.515  -0.062   4.452  0.6431 -1.3432  2.3954
 2911TIP3   OH230223   6.380   2.392   3.497 -0.5089 -0.4450  0.2081
 2911TIP3    H130224   6.375   2.476   3.544  1.1980  0.4670 -1.0912
 2911TIP3    H230225   6.432   2.412   3.419 -0.4352 -2.6385 -0.3683
 2912TIP3   OH230226   3.452   1.258   4.664 -0.1686 -0.4724 -0.1651
 2912TIP3    H130227   3.507   1.323   4.709  1.0118  0.4943 -2.7791
 2912TIP3    H230228   3.471   1.271   4.571 -2.0940 -2.6654 -0.9670
 2913TIP3   OH230229   4.738   5.319  16.552 -0.0062  0.0442  0.4112
 2913TIP3    H130230   4.786   5.329  16.635 -0.0082  0.3273  0.3771
 2913TIP3    H230231   4.665   5.380  16.559 -0.2002 -0.1772  0.3396
 2914TIP3   OH230232   0.749   6.485   0.288  0.5882  0.4127  0.4973
 2914TIP3    H130233   0.804   6.558   0.317  0.6697  0.0393  1.2972
 2914TIP3    H230234   0.808   6.410   0.286  0.2588  0.1464  0.7116
 2915TIP3   OH230235   6.216   5.189  16.276  0.0106  0.1208  0.6895
 2915TIP3    H130236   6.226   5.252  16.205  0.2367 -1.7670 -1.0646
 2915TIP3    H230237   6.154   5.231  16.336 -4.3616 -0.0171 -3.0723
 2916TIP3   OH230238   6.640   5.455   2.211  0.3016  0.2035  0.0516
 2916TIP3    H130239   6.584   5.392   2.165 -0.4249 -0.0003  1.1833
 2916TIP3    H230240   6.606   5.457   2.300  1.3814  0.9494  0.4690
 2917TIP3   OH230241   0.059   0.626   4.353 -0.7554 -0.2380 -0.6704
 2917TIP3    H130242  -0.019   0.672   4.386 -1.0992 -0.4997 -1.1136
 2917TIP3    H230243   0.128   0.651   4.414 -0.5231  2.2106 -1.7905
 2918TIP3   OH230244   6.743   5.037   4.055  0.4671 -0.4429  0.2483
 2918TIP3    H130245   6.761   5.044   4.149 -1.7281  0.0978  0.6817
 2918TIP3    H230246   6.713   4.947   4.044 -0.2231 -0.2224  0.2698
 2919TIP3   OH230247   5.010   0.546  16.781  0.0361 -0.8433  0.6283
 2919TIP3    H130248   4.956   0.558  16.859 -1.3318  0.8558 -0.4944
 2919TIP3    H230249   5.042   0.634  16.760  2.6368 -1.6710  0.7833
 2920TIP3   OH230250   3.001   4.533   5.390  0.1745 -0.3181  0.6233
 2920TIP3    H130251   2.914   4.550   5.354 -0.0790 -1.0372  0.8824
 2920TIP3    H230252   3.008   4.592   5.465  0.2426  0.3420  0.1048
 2921TIP3   OH230253   6.069   5.564   3.159 -0.7399 -0.1508 -0.3436
 2921TIP3    H130254   6.128   5.623   3.207 -0.3357 -0.3586 -0.5832
 2921TIP3    H230255   6.007   5.534   3.225  0.2372 -0.9962  0.2239
 2922TIP3   OH230256   6.714   6.020   1.976 -0.1484  0.0879 -0.2115
 2922TIP3    H130257   6.632   5.985   1.941  0.2306 -0.2094 -0.8165
 2922TIP3    H230258   6.764   6.046   1.899  1.0974 -1.4598  0.0215
 2923TIP3   OH230259   3.283   3.383  16.272 -0.0027  0.5152 -0.1471
 2923TIP3    H130260   3.243   3.464  16.304 -1.4646 -0.6723  1.2307
 2923TIP3    H230261   3.326   3.345  16.349 -0.1504 -0.4724 -0.5322
 2924TIP3   OH230262   4.065   2.370   5.890 -0.4700 -0.4048 -0.1847
 2924TIP3    H130263   4.069   2.438   5.957  0.6052 -0.2196 -0.4210
 2924TIP3    H230264   3.972   2.351   5.882 -0.5912 -0.9748  1.8959
 2925TIP3   OH230265   0.326   6.339  14.888 -0.4262 -0.2131  0.5667
 2925TIP3    H130266   0.320   6.359  14.981 -0.7733 -0.3067  0.5644
 2925TIP3    H230267   0.245   6.293  14.868 -0.2085 -0.4810  0.2890
 2926TIP3   OH230268   3.058   0.518   2.648  0.4954  0.1822 -0.2860
 2926TIP3    H130269   3.000   0.448   2.678 -0.4103  0.0789 -2.1312
 2926TIP3    H230270   3.128   0.474   2.601  0.3415  0.4629 -0.7857
 2927TIP3   OH230271   1.390   0.997  13.292 -0.3926  0.7051  0.3191
 2927TIP3    H130272   1.467   1.032  13.337 -0.2728  0.1002  0.5954
 2927TIP3    H230273   1.394   1.034  13.204 -0.2528  1.3566  0.5969
 2928TIP3   OH230274   2.124   4.191  13.045 -0.4464 -0.7560  0.2234
 2928TIP3    H130275   2.119   4.098  13.025 -0.2990 -0.8186  0.4844
 2928TIP3    H230276   2.041   4.227  13.012 -1.1118 -1.2110  1.3518
 2929TIP3   OH230277   2.070   3.769  12.159  0.0645  0.2405  0.1612
 2929TIP3    H130278   2.144   3.711  12.181 -0.2265 -0.0077  0.5019
 2929TIP3    H230279   2.048   3.748  12.069 -0.0873 -0.2403  0.3074
 2930TIP3   OH230280   0.282   5.942  16.285 -0.1575 -0.2089 -0.1825
 2930TIP3    H130281   0.288   6.035  16.264 -0.1609 -0.2742 -0.4778
 2930TIP3    H230282   0.372   5.912  16.291 -0.0629  0.3285  2.3045
 2931TIP3   OH230283   0.006   2.624   2.117  0.4129  0.1819  0.3476
 2931TIP3    H130284  -0.037   2.672   2.046  0.4264  2.0028  1.5133
 2931TIP3    H230285   0.041   2.692   2.175  0.8018 -1.2426  1.8748
 2932TIP3   OH230286   2.489   2.282  17.017 -0.3184 -0.1696 -0.4060
 2932TIP3    H130287   2.540   2.204  16.996 -0.5612 -0.3011 -0.5051
 2932TIP3    H230288   2.551   2.339  17.064 -0.6204 -1.1836  1.3283
 2933TIP3   OH230289   0.470   4.300   1.310 -0.0647 -0.2811 -0.0204
 2933TIP3    H130290   0.524   4.283   1.233  0.8656 -1.7503  0.8849
 2933TIP3    H230291   0.533   4.327   1.377 -0.4623 -1.5720  0.9266
 2934TIP3   OH230292   0.797   0.868  11.812 -0.3750  0.5087 -0.7753
 2934TIP3    H130293   0.889   0.891  11.825  0.0141 -0.6376 -1.3823
 2934TIP3    H230294   0.750   0.952  11.821  0.4720  0.8078  1.6058
 2935TIP3   OH230295   2.867   3.448   2.333 -0.3896  0.2163 -0.1416
 2935TIP3    H130296   2.898   3.379   2.392  1.6193  2.1935  1.2718
 2935TIP3    H230297   2.865   3.527   2.387 -1.5400  1.5152 -1.9593
 2936TIP3   OH230298   3.246   2.341  13.849  0.0822 -0.1989 -0.0055
 2936TIP3    H130299   3.295   2.422  13.864  0.2310 -0.0200 -1.3680
 2936TIP3    H230300   3.310   2.271  13.866  0.2063 -0.0152  0.2943
 2937TIP3   OH230301   4.889   0.548  16.339 -0.6061 -0.1159 -0.5419
 2937TIP3    H130302   4.915   0.521  16.250 -0.0408  0.6090 -0.6109
 2937TIP3    H230303   4.917   0.639  16.345 -1.6705  0.1934 -0.0106
 2938TIP3   OH230304   5.908   3.960   1.965  0.4567  0.2791  0.0224
 2938TIP3    H130305   5.840   3.931   1.904 -0.4729  2.1263  0.1089
 2938TIP3    H230306   5.921   4.052   1.944  2.6265  0.1075  0.3422
 2939TIP3   OH230307   5.236   3.084   0.354  0.1414  0.4876 -0.0532
 2939TIP3    H130308   5.306   3.149   0.361  1.8270 -1.1854 -0.6810
 2939TIP3    H230309   5.186   3.110   0.277  1.2430  0.6462 -0.7304
 2940TIP3   OH230310   3.231   2.452  12.922  0.6050 -0.2004 -0.0629
 2940TIP3    H130311   3.144   2.450  12.883 -0.6460 -2.5944  2.5857
 2940TIP3    H230312   3.262   2.541  12.905 -2.1262  0.5890 -1.4749
 2941TIP3   OH230313   6.156   6.694  14.362  0.2002 -0.1982  0.5552
 2941TIP3    H130314   6.247   6.693  14.393  0.0201  0.0165  1.0968
 2941TIP3    H230315   6.130   6.786  14.367 -0.2662 -0.3563  1.0562
 2942TIP3   OH230316   2.038   2.331   4.296  0.1613 -0.0820  0.5667
 2942TIP3    H130317   2.058   2.321   4.203 -1.5120  1.3602 -0.0047
 2942TIP3    H230318   2.122   2.318   4.341  1.4342  1.2684 -1.3042
 2943TIP3   OH230319   3.891   4.867  14.279 -0.4107 -0.2991 -0.1282
 2943TIP3    H130320   3.851   4.781  14.293 -1.1179 -0.2453 -1.6111
 2943TIP3    H230321   3.865   4.918  14.356 -1.2280 -0.9707  0.0632
 2944TIP3   OH230322   1.139   6.677   5.377  0.1576  0.7480  0.5813
 2944TIP3    H130323   1.047   6.668   5.399  0.1532 -1.5376 -0.0798
 2944TIP3    H230324   1.141   6.722   5.293 -0.2647  1.9132  1.1824
 2945TIP3   OH230325   6.265   3.439  12.491 -1.1308  0.0414 -0.7671
 2945TIP3    H130326   6.348   3.434  12.539 -0.6802  0.2934 -1.5113
 2945TIP3    H230327   6.250   3.533  12.479 -1.9260  0.0337  0.0338
 2946TIP3   OH230328   6.510   1.607   2.325 -0.0737  0.3762  0.1428
 2946TIP3    H130329   6.548   1.556   2.397  0.7672 -0.9256 -1.1853
 2946TIP3    H230330   6.557   1.579   2.247 -2.6623 -0.1267 -1.3449
 2947TIP3   OH230331   1.526   6.680   0.365  0.2036  0.0599  0.6022
 2947TIP3    H130332   1.466   6.753   0.384  1.2434  0.9244  0.6724
 2947TIP3    H230333   1.477   6.602   0.391 -1.1726  0.6700 -0.0484
 2948TIP3   OH230334   6.553   4.141   4.754  0.4843  0.3365 -0.1826
 2948TIP3    H130335   6.574   4.234   4.750 -0.0410  0.6321  2.1093
 2948TIP3    H230336   6.638   4.098   4.762  0.9669  0.2645 -4.0628
 2949TIP3   OH230337   3.227   1.102   2.772 -0.0752 -0.8945 -0.5177
 2949TIP3    H130338   3.180   1.029   2.731 -1.6203 -0.2516  0.0063
 2949TIP3    H230339   3.316   1.069   2.786 -0.6273 -2.5427 -0.6343
 2950TIP3   OH230340   2.713   0.380  11.991 -0.5364 -0.5211 -0.4400
 2950TIP3    H130341   2.668   0.304  12.027 -0.2904 -0.2700  0.4115
 2950TIP3    H230342   2.650   0.418  11.929  0.2446 -2.8546 -2.8753
 2951TIP3   OH230343   4.507   4.249   2.742  0.0133  0.5195  0.2062
 2951TIP3    H130344   4.563   4.299   2.683  0.3048 -1.1543 -1.0184
 2951TIP3    H230345   4.437   4.311   2.767 -0.0939  1.3130 -1.8664
 2952TIP3   OH230346   3.120   5.142  15.732  0.3304  0.7198  0.0112
 2952TIP3    H130347   3.184   5.177  15.794 -0.6903  0.6751  1.1251
 2952TIP3    H230348   3.112   5.050  15.755 -0.3073  0.7797  0.0443
 2953TIP3   OH230349   1.685   0.035  14.035  0.1184 -0.0007  0.0523
 2953TIP3    H130350   1.623   0.006  13.969 -0.2272  2.5897 -0.8774
 2953TIP3    H230351   1.725  -0.046  14.068 -0.6033 -1.4575 -2.4002
 2954TIP3   OH230352   3.634   1.498   0.306 -0.1756 -0.4474 -0.1024
 2954TIP3    H130353   3.681   1.537   0.380 -1.0505  1.3004 -0.4071
 2954TIP3    H230354   3.692   1.511   0.232 -0.3373  0.0666 -0.1479
 2955TIP3   OH230355   0.930   5.020  13.667  0.4304  1.4475 -0.5256
 2955TIP3    H130356   1.024   5.030  13.648  1.9833 -1.2158  4.0650
 2955TIP3    H230357   0.906   5.102  13.710  1.6711  1.0586  1.0450
 2956TIP3   OH230358   2.988   3.999  13.306 -0.1331  0.2819  0.0756
 2956TIP3    H130359   2.936   4.038  13.235 -0.9075  1.2043  1.1265
 2956TIP3    H230360   2.934   3.927  13.338 -0.1494  0.3900  0.2863
 2957TIP3   OH230361   2.355   3.119   2.798  0.0047  0.0089  0.0835
 2957TIP3    H130362   2.355   3.214   2.787  0.8836 -0.1767 -2.1526
 2957TIP3    H230363   2.270   3.092   2.764 -0.8392  0.0542  2.0362
 2958TIP3   OH230364   2.744   6.369  14.266 -0.3248  0.1713 -0.3370
 2958TIP3    H130365   2.816   6.393  14.324 -1.2143 -0.5249  1.1171
 2958TIP3    H230366   2.779   6.382  14.178  1.7850 -0.7170  0.2999
 2959TIP3   OH230367   5.767   2.003  14.992 -0.4988 -0.5256  0.0052
 2959TIP3    H130368   5.772   1.957  14.908 -0.8899  0.2889 -0.4773
 2959TIP3    H230369   5.716   1.945  15.048  0.5018 -1.4815 -0.0415
 2960TIP3   OH230370   1.433   3.944   0.053  0.6207  0.5989  0.1854
 2960TIP3    H130371   1.417   3.863   0.005 -0.6857  1.2185 -0.4589
 2960TIP3    H230372   1.528   3.944   0.069  0.4800 -1.7552  1.5143
 2961TIP3   OH230373   1.357   3.673  11.284  0.4110 -0.0142 -0.1687
 2961TIP3    H130374   1.373   3.767  11.295  2.8601 -0.4457  0.4272
 2961TIP3    H230375   1.305   3.667  11.204  0.4382  1.8292 -0.3700
 2962TIP3   OH230376   4.738   4.636  13.682  0.2678  0.3655 -0.1253
 2962TIP3    H130377   4.816   4.687  13.703  1.8999 -1.6972 -0.8610
 2962TIP3    H230378   4.665   4.689  13.715  1.9871  2.0807  1.1353
 2963TIP3   OH230379   3.208   3.058  12.248 -0.0030 -0.6704 -0.6238
 2963TIP3    H130380   3.251   3.129  12.200  2.2389 -1.6410 -0.1933
 2963TIP3    H230381   3.259   3.050  12.329 -1.6040 -1.3067  0.3738
 2964TIP3   OH230382   5.474   2.911  12.859  0.3050 -0.5172 -0.3209
 2964TIP3    H130383   5.418   2.833  12.863  1.9907 -1.8752 -1.3016
 2964TIP3    H230384   5.425   2.973  12.805 -1.7993 -0.1772  1.8132
 2965TIP3   OH230385   5.591   3.282  12.869  0.2578  0.4842 -0.4766
 2965TIP3    H130386   5.523   3.348  12.854 -0.4340  0.0334  0.5104
 2965TIP3    H230387   5.591   3.229  12.789 -0.9505  0.1639 -0.2883
 2966TIP3   OH230388   3.051   6.155   3.407 -0.0165 -0.1142  0.0370
 2966TIP3    H130389   3.074   6.077   3.457  0.4483  0.0296  0.0475
 2966TIP3    H230390   2.956   6.148   3.395 -0.0207 -0.5302  0.2894
 2967TIP3   OH230391   1.885   2.700  12.591  0.1766  0.3696 -0.0936
 2967TIP3    H130392   1.949   2.670  12.525 -0.4226  0.0245 -0.5254
 2967TIP3    H230393   1.839   2.772  12.549  2.0768  2.4767  1.1846
 2968TIP3   OH230394   0.178   5.797  15.692 -0.4821  0.0803 -0.4222
 2968TIP3    H130395   0.192   5.828  15.602 -0.0384 -0.1992 -0.4565
 2968TIP3    H230396   0.110   5.854  15.727 -0.8359  0.0408 -1.0171
 2969TIP3   OH230397   3.793   5.677   2.613 -0.3849  0.4770  0.2717
 2969TIP3    H130398   3.881   5.683   2.577 -0.5671  1.4455 -0.0334
 2969TIP3    H230399   3.775   5.765   2.646 -0.8357  0.0224  1.3009
 2970TIP3   OH230400   1.687   3.563   6.445  0.1089  0.9220 -0.5575
 2970TIP3    H130401   1.717   3.518   6.524 -0.4043  1.9988  0.2677
 2970TIP3    H230402   1.728   3.514   6.373 -0.3042 -0.7492  0.3015
 2971TIP3   OH230403   4.030   5.887   0.732  0.3118 -0.0101  0.0981
 2971TIP3    H130404   3.957   5.825   0.730  0.1578  0.1651  0.2751
 2971TIP3    H230405   4.006   5.955   0.669 -0.3678  0.8157  1.2062
 2972TIP3   OH230406   1.678   3.552  17.255 -0.0173 -0.0220 -0.2106
 2972TIP3    H130407   1.731   3.610  17.201 -0.8126 -0.0463 -1.0470
 2972TIP3    H230408   1.736   3.527  17.327  0.5467  1.2847 -0.1766
 2973TIP3   OH230409   2.916   6.227   0.995  0.1089  0.3138 -0.0263
 2973TIP3    H130410   2.882   6.159   1.053 -0.4166 -1.2531 -2.0573
 2973TIP3    H230411   2.923   6.305   1.050  0.6498 -1.3358  2.3693
 2974TIP3   OH230412   1.590   0.183  11.376 -0.1758 -0.1664 -0.2792
 2974TIP3    H130413   1.508   0.151  11.339 -0.5125 -0.8240  0.9961
 2974TIP3    H230414   1.658   0.140  11.324 -0.6372 -0.9079 -0.2861
 2975TIP3   OH230415   5.444   4.673   2.121 -0.6091  0.2850  0.0559
 2975TIP3    H130416   5.457   4.723   2.040 -2.9415 -0.8385 -1.1306
 2975TIP3    H230417   5.510   4.605   2.118 -2.2497 -1.3927 -2.3983
 2976TIP3   OH230418   2.974   1.815   4.179  0.4058  0.1931 -0.4852
 2976TIP3    H130419   3.061   1.833   4.213  0.0453  0.5224  0.2939
 2976TIP3    H230420   2.931   1.765   4.249  0.1035 -0.3235 -1.0271
 2977TIP3   OH230421   6.347   6.656   1.950  0.2362  0.3721 -0.0363
 2977TIP3    H130422   6.393   6.740   1.957  0.7444  0.1668 -0.7860
 2977TIP3    H230423   6.267   6.668   2.000 -1.2808  2.3872 -2.6955
 2978TIP3   OH230424   4.718   4.822   2.805 -0.2154  0.2440  0.4391
 2978TIP3    H130425   4.803   4.783   2.823  0.1738 -0.0214 -1.6903
 2978TIP3    H230426   4.736   4.892   2.743 -1.6114 -0.4310 -0.8051
 2979TIP3   OH230427   5.266   4.679   1.596  0.2835 -0.3047  0.3641
 2979TIP3    H130428   5.342   4.631   1.565  0.2141  0.3216 -0.8279
 2979TIP3    H230429   5.194   4.616   1.593  0.2260 -0.2021 -1.0185
 2980TIP3   OH230430   1.612   2.120   3.627  0.5229 -0.1240 -0.3480
 2980TIP3    H130431   1.606   2.139   3.721  2.0495 -1.3922  0.0468
 2980TIP3    H230432   1.591   2.203   3.585  2.4797  1.2588  1.1882
 2981TIP3   OH230433   3.856   5.196   2.243  0.1889  0.5112 -0.1066
 2981TIP3    H130434   3.766   5.218   2.219  0.4310  1.2842 -0.3102
 2981TIP3    H230435   3.852   5.103   2.267 -0.4517  0.2469 -1.1755
 2982TIP3   OH230436   2.726   2.050  15.428 -0.0865 -0.1519 -0.1180
 2982TIP3    H130437   2.771   1.968  15.450 -1.5951 -1.8318 -2.6878
 2982TIP3    H230438   2.654   2.056  15.491  0.8076 -0.0644  0.9183
 2983TIP3   OH230439   4.130   0.191   0.711 -0.2718  0.3232  0.6087
 2983TIP3    H130440   4.107   0.102   0.736 -0.0319 -0.6946 -2.4211
 2983TIP3    H230441   4.053   0.223   0.663  1.1090  0.1164 -1.9382
 2984TIP3   OH230442   4.140   0.202  11.387 -0.5401  0.2359  0.2347
 2984TIP3    H130443   4.092   0.259  11.447 -0.6651  1.6524 -1.1464
 2984TIP3    H230444   4.123   0.239  11.300  0.2985 -1.2565 -0.6073
 2985TIP3   OH230445   3.424   0.802  15.675 -0.4461 -0.1973  0.0109
 2985TIP3    H130446   3.448   0.885  15.634 -2.0813  0.5246  0.4318
 2985TIP3    H230447   3.484   0.795  15.750  0.7876 -0.2355 -0.9437
 2986TIP3   OH230448   2.352   6.609  12.709 -0.0781  0.4687 -0.2202
 2986TIP3    H130449   2.431   6.571  12.747 -0.8480  0.7199  1.7916
 2986TIP3    H230450   2.297   6.534  12.687  0.3441  0.3153 -0.7534
 2987TIP3   OH230451   4.678   5.952  16.241  0.3127  0.6204  0.2952
 2987TIP3    H130452   4.742   5.902  16.191  1.8996  2.1250  0.6750
 2987TIP3    H230453   4.680   6.040  16.202 -2.3199  0.4912 -0.3242
 2988TIP3   OH230454   4.330   1.910   0.398  0.4942  0.3896 -0.1128
 2988TIP3    H130455   4.389   1.853   0.349  2.0618  0.9159  1.0873
 2988TIP3    H230456   4.243   1.876   0.379  1.3370 -2.1182  0.1810
 2989TIP3   OH230457   4.715   0.378  12.923 -0.0379  0.0211 -0.0731
 2989TIP3    H130458   4.788   0.316  12.931 -0.1632  0.1272  2.7114
 2989TIP3    H230459   4.697   0.381  12.829  2.7141 -0.9554 -0.7290
 2990TIP3   OH230460   4.942   4.492   1.259  0.6390 -0.9459 -0.0406
 2990TIP3    H130461   4.936   4.448   1.344  0.9606 -2.0919 -0.5930
 2990TIP3    H230462   5.024   4.541   1.264  1.0225 -1.5788  0.0673
 2991TIP3   OH230463   5.465   3.294  16.164 -0.0961 -0.2935  0.2129
 2991TIP3    H130464   5.451   3.332  16.251 -2.9217 -3.3610  1.3124
 2991TIP3    H230465   5.500   3.207  16.181 -0.4846 -0.8703 -1.7334
 2992TIP3   OH230466   5.888   0.309   0.918  0.3906 -0.5171 -0.3140
 2992TIP3    H130467   5.795   0.325   0.937  0.4566 -0.7724  0.2391
 2992TIP3    H230468   5.920   0.260   0.994  0.9148 -0.6618 -0.6235
 2993TIP3   OH230469   4.740   2.629  10.716  0.0527 -0.0337 -0.3158
 2993TIP3    H130470   4.829   2.595  10.720 -0.6103 -1.7329  2.2484
 2993TIP3    H230471   4.693   2.567  10.660 -0.5333 -2.0289  2.2092
 2994TIP3   OH230472   5.477   0.767   1.507  0.5961 -0.0263 -0.2029
 2994TIP3    H130473   5.478   0.800   1.597  0.9858 -0.8925  0.1131
 2994TIP3    H230474   5.477   0.846   1.453  0.2627  0.5016  0.5566
 2995TIP3   OH230475   4.891   4.183   6.583  0.0562 -0.4025  0.0779
 2995TIP3    H130476   4.886   4.243   6.657 -0.1554 -2.4525  1.8237
 2995TIP3    H230477   4.984   4.184   6.557 -0.3475  2.6060 -1.7450
 2996TIP3   OH230478   2.516   6.541   4.886  0.0089 -0.2803  0.2975
 2996TIP3    H130479   2.517   6.602   4.961 -2.6862  0.3376 -0.0494
 2996TIP3    H230480   2.493   6.457   4.924  1.2922 -0.5674  0.4678
 2997TIP3   OH230481   5.755   6.418  11.295 -0.1049  0.0505 -0.1004
 2997TIP3    H130482   5.720   6.448  11.379 -0.0167 -1.2672  0.4360
 2997TIP3    H230483   5.725   6.483  11.231  1.2894  2.0949  1.1804
 2998TIP3   OH230484   2.840   4.472  14.050 -0.1056 -0.1382  0.6802
 2998TIP3    H130485   2.781   4.525  13.996 -0.7088  0.3644  1.7867
 2998TIP3    H230486   2.893   4.536  14.097  0.4112 -0.5635  0.6806
 2999TIP3   OH230487   0.004   1.064   1.300  0.1603  0.5427 -0.0922
 2999TIP3    H130488   0.023   1.084   1.392 -0.2342  1.4464 -0.1990
 2999TIP3    H230489   0.053   1.130   1.250 -1.2956  1.3803 -0.4516
 3000TIP3   OH230490   4.328   6.403   0.055 -0.2162 -0.2693  0.0924
 3000TIP3    H130491   4.389   6.444  -0.007  0.4230 -0.3534  0.6598
 3000TIP3    H230492   4.346   6.309   0.047 -1.4372 -0.4413 -0.9521
 3001TIP3   OH230493   5.691   0.426   4.469  0.2589  0.0332 -0.3371
 3001TIP3    H130494   5.608   0.440   4.423  0.8014  2.1878 -0.7541
 3001TIP3    H230495   5.744   0.376   4.407 -0.4843 -0.8219 -0.3098
 3002TIP3   OH230496   6.044   6.017   0.442 -0.5386 -0.1829  0.0739
 3002TIP3    H130497   6.099   5.989   0.369  0.2265  0.5990  0.3360
 3002TIP3    H230498   6.073   5.963   0.516 -0.2276  0.1243  0.1761
 3003TIP3   OH230499   5.486   4.529  12.714 -0.4131  0.5668  0.3108
 3003TIP3    H130500   5.462   4.620  12.697  0.5160  1.0445  1.4281
 3003TIP3    H230501   5.559   4.534  12.776 -2.2739 -0.9776  2.8175
 3004TIP3   OH230502   6.081   6.732   0.596  0.1885 -0.4014 -0.3349
 3004TIP3    H130503   6.020   6.806   0.601  1.8918  1.0961 -0.8587
 3004TIP3    H230504   6.069   6.698   0.507  0.7247  0.4467 -0.7409
 3005TIP3   OH230505   4.554   0.023  13.216  0.6596  0.2681 -0.4521
 3005TIP3    H130506   4.574   0.109  13.178  0.0266  0.3960 -0.5208
 3005TIP3    H230507   4.475   0.039  13.268  1.0230 -0.0942  0.2162
 3006TIP3   OH230508   4.176   0.210  14.837  0.0472  0.0214  0.3595
 3006TIP3    H130509   4.118   0.159  14.893 -0.7881 -0.2930 -0.7560
 3006TIP3    H230510   4.257   0.218  14.888 -0.3234 -1.1213  1.1805
 3007TIP3   OH230511   1.490   0.771  11.328 -0.0841 -0.0947 -0.2396
 3007TIP3    H130512   1.564   0.806  11.278 -2.5701  3.3778 -1.9272
 3007TIP3    H230513   1.458   0.697  11.276  1.2361 -0.6492 -0.2922
 3008TIP3   OH230514   0.938   5.572   5.085 -0.3184  0.2738  0.1403
 3008TIP3    H130515   0.936   5.652   5.137  1.3706  0.0787  0.5873
 3008TIP3    H230516   0.915   5.600   4.996  0.8916  1.4214  0.1478
 3009TIP3   OH230517   2.963   3.821   5.701 -0.1618 -0.9316  0.4650
 3009TIP3    H130518   2.868   3.817   5.713  0.0148 -0.9763  1.9706
 3009TIP3    H230519   2.987   3.908   5.733  0.4780 -1.4763  1.5203
 3010TIP3   OH230520   3.798   5.129  13.255  0.5770 -0.4905  0.3208
 3010TIP3    H130521   3.747   5.121  13.174  1.9396  0.0932 -0.6388
 3010TIP3    H230522   3.813   5.039  13.282 -1.5696 -0.6846  1.0728
 3011TIP3   OH230523   1.403   1.058  12.030  0.1864 -0.5765 -0.2373
 3011TIP3    H130524   1.493   1.028  12.045  0.2350  0.0233  0.8406
 3011TIP3    H230525   1.359   0.984  11.989  1.1236 -0.9515 -0.5916
 3012TIP3   OH230526   4.441   5.231  14.241 -0.0555 -0.3389  0.1849
 3012TIP3    H130527   4.418   5.172  14.312  1.6864  0.3471  1.4145
 3012TIP3    H230528   4.526   5.268  14.268 -0.1377  1.1916 -1.4671
 3013TIP3   OH230529   1.529   3.926   4.000  0.1168  0.0367 -0.1602
 3013TIP3    H130530   1.592   3.934   4.071 -0.8834  0.2455  0.7284
 3013TIP3    H230531   1.582   3.925   3.921  1.1865  0.9290  0.5167
 3014TIP3   OH230532   0.193   6.066  14.532  0.2400  0.4162  0.3303
 3014TIP3    H130533   0.264   6.055  14.596  0.7679  0.9548 -0.1519
 3014TIP3    H230534   0.130   5.998  14.554  1.5305 -0.9522 -0.0728
 3015TIP3   OH230535   6.561   0.395   1.127  0.0547  0.0242  0.4272
 3015TIP3    H130536   6.655   0.379   1.119  0.2704  0.4967  1.8168
 3015TIP3    H230537   6.527   0.320   1.175 -0.2376 -0.0263  0.1424
 3016TIP3   OH230538   1.000   0.787  11.521  0.1055 -0.1457  0.4451
 3016TIP3    H130539   1.027   0.777  11.429 -1.6448  1.7038 -0.3362
 3016TIP3    H230540   1.046   0.865  11.551 -0.4497  0.0844  0.6975
 3017TIP3   OH230541   1.556   0.222  12.483 -0.1692  0.3886 -0.0281
 3017TIP3    H130542   1.471   0.181  12.494 -0.0771  0.4220  0.9600
 3017TIP3    H230543   1.616   0.166  12.533  0.5992 -0.2406 -1.5780
 3018TIP3   OH230544   5.221   3.351  14.681  0.2178  0.0706 -0.8487
 3018TIP3    H130545   5.308   3.361  14.643  0.1078 -0.9692 -1.4023
 3018TIP3    H230546   5.214   3.258  14.701 -1.4058 -0.1972 -2.3881
 3019TIP3   OH230547   3.443   6.180  11.765  0.7041 -0.1837  0.8897
 3019TIP3    H130548   3.363   6.128  11.766  1.5399 -1.5810 -1.0073
 3019TIP3    H230549   3.488   6.156  11.684  2.4036  1.5781  1.2157
 3020TIP3   OH230550   4.468   4.792  11.280  0.2296 -0.4320  0.2958
 3020TIP3    H130551   4.539   4.819  11.221 -0.2866 -2.2217 -1.2258
 3020TIP3    H230552   4.390   4.792  11.224 -0.5224 -0.9232  1.3250
 3021TIP3   OH230553   2.298   0.010  14.790  0.1271 -0.0432  0.1683
 3021TIP3    H130554   2.326  -0.042  14.714  0.5211  1.3383 -0.6645
 3021TIP3    H230555   2.214  -0.027  14.814  0.0393 -0.5794 -0.8826
 3022TIP3   OH230556   6.289   6.671   3.466  0.3065  0.2296 -0.3814
 3022TIP3    H130557   6.214   6.614   3.453  1.3897 -1.5085  0.5539
 3022TIP3    H230558   6.290   6.687   3.561  1.1583  0.1799 -0.3786
 3023TIP3   OH230559   4.639   3.085  17.029  0.0817  0.1607 -0.1605
 3023TIP3    H130560   4.725   3.062  16.993 -0.2566  0.4899 -1.2338
 3023TIP3    H230561   4.597   3.001  17.045  1.2399 -0.0525  2.0710
 3024TIP3   OH230562   2.815   4.378   5.043  0.1425 -0.1002 -0.5072
 3024TIP3    H130563   2.846   4.388   4.953  0.9015 -1.0052 -0.3538
 3024TIP3    H230564   2.859   4.300   5.076 -0.2826  0.0998  0.5903
 3025TIP3   OH230565   6.221   6.767  15.455 -0.1024  0.1973  0.4263
 3025TIP3    H130566   6.168   6.765  15.534 -0.6635  0.3761  0.0635
 3025TIP3    H230567   6.311   6.780  15.486 -0.3363  0.4081  1.0211
 3026TIP3   OH230568   5.209   0.561   5.738 -0.0697  0.2162 -0.4210
 3026TIP3    H130569   5.255   0.630   5.786  2.7497 -1.1676 -0.9249
 3026TIP3    H230570   5.152   0.520   5.803  1.7708  0.0108  1.1622
 3027TIP3   OH230571   6.191   2.186  15.143 -0.7303  0.0015  0.4085
 3027TIP3    H130572   6.121   2.129  15.111 -0.0084 -1.3395  1.1290
 3027TIP3    H230573   6.269   2.130  15.143 -0.0922  0.8547  1.5568
 3028TIP3   OH230574   5.093   0.807   2.699  0.0392  0.3241  0.0223
 3028TIP3    H130575   5.085   0.876   2.765  0.3007  0.1194  0.2701
 3028TIP3    H230576   5.154   0.843   2.634 -0.3955  0.6168 -0.2300
 3029TIP3   OH230577   0.271   4.005   1.130 -0.2826  0.4248  0.0599
 3029TIP3    H130578   0.337   3.943   1.098 -1.0386 -0.2477 -0.2363
 3029TIP3    H230579   0.309   4.091   1.113  0.4255  0.0535 -0.3066
 3030TIP3   OH230580   6.642   2.221   3.938  0.2386 -0.1467 -0.2309
 3030TIP3    H130581   6.648   2.312   3.966  0.3365  0.0124 -0.7641
 3030TIP3    H230582   6.568   2.185   3.988  1.3128 -0.2801  1.3243
 3031TIP3   OH230583   2.942   1.018   2.194  0.2465  0.2711  0.7047
 3031TIP3    H130584   2.981   1.105   2.202  0.2917  0.2431  0.7932
 3031TIP3    H230585   2.953   0.979   2.281  1.4463 -0.3331  0.3065
 3032TIP3   OH230586   3.017   5.417   3.965  0.2561  0.1836  0.3386
 3032TIP3    H130587   3.043   5.464   3.886  2.4220 -0.5545  0.5294
 3032TIP3    H230588   3.085   5.351   3.977  0.1797  0.4604  2.9756
 3033TIP3   OH230589   6.377   0.367   3.847  0.1010  0.8339 -0.6467
 3033TIP3    H130590   6.447   0.409   3.798  1.2328  0.6162  0.7439
 3033TIP3    H230591   6.342   0.301   3.787  1.3765  0.6483 -1.2132
 3034TIP3   OH230592   4.041   4.787  15.076 -0.4263 -0.3729  0.0573
 3034TIP3    H130593   4.042   4.696  15.046  0.2085  0.0265 -1.1952
 3034TIP3    H230594   4.131   4.816  15.069 -1.0724  1.3547 -2.8898
 3035TIP3   OH230595   4.248   5.023  16.512  0.2720  0.1957 -0.5344
 3035TIP3    H130596   4.156   4.996  16.508 -0.0925  1.5026 -1.5447
 3035TIP3    H230597   4.254   5.076  16.591  0.0958  0.3086 -0.5957
 3036TIP3   OH230598   4.598   3.377   0.322  0.0443  0.3887 -0.0267
 3036TIP3    H130599   4.526   3.440   0.334  0.6351  1.0134  0.3026
 3036TIP3    H230600   4.677   3.431   0.326  0.4795  0.1342 -3.0921
 3037TIP3   OH230601   4.931   4.913   0.718  0.2767 -0.3472  0.3377
 3037TIP3    H130602   4.891   4.859   0.650  0.7766 -0.8846  0.4573
 3037TIP3    H230603   5.021   4.880   0.724  0.4652  0.2258  0.7051
 3038TIP3   OH230604   1.044   4.846  13.969  0.4551 -0.2543 -0.2207
 3038TIP3    H130605   0.991   4.774  14.003 -0.3349  0.4989  0.1524
 3038TIP3    H230606   0.981   4.908  13.933  1.0529  0.6816  0.2888
 3039TIP3   OH230607   0.587   4.290  15.277 -0.0379 -0.0812 -0.1280
 3039TIP3    H130608   0.515   4.252  15.226 -0.1659 -2.2842  1.5435
 3039TIP3    H230609   0.634   4.345  15.215 -2.4475  0.4946 -1.5783
 3040TIP3   OH230610   0.248   6.402   0.592 -0.4553 -0.3237 -0.4369
 3040TIP3    H130611   0.198   6.446   0.523 -0.4520  1.1762  0.4890
 3040TIP3    H230612   0.328   6.373   0.548 -0.2083  1.0989 -0.9740
 3041TIP3   OH230613   0.201   4.624  16.236 -0.2070 -0.0964 -0.6808
 3041TIP3    H130614   0.277   4.593  16.285  0.2962  0.8578 -0.8351
 3041TIP3    H230615   0.126   4.590  16.285  0.3057 -1.5807 -0.8807
 3042TIP3   OH230616   3.174   5.023  13.004 -0.3108  0.0089 -0.2991
 3042TIP3    H130617   3.182   5.112  13.038  0.4923 -0.9290  2.2487
 3042TIP3    H230618   3.139   4.972  13.078  0.8151 -2.0745 -1.0965
 3043TIP3   OH230619   3.028   0.288   2.290 -0.2914  0.2823 -0.3128
 3043TIP3    H130620   3.097   0.350   2.310  0.4763 -0.3843 -0.8462
 3043TIP3    H230621   3.061   0.238   2.215 -1.1053 -0.4236 -0.2187
 3044TIP3   OH230622   4.840   0.014  13.596  0.3310  0.7404  0.0303
 3044TIP3    H130623   4.874  -0.056  13.653  0.8522  1.6138  0.8114
 3044TIP3    H230624   4.916   0.070  13.579  0.7377 -0.5854 -3.2625
 3045TIP3   OH230625   0.422   5.375   1.341 -0.0749  0.0283 -0.3977
 3045TIP3    H130626   0.497   5.365   1.400  0.7401 -1.3447 -1.6010
 3045TIP3    H230627   0.382   5.288   1.337 -0.1153  0.0804 -1.8190
 3046TIP3   OH230628   1.804   3.569  13.440 -0.5265  0.1237 -0.2273
 3046TIP3    H130629   1.873   3.512  13.473 -1.4749 -1.3696 -0.7079
 3046TIP3    H230630   1.734   3.562  13.505 -0.3774  1.3557  0.0862
 3047TIP3   OH230631   0.545   5.736   4.717 -0.2466  0.4514 -0.4324
 3047TIP3    H130632   0.559   5.816   4.666 -1.3290  0.9621  0.0493
 3047TIP3    H230633   0.590   5.667   4.667  0.9512  1.3934 -0.7072
 3048TIP3   OH230634   5.579   3.648  11.741  0.1511 -0.2705 -0.0296
 3048TIP3    H130635   5.668   3.680  11.733  0.3847 -0.8909  0.0371
 3048TIP3    H230636   5.533   3.715  11.792  0.6919 -0.1760  0.3316
 3049TIP3   OH230637   2.082   2.688   4.919 -0.2443  0.4836  0.1338
 3049TIP3    H130638   2.077   2.658   5.009  0.0160 -0.1227 -0.0523
 3049TIP3    H230639   2.014   2.755   4.912 -0.3318  0.4581  0.7489
 3050TIP3   OH230640   4.053   1.888   2.277 -0.1047 -0.0117  0.1250
 3050TIP3    H130641   4.036   1.981   2.294  0.0638  0.6650 -2.9353
 3050TIP3    H230642   3.968   1.853   2.252  0.2393 -0.1109 -0.9465
 3051TIP3   OH230643   0.324   1.915   3.705  0.0872 -0.7535 -0.1790
 3051TIP3    H130644   0.289   2.001   3.686  0.0496 -1.2096 -2.3746
 3051TIP3    H230645   0.249   1.866   3.742  0.3397  0.3493  1.9500
 3052TIP3   OH230646   0.964   2.622  13.858  0.6439  0.1069  0.8964
 3052TIP3    H130647   1.054   2.623  13.823  0.1113  1.6503 -0.6074
 3052TIP3    H230648   0.915   2.570  13.794  0.2650  0.1246  1.1735
 3053TIP3   OH230649   1.518   0.717  12.270 -0.6100 -0.0321  0.7487
 3053TIP3    H130650   1.534   0.759  12.354  3.3027 -2.6878  1.6197
 3053TIP3    H230651   1.537   0.624  12.285 -0.0517 -0.6768 -2.9151
 3054TIP3   OH230652   1.037   1.002   2.888 -0.3424 -0.1467  0.4325
 3054TIP3    H130653   1.121   1.030   2.851 -1.0599 -0.8993 -1.9653
 3054TIP3    H230654   1.058   0.926   2.942  0.5757  0.0521  0.3721
 3055TIP3   OH230655   4.602   5.788   4.759  0.0378  0.5822 -0.1363
 3055TIP3    H130656   4.555   5.870   4.777  1.1133  0.5519  3.6651
 3055TIP3    H230657   4.693   5.814   4.749  0.3255 -0.0753  0.6598
 3056TIP3   OH230658   4.334   1.155  13.056 -0.2816 -0.4875  0.1585
 3056TIP3    H130659   4.265   1.105  13.011 -0.7055 -0.8470  1.1930
 3056TIP3    H230660   4.404   1.093  13.071 -0.4628 -0.5697  0.6870
 3057TIP3   OH230661   0.323   2.501   5.482  0.0866  0.3620 -0.1623
 3057TIP3    H130662   0.351   2.448   5.556 -0.0232  0.1690 -0.2597
 3057TIP3    H230663   0.285   2.439   5.420  0.9810  0.4083 -0.7695
 3058TIP3   OH230664   4.741   4.645  16.327 -0.0652 -0.2342 -0.2152
 3058TIP3    H130665   4.729   4.564  16.375 -2.0383 -0.9968 -1.8534
 3058TIP3    H230666   4.835   4.649  16.308  0.3363 -1.1869  1.4015
 3059TIP3   OH230667   2.612   0.209   3.382 -0.1115  0.2737 -0.1474
 3059TIP3    H130668   2.603   0.265   3.459 -0.5354 -0.7432  0.5622
 3059TIP3    H230669   2.543   0.144   3.391  0.1188 -0.1341 -1.1605
 3060TIP3   OH230670   1.136   6.126   3.314 -0.0247  0.3147 -0.2398
 3060TIP3    H130671   1.109   6.158   3.400 -0.0730 -2.2375  0.7894
 3060TIP3    H230672   1.054   6.119   3.265 -0.0506  1.3754 -0.3601
 3061TIP3   OH230673   5.086   4.371  15.597  0.9115  0.0570  0.0146
 3061TIP3    H130674   5.025   4.438  15.627  1.8027  0.6465  0.5452
 3061TIP3    H230675   5.084   4.304  15.665 -0.9426 -1.1103 -1.1210
 3062TIP3   OH230676   6.544   3.692   3.969  0.0388  0.0072 -0.4199
 3062TIP3    H130677   6.587   3.722   3.889  1.7693  1.3711  0.9577
 3062TIP3    H230678   6.452   3.679   3.943  0.0688  2.5609 -2.1088
 3063TIP3   OH230679   2.271   3.695  11.463 -0.1264 -0.5701 -0.4458
 3063TIP3    H130680   2.235   3.782  11.443  0.7899  0.0081  0.3354
 3063TIP3    H230681   2.322   3.672  11.386 -0.2480 -0.3419 -0.5965
 3064TIP3   OH230682   0.762   5.817   0.694 -0.3852  0.0531 -0.1567
 3064TIP3    H130683   0.831   5.760   0.660  1.5592  4.0066 -3.7246
 3064TIP3    H230684   0.793   5.842   0.781 -0.3047 -2.5921  0.6503
 3065TIP3   OH230685   5.402   0.126  13.698  0.7159  0.4058  0.6970
 3065TIP3    H130686   5.431   0.143  13.788 -1.4907  0.3829  1.4849
 3065TIP3    H230687   5.309   0.151  13.698  0.7723  0.8130 -1.7060
 3066TIP3   OH230688   5.726   3.233   1.166 -0.6637 -0.7084 -0.3262
 3066TIP3    H130689   5.723   3.193   1.253 -0.8928 -2.2092 -1.0015
 3066TIP3    H230690   5.760   3.321   1.182 -2.3754 -0.3187  1.4906
 3067TIP3   OH230691   2.745   3.972   2.552 -0.2736 -0.3641 -0.8086
 3067TIP3    H130692   2.688   3.967   2.476 -1.5354  1.7080 -0.0900
 3067TIP3    H230693   2.746   4.065   2.575  1.1573 -0.7490  0.9030
 3068TIP3   OH230694   6.001   1.432  14.519 -0.6036 -0.3649  0.1150
 3068TIP3    H130695   5.919   1.389  14.495 -1.2196 -0.7411  2.5949
 3068TIP3    H230696   5.994   1.446  14.613  2.1531 -0.2654  0.3887
 3069TIP3   OH230697   2.408   4.184  13.738  0.3529  0.5914  0.0939
 3069TIP3    H130698   2.432   4.269  13.700 -1.8307  0.6436 -1.3124
 3069TIP3    H230699   2.453   4.120  13.683  2.3801  0.7617  1.4330
 3070TIP3   OH230700   0.348   6.707   2.091 -0.5991  0.3891 -0.0139
 3070TIP3    H130701   0.352   6.773   2.022  1.8205  1.4577  1.0381
 3070TIP3    H230702   0.338   6.757   2.172 -1.3873 -0.7282  0.6184
 3071TIP3   OH230703   1.329   4.444  11.396  0.1100 -0.7900  0.0876
 3071TIP3    H130704   1.385   4.381  11.442 -1.2215 -1.3059  1.0720
 3071TIP3    H230705   1.247   4.444  11.446 -0.0721  1.4696 -0.0846
 3072TIP3   OH230706   2.827   2.530   0.964 -0.3593  0.1831  0.2472
 3072TIP3    H130707   2.876   2.454   0.995 -0.0982  0.2125 -0.0853
 3072TIP3    H230708   2.747   2.531   1.018 -0.4916 -0.4836  0.0744
 3073TIP3   OH230709   6.581   0.187   1.551  0.0230 -0.0963  0.5423
 3073TIP3    H130710   6.660   0.154   1.594 -0.1519 -0.8956  0.2702
 3073TIP3    H230711   6.590   0.159   1.460 -0.6189 -0.2893  0.5313
 3074TIP3   OH230712   6.149   0.964   2.038 -0.7414  0.5441 -0.4420
 3074TIP3    H130713   6.161   1.054   2.006  0.6864  0.3799 -0.4049
 3074TIP3    H230714   6.159   0.910   1.959 -1.7164  0.3982 -0.4863
 3075TIP3   OH230715   3.715   5.127   0.013  0.5429  0.5089  0.0570
 3075TIP3    H130716   3.736   5.203  -0.041 -1.1637 -0.9253 -2.8505
 3075TIP3    H230717   3.624   5.140   0.040  0.9297  0.5146  1.4515
 3076TIP3   OH230718   4.627   5.653  12.794  0.4564 -0.2701  0.0499
 3076TIP3    H130719   4.550   5.631  12.741  0.1814 -2.2663  1.1861
 3076TIP3    H230720   4.591   5.704  12.867  0.4545  0.1507 -0.2405
 3077TIP3   OH230721   2.860   2.672  12.802 -0.0720 -0.0060 -0.3982
 3077TIP3    H130722   2.790   2.698  12.743 -0.5173 -1.5975 -0.6135
 3077TIP3    H230723   2.940   2.692  12.754 -0.4253 -0.9486 -1.4124
 3078TIP3   OH230724   6.469   6.735   4.693  0.2663 -0.2504 -0.3119
 3078TIP3    H130725   6.492   6.784   4.613  0.9940 -1.5577 -0.9401
 3078TIP3    H230726   6.544   6.749   4.751 -0.4600  1.0625  0.3418
 3079TIP3   OH230727   3.245   5.511   4.223  0.0222  0.5238  0.4593
 3079TIP3    H130728   3.285   5.589   4.261 -0.7060  0.6310  1.0161
 3079TIP3    H230729   3.167   5.495   4.276 -1.3886  1.0348 -1.3611
 3080TIP3   OH230730   6.757   1.614   4.050 -0.4858 -0.1698  0.4852
 3080TIP3    H130731   6.760   1.646   4.140 -1.1851 -1.8622  1.1568
 3080TIP3    H230732   6.676   1.650   4.013  0.4954  1.6956  0.0080
 3081TIP3   OH230733   0.873   1.152   3.894 -0.2513  0.0380 -0.5558
 3081TIP3    H130734   0.857   1.168   3.801 -3.2534 -0.9649 -0.3261
 3081TIP3    H230735   0.831   1.068   3.912 -1.4550  1.0829  2.0496
 3082TIP3   OH230736   5.657   1.316   3.989 -0.4587 -0.1165 -0.0178
 3082TIP3    H130737   5.672   1.391   4.046 -4.1124  1.7878 -1.1806
 3082TIP3    H230738   5.712   1.247   4.024  1.4035  2.4346  2.5320
 3083TIP3   OH230739   1.784   3.887  13.542  0.3301 -0.7182  0.2160
 3083TIP3    H130740   1.689   3.886  13.530  0.3342 -1.6397  0.1896
 3083TIP3    H230741   1.819   3.864  13.456  0.7263  2.7711 -0.7259
 3084TIP3   OH230742   2.834   3.857  11.556 -0.1647 -0.1711  0.1665
 3084TIP3    H130743   2.754   3.821  11.518 -0.2205  0.2551 -0.1245
 3084TIP3    H230744   2.902   3.837  11.492 -0.0836 -0.3060  0.2948
 3085TIP3   OH230745   0.850   5.344   0.710 -0.3959 -0.1716 -0.4707
 3085TIP3    H130746   0.777   5.404   0.723 -0.6476 -0.4750 -0.4708
 3085TIP3    H230747   0.815   5.258   0.733 -0.0406 -0.3200 -0.4758
 3086TIP3   OH230748   3.799   4.269   5.179 -0.1202 -0.6569  0.1620
 3086TIP3    H130749   3.732   4.293   5.243 -0.0071 -1.4761  0.6047
 3086TIP3    H230750   3.833   4.352   5.147 -2.4254 -0.1692 -1.2385
 3087TIP3   OH230751   2.207   4.593  12.707 -0.0154 -0.1166 -0.1987
 3087TIP3    H130752   2.154   4.562  12.633  0.0372 -0.0293 -0.2733
 3087TIP3    H230753   2.260   4.517  12.732 -0.8166 -0.4777  0.4518
 3088TIP3   OH230754   6.243   2.600   0.878 -0.2311 -0.1264 -0.0863
 3088TIP3    H130755   6.168   2.628   0.932 -0.5654  0.2451 -0.7324
 3088TIP3    H230756   6.318   2.605   0.937 -0.7549 -0.7712  0.6536
 3089TIP3   OH230757   0.548   1.293  13.643 -0.4472 -0.0226 -0.1922
 3089TIP3    H130758   0.487   1.219  13.645  0.3437 -0.7092 -0.7894
 3089TIP3    H230759   0.619   1.267  13.701 -0.5392  0.6199  0.2170
 3090TIP3   OH230760   1.072   0.936  14.729 -0.1164  0.2041  0.3044
 3090TIP3    H130761   1.065   0.851  14.686 -0.0699 -0.0127  0.7135
 3090TIP3    H230762   1.111   0.993  14.663  1.1257 -0.4248  0.4445
 3091TIP3   OH230763   3.245   4.874  10.948  0.6346  0.0627 -0.2752
 3091TIP3    H130764   3.198   4.911  10.874  0.8522  0.4055 -0.2431
 3091TIP3    H230765   3.205   4.914  11.025 -1.6377 -2.4903  0.0242
 3092TIP3   OH230766   6.772   6.813  15.078  0.3076  0.5400  0.7061
 3092TIP3    H130767   6.797   6.849  14.993 -1.6797 -1.3634 -0.7950
 3092TIP3    H230768   6.851   6.768  15.109  0.1274 -2.0024 -2.0284
 3093TIP3   OH230769   2.189   4.850  16.428  0.4161  0.1075  0.3436
 3093TIP3    H130770   2.179   4.830  16.335 -0.1123 -2.0718  0.8280
 3093TIP3    H230771   2.125   4.919  16.445  0.5450  0.5452 -0.9039
 3094TIP3   OH230772   4.144   5.340  14.431 -0.1257  0.3698  0.7106
 3094TIP3    H130773   4.076   5.393  14.474  0.5041  1.0232  0.9384
 3094TIP3    H230774   4.155   5.381  14.345  0.1412  0.4108  0.7644
 3095TIP3   OH230775   1.886   0.538   1.584 -0.3094  0.7383  0.5796
 3095TIP3    H130776   1.868   0.445   1.597 -0.8658  0.8470  0.6320
 3095TIP3    H230777   1.980   0.547   1.596  0.0894 -0.1531 -1.5365
 3096TIP3   OH230778   6.222   4.778  11.125  0.1711 -0.0066 -0.6939
 3096TIP3    H130779   6.258   4.710  11.183  1.3643 -0.9207 -2.4095
 3096TIP3    H230780   6.136   4.745  11.099 -1.2501  1.3217  1.9857
 3097TIP3   OH230781   5.317   3.539  16.030  0.0973  0.6255 -0.2832
 3097TIP3    H130782   5.358   3.452  16.031 -1.6978 -0.3105 -1.8399
 3097TIP3    H230783   5.262   3.539  15.951 -2.8469  1.7474  1.5844
 3098TIP3   OH230784   1.893   1.579  11.547  0.0368 -0.3100 -0.2138
 3098TIP3    H130785   1.921   1.514  11.612 -0.4819 -0.6508 -0.3198
 3098TIP3    H230786   1.910   1.663  11.589  2.4616 -0.4335 -0.7889
 3099TIP3   OH230787   4.184   3.811  14.850 -0.3495  0.2396  1.0192
 3099TIP3    H130788   4.115   3.748  14.830  0.3698 -0.7890  1.6717
 3099TIP3    H230789   4.265   3.768  14.822  0.3311  0.1307  3.0007
 3100TIP3   OH230790   4.387   6.316   5.695 -0.0919 -0.1062 -0.1907
 3100TIP3    H130791   4.403   6.289   5.785 -0.3236  1.6949  0.4375
 3100TIP3    H230792   4.470   6.303   5.650  0.4698  0.3959  0.6800
 3101TIP3   OH230793   4.333   2.091   0.598 -0.6825 -0.1466 -0.0547
 3101TIP3    H130794   4.305   2.065   0.510  0.4681  0.9874 -0.8070
 3101TIP3    H230795   4.283   2.170   0.617  0.3666  0.6562 -0.4995
 3102TIP3   OH230796   6.020   0.027  15.264  0.2924  0.1837 -0.2251
 3102TIP3    H130797   6.091   0.038  15.327 -1.4402  4.2871  1.4285
 3102TIP3    H230798   5.956  -0.029  15.309 -0.1910  1.7061  1.0853
 3103TIP3   OH230799   1.629   6.135   0.214 -0.6827 -0.0637  0.4796
 3103TIP3    H130800   1.573   6.102   0.143  0.7893  1.7065 -1.6247
 3103TIP3    H230801   1.708   6.082   0.208 -0.9682 -0.6576  1.6048
 3104TIP3   OH230802   1.830   1.721  13.412 -0.4569 -0.4187 -0.0361
 3104TIP3    H130803   1.799   1.655  13.474 -0.0675  1.2953  2.0939
 3104TIP3    H230804   1.751   1.770  13.388 -0.4638 -0.5227 -0.2343
 3105TIP3   OH230805   6.273   2.182  16.798  0.4715  0.3949  0.4070
 3105TIP3    H130806   6.187   2.141  16.791 -0.0447  1.1787  1.6844
 3105TIP3    H230807   6.324   2.144  16.727 -1.0790  0.2818 -0.6872
 3106TIP3   OH230808   1.674   5.003   6.133 -0.4717  0.3498  0.3019
 3106TIP3    H130809   1.714   5.058   6.201  0.1674  1.7860 -1.1772
 3106TIP3    H230810   1.649   4.923   6.180  0.6696  0.9438  2.0629
 3107TIP3   OH230811   3.359   0.312  10.805  0.0753  1.0880  0.6106
 3107TIP3    H130812   3.395   0.370  10.738 -0.1401 -0.6325 -1.1043
 3107TIP3    H230813   3.264   0.324  10.798 -0.1437 -1.1068 -1.4760
 3108TIP3   OH230814   4.888   5.673  13.109  0.4120  0.3434  0.1739
 3108TIP3    H130815   4.959   5.691  13.047 -0.5761  2.4008 -0.4330
 3108TIP3    H230816   4.913   5.590  13.150  3.2368  1.0244  0.0574
 3109TIP3   OH230817   5.141   2.730   5.159 -0.1729 -0.0514  0.1232
 3109TIP3    H130818   5.051   2.699   5.151  0.0923 -0.5387 -1.1550
 3109TIP3    H230819   5.176   2.727   5.070  1.6040 -1.3864  0.8072
 3110TIP3   OH230820   6.034   6.529   0.829  0.1231  0.6933 -0.1720
 3110TIP3    H130821   5.962   6.528   0.766 -0.2335  0.4835  0.2306
 3110TIP3    H230822   6.101   6.583   0.788 -0.2157  0.7918 -0.6067
 3111TIP3   OH230823   6.598   6.630  12.846  0.1858  0.4186  0.0820
 3111TIP3    H130824   6.537   6.573  12.893 -0.8660 -0.7048 -2.4687
 3111TIP3    H230825   6.670   6.573  12.820 -0.9681  0.0368 -2.6675
 3112TIP3   OH230826   1.639   4.216   2.432  0.2307  1.0709 -0.5980
 3112TIP3    H130827   1.562   4.160   2.431  0.6858  0.4055  0.1805
 3112TIP3    H230828   1.636   4.263   2.349  0.5657 -1.0969 -1.9008
 3113TIP3   OH230829   0.998   6.493   3.092  0.3734  0.0656  0.2769
 3113TIP3    H130830   0.972   6.442   3.015 -1.9026 -1.2202  1.7909
 3113TIP3    H230831   1.092   6.475   3.103 -0.1265 -3.0703  0.1718
 3114TIP3   OH230832   5.830   0.205   0.132 -0.0904 -0.1413 -0.2857
 3114TIP3    H130833   5.753   0.162   0.169 -0.2407 -0.5228 -1.0312
 3114TIP3    H230834   5.900   0.186   0.195 -0.5162 -0.1040  0.2080
 3115TIP3   OH230835   2.735   2.102   5.601 -0.3432  0.4010 -0.2939
 3115TIP3    H130836   2.773   2.150   5.527  0.7409 -0.6130 -0.4247
 3115TIP3    H230837   2.769   2.013   5.591  0.7841  0.5080  2.0866
 3116TIP3   OH230838   4.351   0.456  13.068 -0.1937 -0.0351  0.2921
 3116TIP3    H130839   4.299   0.516  13.121  0.0184 -0.4154  0.9470
 3116TIP3    H230840   4.302   0.446  12.987 -0.3688  0.8021  0.2909
 3117TIP3   OH230841   4.866   4.956   1.934  0.0218  0.5495 -0.0525
 3117TIP3    H130842   4.813   4.975   2.012 -0.4714 -1.0248  0.0287
 3117TIP3    H230843   4.808   4.976   1.860  0.4448  1.9150 -0.0474
 3118TIP3   OH230844   3.559   2.603  15.292  0.0615  0.0591  0.2990
 3118TIP3    H130845   3.557   2.519  15.338 -0.8885  1.5852  3.2765
 3118TIP3    H230846   3.476   2.605  15.243 -0.2486 -0.4756  0.7855
 3119TIP3   OH230847   0.554   3.165   5.528  0.1168  0.2868  0.1713
 3119TIP3    H130848   0.516   3.107   5.462  0.9296  0.0249 -0.0808
 3119TIP3    H230849   0.479   3.195   5.580 -0.3417 -0.8776  0.2125
 3120TIP3   OH230850   4.231   4.938  10.866  0.7537  0.8284  0.2861
 3120TIP3    H130851   4.172   4.966  10.936  1.7467  2.6451  0.4533
 3120TIP3    H230852   4.289   5.012  10.852  2.6454 -0.6603 -0.2751
 3121TIP3   OH230853   5.849   4.272   4.082  0.1700  0.1386  0.1354
 3121TIP3    H130854   5.928   4.325   4.092  0.2566 -0.0613  0.5713
 3121TIP3    H230855   5.781   4.322   4.127  0.3846 -0.3930  1.0814
 3122TIP3   OH230856   6.153   6.435   0.194 -1.1524 -0.4892  0.2731
 3122TIP3    H130857   6.220   6.366   0.190 -1.1003 -0.5893  2.0812
 3122TIP3    H230858   6.204   6.516   0.195 -0.9550 -0.5890  2.5456
 3123TIP3   OH230859   3.613   2.778  13.603  0.1663 -0.3408 -0.1842
 3123TIP3    H130860   3.677   2.817  13.544 -0.9951  0.5090 -0.9232
 3123TIP3    H230861   3.649   2.692  13.624 -0.2052 -1.4545 -3.5653
 3124TIP3   OH230862   2.741   4.181   3.018 -0.2966  0.0144 -0.1973
 3124TIP3    H130863   2.830   4.214   3.026 -0.4678  0.3710  0.3137
 3124TIP3    H230864   2.747   4.089   3.043  0.2290 -0.4347 -1.8732
 3125TIP3   OH230865   5.206   5.786  15.046 -0.2436  0.3001 -0.1453
 3125TIP3    H130866   5.261   5.709  15.033  0.7954  1.2766 -1.8722
 3125TIP3    H230867   5.130   5.753  15.095  0.7358 -1.5527  0.2155
 3126TIP3   OH230868   3.960   0.490  11.526 -0.1885  0.4120  0.1992
 3126TIP3    H130869   4.026   0.490  11.457 -1.2574 -0.6704 -0.8891
 3126TIP3    H230870   3.913   0.408  11.514 -0.3686  0.1566  2.2964
 3127TIP3   OH230871   5.791   0.322   4.713 -0.1482  0.0214 -0.2793
 3127TIP3    H130872   5.710   0.274   4.696 -2.2458  2.8976  0.6324
 3127TIP3    H230873   5.791   0.392   4.647  1.1479  0.5538  0.2625
 3128TIP3   OH230874   0.525   0.037   0.381 -0.4515 -0.0732  0.0655
 3128TIP3    H130875   0.584  -0.001   0.446 -0.5575  0.9684  0.7955
 3128TIP3    H230876   0.570   0.115   0.349 -0.9113  0.0660 -0.2577
 3129TIP3   OH230877   5.875   4.794   6.159 -0.2291  0.6648 -0.0895
 3129TIP3    H130878   5.970   4.788   6.160 -0.2063  0.7070  2.3753
 3129TIP3    H230879   5.848   4.773   6.248 -2.5812  0.1466 -0.8416
 3130TIP3   OH230880   6.663   2.295   2.061 -0.4905 -0.2847 -0.2922
 3130TIP3    H130881   6.683   2.360   1.994  2.1321 -1.4133 -0.7190
 3130TIP3    H230882   6.686   2.338   2.143  2.1520 -0.9191 -0.6427
 3131TIP3   OH230883   3.881   1.797   2.807  0.5508 -0.3900 -0.4311
 3131TIP3    H130884   3.849   1.788   2.718 -0.8062 -3.1055  0.2107
 3131TIP3    H230885   3.845   1.880   2.838 -1.3943 -0.7803 -1.4973
 3132TIP3   OH230886   1.658   1.173   4.398 -0.3639 -0.0081 -0.1783
 3132TIP3    H130887   1.728   1.219   4.445 -1.1532 -1.5014  2.7142
 3132TIP3    H230888   1.577   1.206   4.436 -1.0383 -1.5931 -0.1313
 3133TIP3   OH230889   6.118   3.251   5.606  0.7246  0.1662  0.3129
 3133TIP3    H130890   6.095   3.313   5.537  0.3753 -0.2223  0.0720
 3133TIP3    H230891   6.040   3.197   5.616  0.4541  0.7626  1.6230
 3134TIP3   OH230892   2.445   5.433   4.461 -0.0757 -0.5748  0.1209
 3134TIP3    H130893   2.533   5.418   4.427 -0.0236 -1.3740  0.5824
 3134TIP3    H230894   2.458   5.469   4.549 -0.2153  0.4835 -0.2757
 3135TIP3   OH230895   3.306   0.816   5.024  0.4684 -0.1474 -0.0241
 3135TIP3    H130896   3.285   0.841   5.114 -2.3994  0.3349 -0.7247
 3135TIP3    H230897   3.373   0.749   5.033  0.7622  0.3766  2.4276
 3136TIP3   OH230898   1.640   3.097   3.635  0.6717 -0.3724  0.7372
 3136TIP3    H130899   1.572   3.151   3.594 -1.0138 -1.3731  2.0924
 3136TIP3    H230900   1.617   3.007   3.611  2.5375 -0.6470 -0.1955
 3137TIP3   OH230901   4.738   4.212  11.537 -0.5727  0.1649 -0.3724
 3137TIP3    H130902   4.643   4.209  11.537 -0.5479 -2.0874 -0.0163
 3137TIP3    H230903   4.765   4.148  11.471  0.7186  1.3624 -1.0717
 3138TIP3   OH230904   3.924   2.041   4.392 -0.6393 -0.0809  0.3199
 3138TIP3    H130905   3.995   1.977   4.395 -1.7893 -1.4601 -0.6964
 3138TIP3    H230906   3.950   2.108   4.455  0.8116 -1.3305  1.1232
 3139TIP3   OH230907   1.395   1.353   4.381 -0.1086 -0.2411  0.1767
 3139TIP3    H130908   1.336   1.291   4.422  0.0300  0.2631  1.1590
 3139TIP3    H230909   1.382   1.340   4.287 -1.4910 -0.4066  0.3715
 3140TIP3   OH230910   6.628   2.096   6.085  0.5608  0.1132 -0.4739
 3140TIP3    H130911   6.556   2.036   6.069  1.0672 -0.5683 -0.2600
 3140TIP3    H230912   6.594   2.182   6.062  0.2098 -0.4034 -2.0430
 3141TIP3   OH230913   4.110   4.573  11.168 -0.0350  0.4540 -0.2339
 3141TIP3    H130914   4.131   4.603  11.256  0.6051  0.0964 -0.2569
 3141TIP3    H230915   4.022   4.605  11.152  0.1778  1.2731  0.1995
 3142TIP3   OH230916   1.704   3.012   3.982  0.2355 -0.2219 -0.2771
 3142TIP3    H130917   1.686   3.092   3.932 -0.4113 -0.8334 -1.0500
 3142TIP3    H230918   1.736   2.950   3.916 -2.3347 -1.6323 -0.3124
 3143TIP3   OH230919   3.184   5.260   1.305 -0.3155  0.1001  0.3063
 3143TIP3    H130920   3.225   5.175   1.322 -1.0688 -0.4813 -0.6511
 3143TIP3    H230921   3.091   5.240   1.297 -0.3384  0.7192 -1.6088
 3144TIP3   OH230922   1.640   0.654   1.507  0.1068  0.4627  0.1767
 3144TIP3    H130923   1.718   0.608   1.538 -1.4051 -0.8937  2.2743
 3144TIP3    H230924   1.609   0.602   1.433  0.4627  0.2495  0.1748
 3145TIP3   OH230925   6.285   6.153   1.587 -0.3121 -0.5974 -0.1601
 3145TIP3    H130926   6.240   6.187   1.664 -0.2333 -0.3110 -0.2381
 3145TIP3    H230927   6.220   6.156   1.517  0.1973  1.1024 -0.6074
 3146TIP3   OH230928   6.360   3.322  11.840  0.0675 -0.8030 -0.1728
 3146TIP3    H130929   6.319   3.327  11.754 -0.0059 -0.6600 -0.1307
 3146TIP3    H230930   6.452   3.341  11.824 -0.0361 -0.2871 -0.1495
 3147TIP3   OH230931   4.212   1.527   2.773  0.6922 -0.1931  0.5213
 3147TIP3    H130932   4.252   1.571   2.848  2.0078  1.2863 -0.9507
 3147TIP3    H230933   4.287   1.496   2.721 -0.0994  0.2852 -0.9799
 3148TIP3   OH230934   1.074   2.383  12.981  0.2114  0.3296 -0.3887
 3148TIP3    H130935   1.096   2.315  13.045 -0.3049  0.8280  0.3302
 3148TIP3    H230936   1.056   2.334  12.900  1.5205 -0.2608 -0.3611
 3149TIP3   OH230937   4.010   3.494  16.759  0.4649 -0.6739  0.8411
 3149TIP3    H130938   4.077   3.544  16.805  2.2477 -1.0760 -1.1929
 3149TIP3    H230939   3.929   3.542  16.775  1.1025 -0.3704  3.6755
 3150TIP3   OH230940   0.307   0.949   5.433 -0.4352 -0.3598 -0.0492
 3150TIP3    H130941   0.239   1.009   5.465 -0.0602  0.7951 -1.2966
 3150TIP3    H230942   0.259   0.879   5.389 -0.8502 -0.0977 -0.0208
 3151TIP3   OH230943   5.337   0.643   4.281  0.6945  0.4458 -0.3287
 3151TIP3    H130944   5.368   0.731   4.305 -1.5793  1.0739  0.6336
 3151TIP3    H230945   5.412   0.586   4.296  1.2138  1.7207  2.6187
 3152TIP3   OH230946   1.075   6.591   4.828  0.1172  0.4347 -0.6702
 3152TIP3    H130947   1.108   6.649   4.759  0.4960  1.0703  0.0345
 3152TIP3    H230948   1.135   6.517   4.828  1.3197  1.3618  0.2848
 3153TIP3   OH230949   2.319   4.036   6.378  0.4616  0.0668  0.2462
 3153TIP3    H130950   2.231   3.999   6.386  0.6972 -1.5969 -2.8764
 3153TIP3    H230951   2.306   4.122   6.338  0.1947 -0.0598  0.0575
 3154TIP3   OH230952   0.747   0.957  15.413  0.3935  0.3227  0.8586
 3154TIP3    H130953   0.826   0.972  15.465  0.5888 -0.5466  0.8274
 3154TIP3    H230954   0.733   0.863  15.418  0.6815  0.1529 -1.0657
 3155TIP3   OH230955   2.033   3.838  17.071 -0.6539  0.2550  0.3164
 3155TIP3    H130956   2.028   3.919  17.021 -0.7761 -0.0342 -0.1482
 3155TIP3    H230957   1.942   3.810  17.081 -0.5769 -0.1275 -0.0294
 3156TIP3   OH230958   5.732   1.136  14.564 -0.0620 -0.0331 -0.2238
 3156TIP3    H130959   5.703   1.062  14.617  1.3196  0.4442  1.2707
 3156TIP3    H230960   5.802   1.176  14.615 -0.9502  2.4929 -0.8747
 3157TIP3   OH230961   1.639   0.238   0.995 -0.2521  0.5019  0.0081
 3157TIP3    H130962   1.712   0.278   1.041  0.6082 -1.4049  0.3868
 3157TIP3    H230963   1.678   0.168   0.943 -1.7629 -0.3382 -0.0620
 3158TIP3   OH230964   0.106   6.736  14.769  0.3525  0.0177  0.0205
 3158TIP3    H130965   0.161   6.694  14.835 -0.2469 -0.8890 -0.0386
 3158TIP3    H230966   0.121   6.829  14.781  0.8354 -0.1670  0.9285
 3159TIP3   OH230967   6.732   6.323  13.595 -0.0995  0.0379  0.6890
 3159TIP3    H130968   6.639   6.310  13.574 -0.0754  0.4288  0.3308
 3159TIP3    H230969   6.736   6.413  13.628  0.2425  0.2107  0.1782
 3160TIP3   OH230970   1.923   1.714   3.969  0.0673 -0.5913  0.2674
 3160TIP3    H130971   1.992   1.762   4.016 -0.2112 -0.3300  0.4143
 3160TIP3    H230972   1.843   1.761   3.990 -0.4545 -2.0156  1.7034
 3161TIP3   OH230973   0.108   0.671   2.582  0.0562  0.1130 -0.9064
 3161TIP3    H130974   0.034   0.704   2.532 -2.1710 -1.6262  1.0532
 3161TIP3    H230975   0.120   0.581   2.552  0.4914 -0.0487 -0.2858
 3162TIP3   OH230976   3.488   4.079   0.299  0.2046  0.3259 -0.6114
 3162TIP3    H130977   3.527   4.155   0.255  0.6554 -0.0318 -0.8450
 3162TIP3    H230978   3.562   4.018   0.310 -0.1783 -0.1281 -0.5398
 3163TIP3   OH230979   3.792   4.339   3.135  0.2299  0.0547  0.3551
 3163TIP3    H130980   3.729   4.328   3.207  1.4003 -1.3910  1.2358
 3163TIP3    H230981   3.843   4.416   3.159 -0.7718  0.8720 -0.0581
 3164TIP3   OH230982   6.701   3.935  11.106 -0.4532  0.8361 -0.0293
 3164TIP3    H130983   6.645   3.925  11.029 -1.1057  2.5586  0.1740
 3164TIP3    H230984   6.742   4.021  11.094  1.1095  0.2070  0.5073
 3165TIP3   OH230985   2.854   2.700  12.235  0.0634 -0.3176  0.6455
 3165TIP3    H130986   2.859   2.795  12.218  0.3404 -0.3156  0.7230
 3165TIP3    H230987   2.815   2.694  12.322  1.1762 -0.2185  1.1812
 3166TIP3   OH230988   2.350   4.611   4.473 -0.0892 -0.2925  0.4351
 3166TIP3    H130989   2.333   4.609   4.567  2.3829  0.0946  0.9679
 3166TIP3    H230990   2.322   4.699   4.446 -1.4587 -0.6464  0.6311
 3167TIP3   OH230991   2.107   1.157   5.684 -0.3499 -1.1502  0.4578
 3167TIP3    H130992   2.194   1.122   5.666 -0.5684 -1.6249  0.3177
 3167TIP3    H230993   2.115   1.251   5.666 -0.8621 -1.6999 -3.4701
 3168TIP3   OH230994   4.906   1.122   4.120 -0.2305  0.6430 -0.0600
 3168TIP3    H130995   4.833   1.167   4.163 -0.0834  1.1167 -0.2968
 3168TIP3    H230996   4.878   1.031   4.116  0.4303  0.2294  2.5357
 3169TIP3   OH230997   5.830   3.454  16.008 -0.1544 -0.4919 -0.1611
 3169TIP3    H130998   5.892   3.404  16.061  0.4462  0.4916  0.0879
 3169TIP3    H230999   5.770   3.388  15.973  0.2435 -1.3054  0.6538
 3170TIP3   OH231000   3.010   1.329  12.506 -0.3219 -0.1244 -0.1324
 3170TIP3    H131001   3.055   1.386  12.444  0.9867  0.1837  1.0467
 3170TIP3    H231002   2.943   1.384  12.546  0.7756  0.5710  0.8267
 3171TIP3   OH231003   3.253   0.033   1.125 -0.0445  0.3528 -0.0288
 3171TIP3    H131004   3.340  -0.006   1.114 -0.1874 -0.2369  0.7880
 3171TIP3    H231005   3.270   0.123   1.152  0.3064  0.4798 -0.6693
 3172TIP3   OH231006   1.564   1.438  16.076  0.1069  0.1092 -0.1483
 3172TIP3    H131007   1.599   1.503  16.137  2.2203 -0.5185 -0.6348
 3172TIP3    H231008   1.521   1.373  16.132  1.2970 -0.0265  0.6328
 3173TIP3   OH231009   6.647   3.727  16.863  0.1907  0.0531  0.0544
 3173TIP3    H131010   6.677   3.799  16.919 -0.3606  0.8395 -0.6490
 3173TIP3    H231011   6.723   3.705  16.809  0.1990  0.4724 -0.1034
 3174TIP3   OH231012   0.196   5.538  14.245 -0.5098 -0.2442  0.3567
 3174TIP3    H131013   0.286   5.507  14.234  0.8548  2.2704  3.0756
 3174TIP3    H231014   0.199   5.629  14.217 -3.1882 -0.9170 -2.7772
 3175TIP3   OH231015   5.446   5.736  11.413  0.3139  0.4346 -0.3212
 3175TIP3    H131016   5.435   5.652  11.369  0.4083  0.4585 -0.3907
 3175TIP3    H231017   5.523   5.725  11.469 -0.1939  0.1925  0.3465
 3176TIP3   OH231018   1.512   6.044  10.718  0.3477 -1.0608  0.2575
 3176TIP3    H131019   1.581   6.109  10.707 -0.5788 -0.3616 -2.0626
 3176TIP3    H231020   1.448   6.087  10.775 -0.8399  0.7303 -2.1914
 3177TIP3   OH231021   4.438   0.250  15.445  0.5137  0.0684  0.4452
 3177TIP3    H131022   4.356   0.300  15.441 -0.7597 -1.8995  0.3683
 3177TIP3    H231023   4.449   0.215  15.356  0.9801 -0.3780  0.6735
 3178TIP3   OH231024   1.199   0.283  12.033 -0.0534  0.2363  0.0243
 3178TIP3    H131025   1.116   0.267  11.989  1.0680 -0.2750 -2.0449
 3178TIP3    H231026   1.219   0.375  12.013  0.6449 -0.1062 -0.8933
 3179TIP3   OH231027   5.321   2.058   1.885  0.2916  0.3520  0.5779
 3179TIP3    H131028   5.316   1.963   1.892  1.1985 -0.2890 -4.0567
 3179TIP3    H231029   5.234   2.084   1.852  1.0559  0.5507 -1.4143
 3180TIP3   OH231030   4.352   3.312   0.135  0.1744 -0.1610  0.3087
 3180TIP3    H131031   4.421   3.296   0.200  0.5576 -0.1985 -0.1030
 3180TIP3    H231032   4.326   3.225   0.105  0.7800 -0.1055 -0.3949
 3181TIP3   OH231033   3.899   6.223  12.428 -0.0512  0.1645 -0.0436
 3181TIP3    H131034   3.906   6.176  12.345  1.2373  0.9906 -0.4369
 3181TIP3    H231035   3.965   6.292  12.422  1.6409 -1.0636  2.5161
 3182TIP3   OH231036   0.247   1.938   4.103  0.1319 -0.5076 -0.2486
 3182TIP3    H131037   0.318   1.993   4.068  0.2106 -2.0128 -2.7358
 3182TIP3    H231038   0.170   1.995   4.099  0.8479  0.5780  0.7694
 3183TIP3   OH231039   2.230   4.237   4.248 -0.2951 -0.4274 -0.2007
 3183TIP3    H131040   2.246   4.271   4.159  0.0815  0.6205  0.2477
 3183TIP3    H231041   2.294   4.167   4.258  0.8319  0.5544 -0.1790
 3184TIP3   OH231042   4.364   2.485   3.415  0.5160  0.3773  0.4343
 3184TIP3    H131043   4.347   2.434   3.494 -0.4932 -1.1313 -0.6911
 3184TIP3    H231044   4.459   2.497   3.413  0.6433 -0.4086  1.3643
 3185TIP3   OH231045   6.121   0.332   4.931 -0.9626 -0.0293  0.1711
 3185TIP3    H131046   6.177   0.326   5.009  0.3024 -1.5735 -0.7791
 3185TIP3    H231047   6.155   0.407   4.883 -0.8758  0.1228  0.4662
 3186TIP3   OH231048   5.338   1.969  10.633  0.0623 -0.3892 -0.3857
 3186TIP3    H131049   5.269   1.958  10.698  1.5821 -2.1768  1.0241
 3186TIP3    H231050   5.357   2.063  10.635  0.6379 -0.4685  2.4599
 3187TIP3   OH231051   3.861   1.033  12.584  0.6331  0.2448  0.2569
 3187TIP3    H131052   3.784   0.978  12.596  3.5034 -3.9008  2.2389
 3187TIP3    H231053   3.863   1.051  12.490 -2.0218 -0.5688 -0.0260
 3188TIP3   OH231054   0.822   0.667   3.191  0.1886  0.8152 -0.7871
 3188TIP3    H131055   0.834   0.719   3.271 -2.1080  0.4717 -0.1375
 3188TIP3    H231056   0.785   0.584   3.222  2.6555 -0.7983 -1.9227
 3189TIP3   OH231057   5.863   6.340  17.106  0.2632  0.3088  0.5885
 3189TIP3    H131058   5.832   6.333  17.196  0.6611  3.2950  1.0502
 3189TIP3    H231059   5.782   6.346  17.054  0.0388 -0.9956  0.7483
 3190TIP3   OH231060   2.616   2.263   6.434  0.3410  0.0696 -0.3812
 3190TIP3    H131061   2.534   2.312   6.429  0.1529 -0.3035 -0.9892
 3190TIP3    H231062   2.603   2.202   6.507  0.8251  1.3508  0.8317
 3191TIP3   OH231063   2.671   1.275  14.677  0.0722 -0.1077  0.0934
 3191TIP3    H131064   2.704   1.350  14.628 -3.2488  0.7423 -1.0727
 3191TIP3    H231065   2.614   1.313  14.743 -0.7225 -1.5745  0.2884
 3192TIP3   OH231066   5.487   4.416  13.780 -0.4257 -0.3900 -0.3449
 3192TIP3    H131067   5.567   4.426  13.729 -0.2242 -0.2195  0.0036
 3192TIP3    H231068   5.489   4.488  13.843 -1.8106  0.8202 -1.6032
 3193TIP3   OH231069   6.441   6.555   1.205 -0.2774 -0.4834 -0.0551
 3193TIP3    H131070   6.399   6.526   1.124  0.9112  1.9773 -1.6754
 3193TIP3    H231071   6.525   6.509   1.207 -1.4278 -2.6377  1.2885
 3194TIP3   OH231072   0.909   3.670  14.445 -0.8137  0.7522  0.3206
 3194TIP3    H131073   0.901   3.594  14.387 -0.1956 -0.6278  1.9440
 3194TIP3    H231074   0.822   3.709  14.446 -1.3187 -0.3154 -0.0639
 3195TIP3   OH231075   2.042   3.006  15.365  0.2916  0.3628 -0.3679
 3195TIP3    H131076   1.959   2.976  15.400 -0.0560  0.9328 -0.6859
 3195TIP3    H231077   2.076   2.932  15.315  0.0896  0.0513 -0.0468
 3196TIP3   OH231078   2.313   6.072   0.498 -0.2862 -0.1262 -0.3924
 3196TIP3    H131079   2.339   6.163   0.515 -0.2299  0.0705 -1.4363
 3196TIP3    H231080   2.266   6.045   0.577  0.7822  0.3907  0.4398
 3197TIP3   OH231081   4.826   6.501   3.204  0.4215  0.3564 -0.0169
 3197TIP3    H131082   4.797   6.521   3.115  2.4095  0.4462 -0.6835
 3197TIP3    H231083   4.835   6.586   3.246 -2.0417  0.2780  0.8620
 3198TIP3   OH231084   0.134   3.312  11.561 -0.1633 -0.3266 -0.2757
 3198TIP3    H131085   0.224   3.324  11.590 -0.4265 -0.9519  0.8623
 3198TIP3    H231086   0.135   3.229  11.514 -0.3457 -0.9025  0.7054
 3199TIP3   OH231087   2.822   5.174   6.219  0.2691  0.0714 -0.4135
 3199TIP3    H131088   2.745   5.131   6.180  0.4392  0.8020 -1.6209
 3199TIP3    H231089   2.797   5.266   6.224  0.2674  0.0063  1.2609
 3200TIP3   OH231090   4.995   6.730   2.328  0.0328 -0.3678 -0.2747
 3200TIP3    H131091   4.926   6.787   2.294  0.6709  0.8662  0.4299
 3200TIP3    H231092   5.051   6.713   2.252 -0.0566  0.1146 -0.4545
 3201TIP3   OH231093   0.578   2.447  16.460  0.1857  0.6292  0.5659
 3201TIP3    H131094   0.648   2.391  16.425  0.7017  1.3125  0.4889
 3201TIP3    H231095   0.584   2.528  16.410 -2.0437 -0.0372 -0.9275
 3202TIP3   OH231096   3.350   4.570   4.774  0.0280  0.0771  0.0232
 3202TIP3    H131097   3.369   4.579   4.868  0.8570  1.0401 -0.2248
 3202TIP3    H231098   3.435   4.547   4.735 -0.5255 -1.4464 -0.3706
 3203TIP3   OH231099   4.062   3.625   0.415 -0.4644  0.0058 -0.5136
 3203TIP3    H131100   4.132   3.571   0.379 -0.2847  0.2505 -0.5348
 3203TIP3    H231101   4.065   3.607   0.509  0.4405  0.9319 -0.3387
 3204TIP3   OH231102   6.504   1.764  16.095 -0.0021 -0.3553 -0.0977
 3204TIP3    H131103   6.527   1.765  16.002 -2.2252  0.8015 -0.7073
 3204TIP3    H231104   6.430   1.703  16.101  0.0976 -0.3885  0.9109
 3205TIP3   OH231105   1.304   5.974  11.428  0.7397 -0.2215 -0.0234
 3205TIP3    H131106   1.212   5.964  11.407  0.5296 -0.2827  0.8727
 3205TIP3    H231107   1.348   5.905  11.378  0.2752 -0.3376 -0.2732
 3206TIP3   OH231108   5.264   1.548   6.149 -0.3050 -0.4472 -0.5206
 3206TIP3    H131109   5.258   1.553   6.244 -1.3159 -1.2989 -0.5196
 3206TIP3    H231110   5.244   1.457   6.128  0.2553 -0.3619 -1.5361
 3207TIP3   OH231111   6.373   3.097  16.094 -0.1245 -0.4203  0.1759
 3207TIP3    H131112   6.329   3.031  16.148  2.8665 -1.9890  0.9224
 3207TIP3    H231113   6.382   3.173  16.152 -1.8580 -0.0136 -0.0403
 3208TIP3   OH231114   6.044   4.472   1.247  0.4811 -0.0350 -0.1981
 3208TIP3    H131115   6.028   4.444   1.157  3.0493 -2.3548 -0.0891
 3208TIP3    H231116   6.132   4.510   1.245  0.8242 -0.6434  1.4035
 3209TIP3   OH231117   2.066   1.009  12.911 -0.0692  0.2574 -0.2948
 3209TIP3    H131118   2.077   1.103  12.897 -0.5208  0.5666  1.1960
 3209TIP3    H231119   1.971   0.998  12.923 -0.0206 -0.3927 -0.4821
 3210TIP3   OH231120   5.840   4.673   5.729 -0.3926  0.1072 -0.4659
 3210TIP3    H131121   5.932   4.654   5.710 -0.2063  1.2377 -0.7698
 3210TIP3    H231122   5.791   4.609   5.678  0.2075 -2.7366  2.1778
 3211TIP3   OH231123   0.927   2.916  15.020 -0.3041 -0.3335 -0.1982
 3211TIP3    H131124   0.898   2.986  14.961  1.3509  0.5465 -0.0180
 3211TIP3    H231125   0.975   2.961  15.089 -2.6224 -1.2732  2.2055
 3212TIP3   OH231126   3.714   5.056   3.112 -0.0865  0.0310  0.0580
 3212TIP3    H131127   3.716   5.073   3.017 -1.2712  0.7089  0.1421
 3212TIP3    H231128   3.624   5.074   3.138  0.3158  0.2082  1.3896
 3213TIP3   OH231129   5.657   2.181  16.543  0.0824 -0.2950  0.0034
 3213TIP3    H131130   5.690   2.107  16.592 -0.1908 -0.5286 -0.1615
 3213TIP3    H231131   5.562   2.177  16.554 -0.0029 -0.4911 -0.7385
 3214TIP3   OH231132   2.461   4.055   2.785  0.9484 -1.0419  0.4726
 3214TIP3    H131133   2.518   4.007   2.846 -0.5659 -1.5230  1.5847
 3214TIP3    H231134   2.384   4.078   2.838  0.3953  0.1723 -0.7965
 3215TIP3   OH231135   6.254   2.969   1.980  0.1785  0.8464 -0.6359
 3215TIP3    H131136   6.238   2.982   1.887 -0.0410  0.1208 -0.7048
 3215TIP3    H231137   6.185   3.019   2.024 -1.9253 -1.5968 -0.9157
 3216TIP3   OH231138   1.547   3.927   0.738 -0.3539 -0.2517 -0.0833
 3216TIP3    H131139   1.465   3.888   0.768 -0.3161 -0.6029 -0.4402
 3216TIP3    H231140   1.609   3.854   0.732 -0.4496 -0.2516 -1.3507
 3217TIP3   OH231141   5.556   1.467   1.892 -0.0451 -0.1519 -0.4000
 3217TIP3    H131142   5.632   1.415   1.917  0.1729  0.1001 -0.5264
 3217TIP3    H231143   5.501   1.469   1.970  1.0103  1.3033  0.3509
 3218TIP3   OH231144   2.965   3.909  12.364  0.2276  0.0097 -0.0924
 3218TIP3    H131145   3.023   3.910  12.440 -1.6895 -1.9349  1.5285
 3218TIP3    H231146   2.939   4.001  12.354  2.3269  0.6723  0.0787
 3219TIP3   OH231147   5.957   2.416   1.797  0.2229  0.1360 -0.1117
 3219TIP3    H131148   6.007   2.336   1.813  0.7415  0.8685  2.5328
 3219TIP3    H231149   6.018   2.474   1.752 -0.3226 -1.0378 -2.5339
 3220TIP3   OH231150   2.561   4.167   4.050 -0.3151 -0.4295 -0.1549
 3220TIP3    H131151   2.563   4.198   3.960 -0.0779 -0.7506 -0.2622
 3220TIP3    H231152   2.594   4.240   4.102 -1.1640  0.0308 -0.2448
 3221TIP3   OH231153   5.933   1.541   5.151  0.3011 -0.3402 -0.0295
 3221TIP3    H131154   5.902   1.619   5.198 -1.7920 -0.1253 -1.6179
 3221TIP3    H231155   5.978   1.489   5.218 -0.4472  1.0681  1.6414
 3222TIP3   OH231156   1.776   5.535   6.340  0.1905  0.0867  0.0971
 3222TIP3    H131157   1.866   5.550   6.314  0.6129  2.4580  2.5034
 3222TIP3    H231158   1.751   5.454   6.295  3.1063 -0.0592 -1.4920
 3223TIP3   OH231159   0.460   5.317  13.681 -0.0158  0.0413 -0.4749
 3223TIP3    H131160   0.393   5.292  13.617  0.4659 -0.4532 -0.7929
 3223TIP3    H231161   0.411   5.334  13.761 -0.5964  0.4036 -0.9049
 3224TIP3   OH231162   5.736   6.160  14.578 -0.3778 -0.2325  0.1140
 3224TIP3    H131163   5.733   6.121  14.666 -0.6798  0.8740  0.6149
 3224TIP3    H231164   5.719   6.087  14.519  0.7496 -1.1854  0.9143
 3225TIP3   OH231165   4.607   3.275   0.929  0.1201 -0.1190  0.2815
 3225TIP3    H131166   4.693   3.310   0.904  0.3243  0.0469  1.1760
 3225TIP3    H231167   4.569   3.243   0.847  1.1590 -0.4689 -0.0775
 3226TIP3   OH231168   2.454   5.323   2.551 -0.1868 -0.0495  0.0121
 3226TIP3    H131169   2.528   5.279   2.509  0.0060  0.8622 -0.6208
 3226TIP3    H231170   2.494   5.380   2.617 -0.0624  2.5695 -2.2059
 3227TIP3   OH231171   6.308   2.229   3.758  0.1294 -0.4103  0.2994
 3227TIP3    H131172   6.340   2.176   3.686 -0.4760  0.5035 -0.6702
 3227TIP3    H231173   6.318   2.173   3.835  1.3198 -1.1888 -0.3945
 3228TIP3   OH231174   4.840   4.765   2.523  0.2234  0.4826  0.1866
 3228TIP3    H131175   4.888   4.822   2.583 -0.8695  0.0251  1.5427
 3228TIP3    H231176   4.870   4.677   2.545  1.8403  0.4392 -1.8427
 3229TIP3   OH231177   0.551   1.088   2.752 -0.1389  0.5254  0.0088
 3229TIP3    H131178   0.639   1.107   2.719  0.9244 -2.6475  0.6851
 3229TIP3    H231179   0.535   1.155   2.818  1.3248  1.7488 -0.8035
 3230TIP3   OH231180   3.075   3.073   2.959  0.3452 -0.1824  0.2088
 3230TIP3    H131181   3.021   3.050   2.883  1.2415  1.6864 -1.0977
 3230TIP3    H231182   3.135   2.999   2.969  0.4122 -0.3351 -1.1225
 3231TIP3   OH231183   3.348   6.516   1.042  0.1053  0.1028  0.0709
 3231TIP3    H131184   3.403   6.595   1.042  0.8039 -0.3604 -0.6306
 3231TIP3    H231185   3.363   6.477   1.128  1.6266 -0.4953 -0.4229
 3232TIP3   OH231186   2.147   6.006  16.231 -0.3296 -1.2479 -0.2372
 3232TIP3    H131187   2.203   5.953  16.289  0.5040 -1.4959 -1.2455
 3232TIP3    H231188   2.105   5.942  16.174 -1.0219 -0.9888 -0.0238
 3233TIP3   OH231189   2.534   3.697   2.652  0.5270  0.7550  0.0431
 3233TIP3    H131190   2.540   3.681   2.746  2.2987  1.4844  0.0963
 3233TIP3    H231191   2.610   3.752   2.632 -0.8302  2.2002 -1.4939
 3234TIP3   OH231192   2.869   0.916  15.088 -0.1914  0.1070  0.5154
 3234TIP3    H131193   2.916   0.996  15.063 -0.9446  0.5442  0.4863
 3234TIP3    H231194   2.912   0.887  15.169 -0.2814  0.8563  0.8366
 3235TIP3   OH231195   0.104   2.707   3.524 -0.0162  0.2236 -0.4353
 3235TIP3    H131196   0.154   2.625   3.516 -1.8954 -1.0857  0.2921
 3235TIP3    H231197   0.111   2.730   3.617 -1.5818 -0.5911 -0.0788
 3236TIP3   OH231198   0.256   2.851  15.305 -0.5774  0.4072 -0.2041
 3236TIP3    H131199   0.291   2.937  15.283  0.4825  0.2955  0.9020
 3236TIP3    H231200   0.317   2.817  15.371 -1.0713 -1.1228 -0.5042
 3237TIP3   OH231201   1.319   5.810   4.465 -0.5525 -0.0588 -0.6173
 3237TIP3    H131202   1.393   5.867   4.487  0.9634 -1.7062 -1.2287
 3237TIP3    H231203   1.328   5.796   4.371 -0.5953 -1.6848 -0.3984
 3238TIP3   OH231204   2.091   0.263   2.529  0.1801 -0.6159 -0.5776
 3238TIP3    H131205   2.124   0.225   2.448  2.3855 -0.3115  0.1065
 3238TIP3    H231206   2.020   0.205   2.555  0.2015 -1.3848 -2.1060
 3239TIP3   OH231207   3.077   4.395   4.184  0.2895 -0.5978 -0.8729
 3239TIP3    H131208   3.130   4.326   4.143  2.9805  0.0311  1.2341
 3239TIP3    H231209   3.136   4.470   4.191 -2.0039  1.3905 -1.4687
 3240TIP3   OH231210   1.954   4.340   1.735 -0.6361 -0.6110 -0.4132
 3240TIP3    H131211   2.038   4.386   1.733 -0.0251 -1.7087 -1.1103
 3240TIP3    H231212   1.977   4.247   1.728 -1.8037 -1.0921  1.2347
 3241TIP3   OH231213   5.803   3.167  11.472 -0.0736  0.0940  0.1922
 3241TIP3    H131214   5.734   3.124  11.420 -0.7464  0.8843  0.4154
 3241TIP3    H231215   5.776   3.259  11.477  0.8830  0.3695  0.4831
 3242TIP3   OH231216   4.701   1.147  12.640  0.7404  0.2591  0.0984
 3242TIP3    H131217   4.664   1.059  12.635 -0.5496  0.8663 -2.2070
 3242TIP3    H231218   4.650   1.191  12.708 -0.6240  0.0983 -0.7947
 3243TIP3   OH231219   5.210   1.745  12.575  0.4870 -0.0329  0.6887
 3243TIP3    H131220   5.122   1.712  12.592 -0.0821 -0.1538 -2.0342
 3243TIP3    H231221   5.267   1.670  12.590 -0.0521 -0.3886  0.9879
 3244TIP3   OH231222   1.314   6.526   1.867 -0.2694 -0.1066  0.1423
 3244TIP3    H131223   1.392   6.540   1.813 -0.8995  0.5853 -0.6145
 3244TIP3    H231224   1.302   6.609   1.914 -1.1548  0.1787 -0.5602
 3245TIP3   OH231225   0.593   2.731   3.104 -0.7838 -0.0324  0.7007
 3245TIP3    H131226   0.610   2.825   3.110 -0.0185  0.0116 -1.5248
 3245TIP3    H231227   0.498   2.725   3.098 -0.7748  0.7134 -0.4778
 3246TIP3   OH231228   2.641   4.401  16.371  0.7009 -0.2006 -0.8201
 3246TIP3    H131229   2.681   4.475  16.327  0.4373 -0.0586 -0.8278
 3246TIP3    H231230   2.577   4.367  16.308 -0.6827  0.8689 -0.0590
 3247TIP3   OH231231   2.878   1.109  16.598 -0.2514  0.1169 -0.0321
 3247TIP3    H131232   2.914   1.176  16.541 -1.0290  0.5564 -0.0261
 3247TIP3    H231233   2.786   1.134  16.609 -0.4772 -0.7883  0.2070
 3248TIP3   OH231234   6.685   3.140   2.611 -0.7854  0.1894 -0.0300
 3248TIP3    H131235   6.667   3.183   2.527  0.2482 -0.8030 -0.7759
 3248TIP3    H231236   6.705   3.213   2.670  3.6201  0.8208 -1.8919
 3249TIP3   OH231237   6.623   3.737   0.221 -0.0645  0.4788 -0.0079
 3249TIP3    H131238   6.710   3.729   0.260 -0.5022 -2.1377  0.6408
 3249TIP3    H231239   6.571   3.784   0.285  0.5745  0.9988  0.1319
 3250TIP3   OH231240   3.759   0.250   2.782  0.1263 -0.2164 -0.2516
 3250TIP3    H131241   3.828   0.288   2.837  2.1798 -2.1905 -1.2891
 3250TIP3    H231242   3.799   0.242   2.696 -0.6974 -3.1313 -0.4646
 3251TIP3   OH231243   1.808   2.392   6.501 -0.7194 -0.0593 -0.4134
 3251TIP3    H131244   1.890   2.428   6.466 -1.0499  1.7787  0.5717
 3251TIP3    H231245   1.751   2.469   6.512 -1.5106 -0.8771  1.7065
 3252TIP3   OH231246   6.784   3.390   3.618  0.1614 -0.0170 -0.3675
 3252TIP3    H131247   6.796   3.331   3.545  3.1445  1.6960 -1.4378
 3252TIP3    H231248   6.716   3.451   3.589  0.2036 -0.2856 -1.0410
 3253TIP3   OH231249   4.611   1.734   3.917 -0.1482  0.3929 -0.2818
 3253TIP3    H131250   4.645   1.644   3.919  1.5909  1.0101  1.7115
 3253TIP3    H231251   4.659   1.777   3.847 -1.6571 -0.3980 -1.8826
 3254TIP3   OH231252   0.392   3.418  13.962  0.4218 -0.1091  0.5925
 3254TIP3    H131253   0.450   3.406  13.887  0.1349 -0.2580  0.3910
 3254TIP3    H231254   0.406   3.339  14.015 -1.5204 -1.4647 -0.7742
 3255TIP3   OH231255   1.660   0.188  16.257 -0.0372  0.3847  0.5144
 3255TIP3    H131256   1.710   0.228  16.186 -0.7010  2.0427  0.9181
 3255TIP3    H231257   1.569   0.210  16.237 -0.6903 -2.6728 -0.2700
 3256TIP3   OH231258   5.943   0.707  10.577 -0.8615  0.6502  0.0708
 3256TIP3    H131259   6.034   0.689  10.600 -0.2130  1.3472 -1.7535
 3256TIP3    H231260   5.897   0.625  10.595  0.4094 -0.1853 -0.3325
 3257TIP3   OH231261   0.137   2.649  11.558 -0.2703  0.4630 -0.5958
 3257TIP3    H131262   0.190   2.729  11.564  0.1849  0.1739 -0.7209
 3257TIP3    H231263   0.193   2.580  11.592 -0.3419  0.0493 -1.2882
 3258TIP3   OH231264   0.052   5.718  15.238 -0.6911  0.2004 -0.2355
 3258TIP3    H131265   0.130   5.663  15.229 -1.2100 -0.8696  1.3987
 3258TIP3    H231266   0.083   5.807  15.218  0.8604 -0.2487  0.0198
 3259TIP3   OH231267   1.336   2.861  11.107  0.3631  0.2802  0.0942
 3259TIP3    H131268   1.242   2.856  11.088  0.3357  0.8421  0.0743
 3259TIP3    H231269   1.340   2.903  11.193  0.6238  0.9096 -0.2242
 3260TIP3   OH231270   5.881   5.622  15.605 -0.0508  0.7048  0.4913
 3260TIP3    H131271   5.898   5.558  15.674  0.6149  0.3403 -0.0034
 3260TIP3    H231272   5.935   5.697  15.630  1.0169  0.1787 -0.1796
 3261TIP3   OH231273   6.716   3.329   0.622  0.2586  0.4301 -0.5555
 3261TIP3    H131274   6.776   3.257   0.602  0.1150  0.2318 -0.2676
 3261TIP3    H231275   6.629   3.294   0.606  0.0956  0.0825  0.9350
 3262TIP3   OH231276   5.748   1.851  12.169 -0.0163 -0.3125  0.2129
 3262TIP3    H131277   5.727   1.860  12.262  2.7571  1.0436  0.8085
 3262TIP3    H231278   5.715   1.764  12.146  0.5787 -1.3600  2.8821
 3263TIP3   OH231279   4.372   3.917  15.296 -0.5285 -0.5673  0.1744
 3263TIP3    H131280   4.461   3.910  15.262 -0.9954 -0.0871 -1.2500
 3263TIP3    H231281   4.357   3.834  15.342  0.7887 -0.4698  0.8174
 3264TIP3   OH231282   0.899   5.781   0.191 -0.0158 -0.1840  0.3361
 3264TIP3    H131283   0.876   5.732   0.112 -0.4337 -1.8393  1.4541
 3264TIP3    H231284   0.818   5.781   0.243  0.7548 -0.6758  1.5588
 3265TIP3   OH231285   1.137   3.935   2.621  0.4479  0.2361  0.3172
 3265TIP3    H131286   1.141   3.878   2.544  0.5314 -0.9113  1.1341
 3265TIP3    H231287   1.170   4.019   2.591  0.9813 -0.3395 -0.7747
 3266TIP3   OH231288   3.480   5.793   0.776 -0.1051 -0.1297  0.1811
 3266TIP3    H131289   3.522   5.798   0.862 -0.5925 -0.1551  0.4249
 3266TIP3    H231290   3.480   5.700   0.755 -0.1248 -0.1410  0.2294
 3267TIP3   OH231291   1.861   5.888  12.825 -0.3412  0.1786 -0.2174
 3267TIP3    H131292   1.774   5.852  12.845 -0.7905  1.8734  1.1338
 3267TIP3    H231293   1.843   5.973  12.784  0.6913 -0.6408 -2.5571
 3268TIP3   OH231294   1.579   2.993   0.970  0.1558 -0.4737  0.6864
 3268TIP3    H131295   1.629   3.011   0.891  0.1687 -2.9862  0.0445
 3268TIP3    H231296   1.624   3.041   1.039  0.4244  1.3818 -0.7025
 3269TIP3   OH231297   3.514   2.140  15.489  0.6444 -0.1532 -0.0009
 3269TIP3    H131298   3.604   2.112  15.471  0.2913 -1.8015  0.6360
 3269TIP3    H231299   3.468   2.128  15.406  0.8745  0.1549 -0.1752
 3270TIP3   OH231300   1.706   2.105   1.188 -0.0344  0.5743 -0.5010
 3270TIP3    H131301   1.789   2.062   1.208  0.4713  2.2475  1.2886
 3270TIP3    H231302   1.643   2.061   1.245  0.1924  1.1914  0.2352
 3271TIP3   OH231303   1.527   4.663   0.566 -0.0620  0.2254 -0.4598
 3271TIP3    H131304   1.573   4.594   0.517 -0.4039 -0.3654  0.0342
 3271TIP3    H231305   1.596   4.708   0.615  0.0790 -0.2490 -0.2135
 3272TIP3   OH231306   0.950   4.444   4.279  0.1497  0.2511  0.0645
 3272TIP3    H131307   0.904   4.379   4.332  1.6277 -1.7575 -1.0192
 3272TIP3    H231308   1.026   4.468   4.331  1.2838 -1.2820 -0.8186
 3273TIP3   OH231309   6.138   6.051  14.360  0.2362  0.6583  0.4961
 3273TIP3    H131310   6.096   6.060  14.446  0.1576  2.5104  0.3000
 3273TIP3    H231311   6.090   6.112  14.304 -0.1898 -1.0453 -1.0791
 3274TIP3   OH231312   6.153   6.577  16.641 -0.2136  0.0420 -0.0330
 3274TIP3    H131313   6.127   6.618  16.559 -1.0728  0.3459  0.3851
 3274TIP3    H231314   6.156   6.649  16.704  1.5619  0.0144 -0.0254
 3275TIP3   OH231315   6.234   0.170  14.416  0.7279  0.3429  0.7510
 3275TIP3    H131316   6.160   0.223  14.446  0.6644  0.5754  0.2038
 3275TIP3    H231317   6.278   0.142  14.496  0.6442  1.0564  1.0576
 3276TIP3   OH231318   0.513   0.037  16.538 -0.3828 -0.5859  0.1710
 3276TIP3    H131319   0.496   0.065  16.448 -1.9051  0.9266  0.8731
 3276TIP3    H231320   0.601   0.071  16.558 -1.0997  1.4405  0.0878
 3277TIP3   OH231321   1.324   6.282  15.241  0.0111  0.1953  0.0781
 3277TIP3    H131322   1.373   6.361  15.263 -0.2110  1.0421 -2.2223
 3277TIP3    H231323   1.232   6.306  15.251 -0.0321 -0.0968  0.3949
 3278TIP3   OH231324   1.465   4.938   2.286 -0.2345 -0.2743  0.2863
 3278TIP3    H131325   1.541   4.907   2.335 -0.9998 -0.7931  1.1623
 3278TIP3    H231326   1.479   4.903   2.197  0.1778 -1.0123  0.6277
 3279TIP3   OH231327   2.328   5.748   1.381 -0.1170 -0.0017  0.2186
 3279TIP3    H131328   2.292   5.714   1.463 -0.8615 -1.1326 -0.5449
 3279TIP3    H231329   2.421   5.725   1.384  0.3714  1.8832  1.6789
 3280TIP3   OH231330   0.102   5.246   2.190 -0.6515 -0.2320 -0.0915
 3280TIP3    H131331   0.168   5.178   2.201  0.6660  1.1120  0.6400
 3280TIP3    H231332   0.046   5.214   2.119  0.0671 -1.9390  0.0552
 3281TIP3   OH231333   6.496   4.985   6.125 -0.0906 -0.5982  0.4178
 3281TIP3    H131334   6.506   4.902   6.079  0.1114 -0.0843 -0.5114
 3281TIP3    H231335   6.506   4.964   6.217  0.8069 -1.4748  0.1372
 3282TIP3   OH231336   3.573   2.703   1.090 -0.3687  0.3338  0.6585
 3282TIP3    H131337   3.485   2.712   1.125 -0.0249  0.6709  1.4521
 3282TIP3    H231338   3.630   2.739   1.157  0.3211  0.8996 -0.2065
 3283TIP3   OH231339   4.029   5.748  13.055 -0.1525 -0.2086 -0.0138
 3283TIP3    H131340   4.002   5.758  13.146 -1.1200 -0.6411 -0.2424
 3283TIP3    H231341   4.121   5.776  13.054 -0.4366  0.8063  0.8868
 3284TIP3   OH231342   2.968   6.661  15.609  0.0983 -0.1073  0.1103
 3284TIP3    H131343   2.902   6.723  15.578 -0.4095 -0.9908 -0.6291
 3284TIP3    H231344   2.930   6.624  15.688 -1.3261 -2.1675 -1.4301
 3285TIP3   OH231345   6.500   5.734   1.475  0.1219 -0.1577  0.2780
 3285TIP3    H131346   6.499   5.801   1.406 -0.2782  0.5677  0.9597
 3285TIP3    H231347   6.409   5.730   1.504  0.3922  0.0216  1.1936
 3286TIP3   OH231348   2.157   1.033  15.199 -0.9708 -0.0478  0.3524
 3286TIP3    H131349   2.179   1.126  15.192 -0.2394 -0.2773 -0.5187
 3286TIP3    H231350   2.068   1.033  15.234 -1.6717  1.0525 -1.2843
 3287TIP3   OH231351   1.101   3.975  13.324 -0.0768 -0.2402  0.3341
 3287TIP3    H131352   1.129   4.042  13.386 -3.1186  0.2890  1.3076
 3287TIP3    H231353   1.143   4.000  13.241  1.0146  1.2527  1.2850
 3288TIP3   OH231354   5.418   0.399  13.945 -0.1094  0.1279  0.0364
 3288TIP3    H131355   5.486   0.465  13.944 -0.8743  0.9327 -0.3431
 3288TIP3    H231356   5.465   0.316  13.938  0.8398  0.6435  0.1410
 3289TIP3   OH231357   3.959   5.462   5.472 -0.4808 -0.0212  0.0074
 3289TIP3    H131358   3.985   5.381   5.517  0.3466 -0.1362 -0.6568
 3289TIP3    H231359   3.991   5.532   5.529 -1.8864 -0.1356  0.9812
 3290TIP3   OH231360   0.025   1.484  12.609 -0.1742 -0.1709 -0.1318
 3290TIP3    H131361   0.077   1.405  12.597 -0.7257 -0.5552 -0.0038
 3290TIP3    H231362  -0.063   1.453  12.628  0.0535  0.3968  2.3082
 3291TIP3   OH231363   3.291   0.367  12.676 -0.0643  0.0206  0.2758
 3291TIP3    H131364   3.348   0.398  12.746 -2.0471  2.3262  0.9998
 3291TIP3    H231365   3.210   0.342  12.721 -0.9230  0.3243 -1.0577
 3292TIP3   OH231366   3.838   1.859   3.437  0.0548  0.1635  0.7222
 3292TIP3    H131367   3.915   1.846   3.492  0.8950  0.6904 -0.3011
 3292TIP3    H231368   3.831   1.778   3.386  3.3988  1.9847 -3.3179
 3293TIP3   OH231369   4.186   3.128   0.603 -0.1479 -0.0307 -0.0899
 3293TIP3    H131370   4.134   3.207   0.614 -1.2682 -0.6406 -0.7428
 3293TIP3    H231371   4.123   3.056   0.612  0.2667 -0.7684 -2.2751
 3294TIP3   OH231372   2.006   4.899  11.779  0.3881 -0.3982  0.4323
 3294TIP3    H131373   1.985   4.980  11.827  0.3430 -1.0503  1.5601
 3294TIP3    H231374   1.924   4.850  11.778  0.4445 -0.4868 -0.1514
 3295TIP3   OH231375   1.556   3.684  14.474 -0.6025 -0.1642 -0.8432
 3295TIP3    H131376   1.632   3.706  14.419  0.6706 -2.8297 -0.2812
 3295TIP3    H231377   1.526   3.599  14.442 -1.8995 -0.2461  0.4723
 3296TIP3   OH231378   0.203   5.134  11.258 -0.2140  0.1832 -0.3502
 3296TIP3    H131379   0.274   5.120  11.320 -0.0931 -1.3848 -0.7974
 3296TIP3    H231380   0.186   5.228  11.261 -1.7805 -0.0092  3.7530
 3297TIP3   OH231381   1.923   1.536  15.150  0.0749  0.6994  0.5079
 3297TIP3    H131382   1.911   1.592  15.073 -0.4526  1.6229  1.2336
 3297TIP3    H231383   1.860   1.465  15.138 -0.7680  1.4142  0.5852
 3298TIP3   OH231384   1.643   2.956  12.637  0.5476 -0.5445 -0.0021
 3298TIP3    H131385   1.682   2.906  12.566  1.7765  0.8132 -0.3444
 3298TIP3    H231386   1.550   2.959  12.617  0.6190 -1.6883 -0.5677
 3299TIP3   OH231387   3.082   1.241   1.966  0.2690 -0.1210 -0.0007
 3299TIP3    H131388   3.056   1.264   2.055 -0.7657 -1.4267  0.0555
 3299TIP3    H231389   3.120   1.154   1.974 -0.3821 -0.4979 -0.9203
 3300TIP3   OH231390   3.155   2.333   0.891 -0.3376  0.1332 -0.0019
 3300TIP3    H131391   3.212   2.403   0.923 -1.8508  1.2887  0.3024
 3300TIP3    H231392   3.146   2.351   0.797  1.3107 -1.2078 -0.4656
 3301TIP3   OH231393   6.024   3.827   4.292  0.1337 -0.4921 -0.4415
 3301TIP3    H131394   6.054   3.847   4.381  0.0606  0.4831 -0.6322
 3301TIP3    H231395   5.975   3.904   4.265  0.3296 -0.6961 -1.4139
 3302TIP3   OH231396   1.892   2.377   4.531  0.5410 -0.1479  0.7822
 3302TIP3    H131397   1.955   2.422   4.587  0.7268  2.0125 -1.0250
 3302TIP3    H231398   1.944   2.338   4.461  0.2342 -2.1918  1.6105
 3303TIP3   OH231399   2.112   6.314  17.045  0.3839  0.2888 -0.1523
 3303TIP3    H131400   2.035   6.313  17.101  0.4121  0.1644 -0.1158
 3303TIP3    H231401   2.088   6.371  16.972  0.6366  1.1276  0.3999
 3304TIP3   OH231402   4.308   0.524  16.683  0.0956  0.6337  0.2628
 3304TIP3    H131403   4.227   0.491  16.723 -0.0241  1.4041  0.6806
 3304TIP3    H231404   4.362   0.446  16.672 -0.6566  0.1222  0.0882
 3305TIP3   OH231405   6.084   5.833  16.149  0.2008  0.5048  0.0474
 3305TIP3    H131406   6.067   5.893  16.222  0.9087  0.7294  0.0349
 3305TIP3    H231407   6.071   5.887  16.070 -2.6229 -0.2420 -0.1103
 3306TIP3   OH231408   5.633   3.175  11.241 -0.1119  0.1890  0.0550
 3306TIP3    H131409   5.624   3.234  11.166  0.7093  1.0767  0.6332
 3306TIP3    H231410   5.556   3.192  11.295 -0.9332 -0.7642 -0.7644
 3307TIP3   OH231411   0.395   0.126   3.797 -0.1131  0.2870 -0.5489
 3307TIP3    H131412   0.333   0.066   3.837 -0.8236  0.7747 -0.8870
 3307TIP3    H231413   0.466   0.134   3.860 -1.6735  1.8486  1.1295
 3308TIP3   OH231414   2.800   4.135  12.136  0.1004 -0.4876 -0.0248
 3308TIP3    H131415   2.846   4.158  12.217 -0.8650  0.5187  0.2643
 3308TIP3    H231416   2.863   4.152  12.067  0.6665 -0.5850  0.4583
 3309TIP3   OH231417   3.237   6.065  12.743 -0.0179  0.2810  0.4956
 3309TIP3    H131418   3.229   6.115  12.824  0.4087 -1.3172  1.5706
 3309TIP3    H231419   3.320   6.017  12.753  0.3705  0.5535 -1.1818
 3310TIP3   OH231420   2.875   0.417  11.572  0.7989  0.3125 -0.1492
 3310TIP3    H131421   2.850   0.480  11.640  1.5939 -2.5851  3.0864
 3310TIP3    H231422   2.816   0.343  11.585  2.7873 -1.4656 -0.8016
 3311TIP3   OH231423   2.092   2.065   3.276 -0.6942 -0.8475  1.0737
 3311TIP3    H131424   2.086   2.151   3.234 -0.1387 -1.0595  0.5485
 3311TIP3    H231425   2.004   2.027   3.265 -0.4161 -1.1175 -0.3835
 3312TIP3   OH231426   6.257   2.787   6.671  0.1274  0.1712  0.4762
 3312TIP3    H131427   6.345   2.812   6.697 -0.6439  0.9257  2.5329
 3312TIP3    H231428   6.221   2.866   6.628 -0.1717  0.5168  1.3426
 3313TIP3   OH231429   2.187   6.304  16.172  0.8239  0.3674 -0.2785
 3313TIP3    H131430   2.194   6.291  16.077 -1.0693 -0.0115 -0.3945
 3313TIP3    H231431   2.166   6.218  16.207 -0.9419  0.9493  0.1841
 3314TIP3   OH231432   1.711   0.829  11.126 -0.1800  0.2964  0.0647
 3314TIP3    H131433   1.735   0.818  11.033  1.0867 -1.3402  0.5327
 3314TIP3    H231434   1.791   0.862  11.167 -0.0734 -0.9360  0.9017
 3315TIP3   OH231435   5.697   0.387  13.195 -0.3705  0.0491  0.4087
 3315TIP3    H131436   5.673   0.457  13.134  2.1713 -0.0178 -0.7951
 3315TIP3    H231437   5.646   0.312  13.166 -1.5435  0.8383  0.3682
 3316TIP3   OH231438   6.661   5.265   3.849  0.0154  0.7206  0.4273
 3316TIP3    H131439   6.688   5.201   3.914  1.9429  0.5956 -0.4334
 3316TIP3    H231440   6.599   5.219   3.793  1.0126 -0.2707  0.1088
 3317TIP3   OH231441   6.767   5.016   4.321 -0.3453 -0.0163  0.3985
 3317TIP3    H131442   6.687   5.045   4.366  0.0181 -0.0588  1.0916
 3317TIP3    H231443   6.802   4.947   4.378  1.2598  1.3676  1.1912
 3318TIP3   OH231444   4.231   5.605  14.888 -0.5558 -0.1495  0.4087
 3318TIP3    H131445   4.161   5.657  14.850  0.5692  0.1890 -1.3381
 3318TIP3    H231446   4.207   5.515  14.870  0.0393  0.0099 -1.3742
 3319TIP3   OH231447   6.344   6.233  14.439  0.4506  0.5179  0.3420
 3319TIP3    H131448   6.348   6.274  14.353  0.0218  0.6992  0.4067
 3319TIP3    H231449   6.266   6.178  14.436  0.3313  0.6650  0.6747
 3320TIP3   OH231450   3.619   5.422  13.831  0.1344  0.4321 -0.6145
 3320TIP3    H131451   3.591   5.463  13.749 -0.1520 -0.9597 -1.2361
 3320TIP3    H231452   3.537   5.394  13.873  0.4042 -1.6924 -1.3949
 3321TIP3   OH231453   2.542   4.267  16.090 -0.5772 -0.4075 -0.7049
 3321TIP3    H131454   2.593   4.205  16.037  1.1221  1.3228 -1.1926
 3321TIP3    H231455   2.543   4.348  16.039 -1.8414  0.3459  0.4189
 3322TIP3   OH231456   5.652   2.090   4.359 -0.1940  0.4085 -0.2269
 3322TIP3    H131457   5.648   2.087   4.263 -1.3316  0.3749 -0.1842
 3322TIP3    H231458   5.680   2.179   4.379 -1.2464  0.8242 -0.5652
 3323TIP3   OH231459   2.789   2.247  15.697  0.1033  0.3998  0.1864
 3323TIP3    H131460   2.872   2.203  15.713  0.7168  1.5544  0.3314
 3323TIP3    H231461   2.765   2.223  15.608  0.6599  0.1616  0.1002
 3324TIP3   OH231462   0.367   4.323   3.790 -0.2906 -0.3298 -0.0416
 3324TIP3    H131463   0.399   4.255   3.848 -1.0486 -0.9102 -0.2861
 3324TIP3    H231464   0.421   4.316   3.712 -0.9680 -1.2673 -0.4330
 3325TIP3   OH231465   2.252   6.411  10.767  0.1573  0.2500  0.0016
 3325TIP3    H131466   2.190   6.479  10.739 -2.3727 -0.3458  3.5033
 3325TIP3    H231467   2.217   6.330  10.728 -0.2683  0.1631  0.5545
 3326TIP3   OH231468   0.514   1.843  15.005 -0.2230 -0.2553  0.1100
 3326TIP3    H131469   0.449   1.773  15.008 -0.4916 -0.0411 -0.5100
 3326TIP3    H231470   0.549   1.838  14.916 -0.5304  0.6479 -0.0721
 3327TIP3   OH231471   3.970   2.269   0.028  0.2416 -0.2818  0.2579
 3327TIP3    H131472   3.989   2.221   0.109  3.2466 -0.2314 -0.2729
 3327TIP3    H231473   3.970   2.202  -0.040  1.9813  0.0957 -0.1685
 3328TIP3   OH231474   4.369   1.821  11.819 -0.4136 -0.7874  0.0892
 3328TIP3    H131475   4.384   1.847  11.728 -2.1875 -1.5808 -0.4899
 3328TIP3    H231476   4.400   1.731  11.824  0.2770 -0.5347  0.4620
 3329TIP3   OH231477   0.032   0.004  16.591  0.1155  0.5779 -0.2976
 3329TIP3    H131478   0.067   0.051  16.666  0.6587  1.2819 -0.9813
 3329TIP3    H231479   0.019   0.071  16.523 -1.0185  0.0696 -0.6105
 3330TIP3   OH231480   1.811   1.608   5.947  0.1453 -0.0302  0.1458
 3330TIP3    H131481   1.874   1.538   5.928  1.5417  1.3172 -0.4491
 3330TIP3    H231482   1.843   1.647   6.028  0.9459  1.5375 -0.8675
 3331TIP3   OH231483   5.826   0.876   1.998  0.4551 -0.3286  0.5335
 3331TIP3    H131484   5.837   0.783   2.016 -1.5833 -0.2915  2.4332
 3331TIP3    H231485   5.907   0.901   1.953  1.1422 -2.9436  0.1141
 3332TIP3   OH231486   3.293   5.313  14.196  0.0193 -0.1395 -0.3082
 3332TIP3    H131487   3.371   5.351  14.236  0.6522 -0.0516 -1.5661
 3332TIP3    H231488   3.245   5.272  14.269  1.0759  0.0761  0.5248
 3333TIP3   OH231489   3.720   6.047  16.126  0.4731  0.1533  0.1710
 3333TIP3    H131490   3.791   5.994  16.162  0.0471  1.0047  2.4481
 3333TIP3    H231491   3.688   6.097  16.201 -1.6762  0.7602 -1.0779
 3334TIP3   OH231492   3.343   0.199   5.196  0.0033  0.7958 -0.0385
 3334TIP3    H131493   3.369   0.129   5.136  0.8329  0.0448  1.1661
 3334TIP3    H231494   3.400   0.272   5.174  4.0557 -1.0540  3.0873
 3335TIP3   OH231495   3.060   1.493  16.239  0.0970  0.0529  0.0687
 3335TIP3    H131496   3.151   1.469  16.259  0.0636 -1.0970 -1.0473
 3335TIP3    H231497   3.018   1.411  16.216 -1.5452  0.3931  1.5962
 3336TIP3   OH231498   0.039   3.855   4.866  0.3246 -0.7204  0.5266
 3336TIP3    H131499   0.053   3.948   4.883  0.2444 -0.5978 -0.0429
 3336TIP3    H231500   0.127   3.818   4.858  0.3721 -0.8719  1.6338
 3337TIP3   OH231501   4.015   5.884   2.382  0.2731 -0.1514 -0.8243
 3337TIP3    H131502   4.034   5.976   2.396  0.0479 -0.2469  0.1772
 3337TIP3    H231503   3.920   5.877   2.386  0.2268 -1.1333  4.6686
 3338TIP3   OH231504   2.953   3.556   2.893 -0.3489 -0.2389 -0.6912
 3338TIP3    H131505   2.985   3.537   2.982 -2.8305  0.0419  0.3488
 3338TIP3    H231506   2.952   3.651   2.888 -0.2306 -0.2550 -1.0015
 3339TIP3   OH231507   0.935   3.823  11.997  0.2144 -0.3402 -0.0843
 3339TIP3    H131508   1.010   3.857  12.046 -0.0054  0.8537 -0.5585
 3339TIP3    H231509   0.885   3.900  11.972  0.5719 -0.8198 -2.6168
 3340TIP3   OH231510   5.585   4.474  13.487 -0.0581 -0.0752 -0.2449
 3340TIP3    H131511   5.505   4.423  13.475  0.6712 -1.4663  0.4915
 3340TIP3    H231512   5.642   4.417  13.539  0.8423  1.4863  0.5454
 3341TIP3   OH231513   3.692   1.884   4.415  0.1031  0.0051 -0.0946
 3341TIP3    H131514   3.755   1.950   4.442  2.7229 -2.7441  1.1405
 3341TIP3    H231515   3.710   1.870   4.322  0.3979  0.1842 -0.0648
 3342TIP3   OH231516   2.742   4.909   0.978  0.1142  0.7890 -0.3556
 3342TIP3    H131517   2.805   4.976   1.006 -1.7409  1.6531  2.1110
 3342TIP3    H231518   2.726   4.857   1.056 -0.7984 -0.6606 -1.4482
 3343TIP3   OH231519   4.945   0.643   1.929 -0.2661  0.3777 -0.1417
 3343TIP3    H131520   4.880   0.584   1.891 -0.3327  0.6516 -0.4526
 3343TIP3    H231521   4.894   0.704   1.983 -0.3163  0.8827 -0.7546
 3344TIP3   OH231522   4.157   4.443   1.652 -0.0739 -0.4343  0.5432
 3344TIP3    H131523   4.090   4.418   1.589  1.5071 -3.1457 -0.2178
 3344TIP3    H231524   4.216   4.500   1.603 -0.3835 -0.2031  0.4385
 3345TIP3   OH231525   3.146   5.868  13.535 -0.4543  0.2547  0.1801
 3345TIP3    H131526   3.207   5.810  13.489  2.2505  0.1312  3.5401
 3345TIP3    H231527   3.178   5.956  13.517 -0.7344  0.3502  0.1299
 3346TIP3   OH231528   6.134   6.340  12.508 -0.3521  0.0889 -0.0820
 3346TIP3    H131529   6.077   6.410  12.477 -1.6564 -0.1382  1.6425
 3346TIP3    H231530   6.112   6.331  12.601  4.2340  1.7146  1.4689
 3347TIP3   OH231531   1.889   3.486  14.091  0.4648  0.1891  0.4296
 3347TIP3    H131532   1.796   3.485  14.069  0.5888 -1.0818 -0.0798
 3347TIP3    H231533   1.910   3.396  14.115  1.9165  0.1164 -0.9642
 3348TIP3   OH231534   1.417   0.779  17.180  0.0970 -0.0764  0.0236
 3348TIP3    H131535   1.507   0.750  17.165  0.1898  0.1956  0.0686
 3348TIP3    H231536   1.364   0.700  17.163  0.5023 -0.9359  2.4489
 3349TIP3   OH231537   2.061   3.423   3.457  0.0210  0.0128 -0.0516
 3349TIP3    H131538   2.109   3.354   3.409 -1.1250 -0.9612  0.1709
 3349TIP3    H231539   2.096   3.419   3.546  1.8999  1.5869 -0.6403
 3350TIP3   OH231540   4.715   3.701   3.236 -0.3645 -0.5398 -0.2371
 3350TIP3    H131541   4.758   3.781   3.206 -1.8719 -0.1416 -1.4547
 3350TIP3    H231542   4.754   3.684   3.322  1.7054  0.1485 -0.9648
 3351TIP3   OH231543   0.166   3.127  12.317  0.6401  0.6066 -0.1201
 3351TIP3    H131544   0.236   3.185  12.345  0.5065  0.9721 -0.5318
 3351TIP3    H231545   0.104   3.184  12.271 -0.3062  0.4150  0.8863
 3352TIP3   OH231546   0.385   2.287   0.208  0.1431  0.6293 -0.3941
 3352TIP3    H131547   0.385   2.350   0.280 -2.3652  1.1840 -0.7653
 3352TIP3    H231548   0.388   2.341   0.129  0.6959  0.1384 -0.7096
 3353TIP3   OH231549   3.970   4.118   2.587 -0.1899  0.3761  0.3295
 3353TIP3    H131550   3.918   4.102   2.666 -0.9077  0.4612 -0.1211
 3353TIP3    H231551   3.962   4.037   2.537  0.0702  0.4120  0.2296
 3354TIP3   OH231552   1.350   3.657  14.064  0.1395 -0.5710 -0.0536
 3354TIP3    H131553   1.294   3.710  14.121 -1.9618 -2.1434 -0.5513
 3354TIP3    H231554   1.356   3.708  13.983 -0.4893 -0.3236  0.0478
 3355TIP3   OH231555   1.535   0.195  13.230  0.3696 -0.1972  0.1429
 3355TIP3    H131556   1.617   0.182  13.183 -0.9606 -1.0840 -2.0699
 3355TIP3    H231557   1.483   0.118  13.209 -2.0649  1.5925 -0.7881
 3356TIP3   OH231558   1.295   0.363  15.593  0.0826  0.1865  0.0077
 3356TIP3    H131559   1.230   0.352  15.663  0.0321 -0.9257 -0.1967
 3356TIP3    H231560   1.331   0.450  15.608  1.4907 -0.7316  2.6605
 3357TIP3   OH231561   1.400   4.368   0.684  0.2588 -0.0661 -0.2216
 3357TIP3    H131562   1.399   4.448   0.736 -1.5705 -1.1997  1.5968
 3357TIP3    H231563   1.338   4.384   0.613 -0.2396  0.0745  0.2438
 3358TIP3   OH231564   4.604   3.131  11.525  0.0505 -0.8203 -0.0633
 3358TIP3    H131565   4.676   3.101  11.580 -0.8640 -0.6040  1.2945
 3358TIP3    H231566   4.525   3.112  11.575 -0.7031  1.4776 -0.2563
 3359TIP3   OH231567   1.213   3.771   5.661 -0.5263 -0.1863 -0.1562
 3359TIP3    H131568   1.149   3.759   5.591 -1.4861 -0.4430  0.7482
 3359TIP3    H231569   1.192   3.857   5.698  0.0848  0.0204 -0.2750
 3360TIP3   OH231570   5.727   4.717   0.438 -0.1152 -0.0828  0.3299
 3360TIP3    H131571   5.662   4.654   0.470  0.9552 -1.8510 -0.8113
 3360TIP3    H231572   5.742   4.691   0.348  0.1959  2.0145 -0.2603
 3361TIP3   OH231573   3.575   4.336   5.322  0.4863  0.6003  0.0743
 3361TIP3    H131574   3.529   4.267   5.370  1.4057 -0.5690 -0.6867
 3361TIP3    H231575   3.521   4.414   5.336 -1.3596 -0.5567 -0.2286
 3362TIP3   OH231576   1.965   5.916   2.813 -0.1131  0.5909 -0.2832
 3362TIP3    H131577   2.027   5.967   2.761  2.1927 -1.6240  0.1478
 3362TIP3    H231578   1.962   5.830   2.770 -2.0037  0.2522  0.4239
 3363TIP3   OH231579   3.144   5.729  14.509 -0.0473  0.3466  0.7277
 3363TIP3    H131580   3.231   5.690  14.520 -0.4595 -0.4495  1.2733
 3363TIP3    H231581   3.155   5.820  14.537  0.6643  0.3199  0.5582
 3364TIP3   OH231582   5.351   0.913  12.036 -0.3113  0.4341 -0.3456
 3364TIP3    H131583   5.311   0.920  12.123  0.4588  1.1978 -0.0497
 3364TIP3    H231584   5.421   0.978  12.036 -0.1354  0.2583 -1.4498
 3365TIP3   OH231585   2.387   4.767  12.575 -1.1530  0.1683 -0.0557
 3365TIP3    H131586   2.469   4.779  12.624  0.2579 -1.4189 -1.8531
 3365TIP3    H231587   2.363   4.676  12.591 -0.9162 -0.2397 -1.8737
 3366TIP3   OH231588   0.329   2.887   5.807 -0.4091  0.5440  0.5347
 3366TIP3    H131589   0.305   2.979   5.818  1.1368  1.1500 -0.7885
 3366TIP3    H231590   0.348   2.878   5.713  0.4698 -0.8615  0.8163
 3367TIP3   OH231591   6.265   6.276   3.916  0.3222  0.2526  0.0666
 3367TIP3    H131592   6.300   6.294   4.003 -2.3538 -0.9310  1.5281
 3367TIP3    H231593   6.337   6.296   3.856  1.8800  2.2958  2.4251
 3368TIP3   OH231594   2.607   0.572   1.793 -0.3262 -0.1158  0.0453
 3368TIP3    H131595   2.648   0.644   1.842 -1.2328  0.1551  0.4193
 3368TIP3    H231596   2.673   0.548   1.728  1.2522 -1.0277  1.8869
 3369TIP3   OH231597   3.603   1.972   3.492  0.2049 -0.2350 -0.1237
 3369TIP3    H131598   3.624   2.001   3.581 -1.3083 -0.6044  0.3820
 3369TIP3    H231599   3.688   1.962   3.449  0.9861 -0.5687  1.4411
 3370TIP3   OH231600   3.909   3.113   5.306  0.1156 -0.2144 -0.3250
 3370TIP3    H131601   3.875   3.152   5.225 -1.9775  0.1102  0.6248
 3370TIP3    H231602   3.919   3.187   5.366  1.1999 -0.5079 -0.1226
 3371TIP3   OH231603   4.407   1.352   3.185 -0.4361  0.0777  0.3174
 3371TIP3    H131604   4.320   1.354   3.225 -0.1926  0.2058  0.8669
 3371TIP3    H231605   4.455   1.423   3.229 -0.5031  1.0037 -1.0446
 3372TIP3   OH231606   1.696   4.644   2.601 -0.2147 -0.5157 -0.3493
 3372TIP3    H131607   1.719   4.731   2.632 -2.3289 -0.4209  1.1110
 3372TIP3    H231608   1.645   4.659   2.521 -0.2856 -0.4435 -0.2899
 3373TIP3   OH231609   3.289   3.848  13.454 -0.1928 -0.1079  0.3508
 3373TIP3    H131610   3.221   3.783  13.437 -0.7977  1.1195 -2.5061
 3373TIP3    H231611   3.244   3.932  13.450  1.2387  0.6667 -0.0618
 3374TIP3   OH231612   4.978   0.493   0.072 -0.1585 -0.0467  0.2604
 3374TIP3    H131613   4.945   0.583   0.073  0.6862  0.2940 -0.7903
 3374TIP3    H231614   4.958   0.459   0.160 -1.5460  0.7651  0.2889
 3375TIP3   OH231615   1.152   4.810  12.988 -0.0580  0.3655  0.5842
 3375TIP3    H131616   1.165   4.779  12.898 -1.1382 -1.0105  0.8677
 3375TIP3    H231617   1.132   4.731  13.038  1.5330  0.9610  2.2691
 3376TIP3   OH231618   5.304   3.995   4.428 -0.8787  0.6130  0.3562
 3376TIP3    H131619   5.213   4.003   4.397 -0.8397  0.7496  0.2762
 3376TIP3    H231620   5.318   4.072   4.482 -0.2422  1.5650 -1.0882
 3377TIP3   OH231621   3.990   1.023   5.852 -0.6502 -0.3248 -0.8572
 3377TIP3    H131622   4.038   1.065   5.924 -1.4768 -0.8555  0.0146
 3377TIP3    H231623   3.949   1.096   5.805 -0.7367 -0.0325 -0.3357
 3378TIP3   OH231624   2.611   0.083  13.895 -0.1108  0.5757  0.7774
 3378TIP3    H131625   2.690   0.105  13.846 -0.1284  1.1386  0.9936
 3378TIP3    H231626   2.607  -0.013  13.893 -0.4442  0.5945 -0.8440
 3379TIP3   OH231627   4.863   0.477  11.607  0.1692 -0.4817  0.0837
 3379TIP3    H131628   4.931   0.499  11.672  2.3076 -1.0217 -1.8255
 3379TIP3    H231629   4.800   0.549  11.613  1.3027  0.4666  1.4151
 3380TIP3   OH231630   5.077   0.322  14.362 -0.2029 -0.6678 -0.9792
 3380TIP3    H131631   5.147   0.387  14.351 -0.2210 -0.0631  1.8152
 3380TIP3    H231632   5.122   0.243  14.392 -0.3719 -1.5223 -2.8133
 3381TIP3   OH231633   0.860   1.159  16.393 -0.0349  0.2295  0.2414
 3381TIP3    H131634   0.940   1.142  16.344  0.5884  4.2054 -0.5011
 3381TIP3    H231635   0.882   1.232  16.451 -2.5600  0.0456  1.5962
 3382TIP3   OH231636   0.135   3.812   5.160 -1.0311 -0.3301 -0.2967
 3382TIP3    H131637   0.082   3.761   5.220  0.1923 -0.5205  0.6626
 3382TIP3    H231638   0.093   3.898   5.156 -0.4168  0.1209  1.8952
 3383TIP3   OH231639   6.520   2.001  11.847  0.2324  0.2908 -0.4881
 3383TIP3    H131640   6.499   2.080  11.896 -1.0436 -0.2205 -0.1504
 3383TIP3    H231641   6.436   1.957  11.837  1.1127 -1.9391  0.9824
 3384TIP3   OH231642   3.704   3.772   3.882 -0.7096  0.0386  0.3269
 3384TIP3    H131643   3.615   3.748   3.907 -0.2956 -0.8251  1.0368
 3384TIP3    H231644   3.719   3.856   3.924 -0.6533 -0.5483  1.5016
 3385TIP3   OH231645   6.238   2.121  16.516  0.7325  0.5414  0.5228
 3385TIP3    H131646   6.240   2.052  16.450  0.0877  0.1561  0.8936
 3385TIP3    H231647   6.256   2.201  16.468 -0.2955  0.3428 -0.2364
 3386TIP3   OH231648   6.047   3.857   2.384  0.0123 -0.0264  0.0683
 3386TIP3    H131649   6.095   3.833   2.305  1.6467  0.2682  0.9272
 3386TIP3    H231650   5.975   3.911   2.353 -0.1388 -0.9674 -1.3256
 3387TIP3   OH231651   6.446   6.372   5.907 -0.3536 -0.4297  0.0039
 3387TIP3    H131652   6.368   6.409   5.950 -1.4153 -1.8624 -0.6153
 3387TIP3    H231653   6.519   6.400   5.962 -1.5042 -0.7893  1.8132
 3388TIP3   OH231654   1.655   3.796  13.254 -0.2938  0.6237 -0.3428
 3388TIP3    H131655   1.732   3.852  13.251  0.0218  0.1628 -1.5818
 3388TIP3    H231656   1.683   3.717  13.300 -0.6644  1.3305  1.1635
 3389TIP3   OH231657   4.135   2.144   4.892 -0.0138 -0.1741  0.2184
 3389TIP3    H131658   4.142   2.090   4.971  1.8627 -0.6083 -0.1855
 3389TIP3    H231659   4.223   2.142   4.854 -0.5591  1.0604 -1.2150
 3390TIP3   OH231660   4.281   2.162   3.367 -0.0131 -0.1784  0.0476
 3390TIP3    H131661   4.348   2.094   3.359  1.0284  0.7683  0.4359
 3390TIP3    H231662   4.269   2.195   3.278 -0.1616 -0.5394 -0.0656
 3391TIP3   OH231663   3.185   0.673  12.862  0.2740  0.3494  0.0358
 3391TIP3    H131664   3.172   0.766  12.881  1.6537  0.8230 -1.1508
 3391TIP3    H231665   3.114   0.651  12.801 -1.1575  0.1115  1.7273
 3392TIP3   OH231666   5.086   0.210   3.504 -0.6667 -0.1021 -0.2259
 3392TIP3    H131667   5.160   0.181   3.557  0.4207  1.2403 -0.9488
 3392TIP3    H231668   5.013   0.214   3.566  0.1063 -0.4242  0.7362
 3393TIP3   OH231669   3.321   0.593   0.904  0.3040 -0.4342  0.1790
 3393TIP3    H131670   3.294   0.570   0.993  1.4292  0.7133  0.8685
 3393TIP3    H231671   3.358   0.512   0.869  0.9181 -0.6229  1.2019
 3394TIP3   OH231672   0.653   1.353  11.726 -0.0353 -0.0513 -0.0940
 3394TIP3    H131673   0.739   1.392  11.710 -1.1861  1.7334 -2.7979
 3394TIP3    H231674   0.605   1.420  11.774 -1.2282  1.0196 -2.5662
 3395TIP3   OH231675   3.812   6.594  12.028  0.0946 -0.5680  0.3865
 3395TIP3    H131676   3.726   6.635  12.023  0.1996 -0.0530  2.1445
 3395TIP3    H231677   3.863   6.634  11.958 -1.1926 -1.1889 -0.9502
 3396TIP3   OH231678   6.549   3.067   4.297 -0.0767 -1.0626  0.6700
 3396TIP3    H131679   6.632   3.020   4.286 -0.2806 -1.0559 -1.1608
 3396TIP3    H231680   6.506   3.060   4.212 -1.3203  0.1598  1.1637
 3397TIP3   OH231681   2.185   6.227  15.292  0.3435  0.3307 -0.6570
 3397TIP3    H131682   2.265   6.211  15.342  0.0239  0.2530 -0.1634
 3397TIP3    H231683   2.131   6.150  15.308 -0.3264  0.9220  0.0044
 3398TIP3   OH231684   2.248   5.546  12.181 -0.0840 -0.2378  0.3398
 3398TIP3    H131685   2.165   5.577  12.146  0.9169  1.4080 -0.6955
 3398TIP3    H231686   2.242   5.563  12.275 -0.5770  0.6905  0.1468
 3399TIP3   OH231687   5.930   0.052   2.539 -0.3425  0.2075  0.7028
 3399TIP3    H131688   5.922   0.035   2.632  0.9952 -1.1098  0.6115
 3399TIP3    H231689   5.955   0.144   2.533  0.1520  0.1419  1.6688
 3400TIP3   OH231690   0.607   3.957  15.663 -0.5576 -0.4821  0.5793
 3400TIP3    H131691   0.576   4.017  15.595 -3.1873  0.4131  2.4040
 3400TIP3    H231692   0.567   3.873  15.641  2.1762 -1.4124 -1.3177
 3401TIP3   OH231693   1.279   1.472  10.357 -0.0106 -0.2631  0.0143
 3401TIP3    H131694   1.363   1.450  10.396 -0.3974 -1.5283  0.1811
 3401TIP3    H231695   1.216   1.462  10.429 -0.2881  0.8323 -0.0636
 3402TIP3   OH231696   3.269   1.132  16.208 -0.1198 -0.5549  0.4440
 3402TIP3    H131697   3.321   1.187  16.267 -0.7352  1.4185 -0.7431
 3402TIP3    H231698   3.185   1.121  16.253 -0.7075  1.2201 -0.1217
 3403TIP3   OH231699   1.466   4.207  14.746  0.0679 -0.2655 -0.2398
 3403TIP3    H131700   1.399   4.268  14.777  0.6740  1.3506 -1.9458
 3403TIP3    H231701   1.541   4.223  14.804  0.0351  0.2187 -0.3271
 3404TIP3   OH231702   6.429   2.967  15.082 -0.3392 -0.1476 -0.0525
 3404TIP3    H131703   6.495   3.025  15.121  0.3817 -1.1836  0.3065
 3404TIP3    H231704   6.458   2.955  14.992 -2.1355  2.4410 -1.0857
 3405TIP3   OH231705   1.092   2.778   5.623 -0.0887 -1.1780 -0.5270
 3405TIP3    H131706   1.115   2.707   5.563 -0.0772  0.8411 -3.0658
 3405TIP3    H231707   1.062   2.849   5.566  0.0891  0.9434  1.8629
 3406TIP3   OH231708   1.040   6.722   5.874  0.0808 -0.5122 -0.2944
 3406TIP3    H131709   1.044   6.760   5.786  0.5492  0.9886  0.3329
 3406TIP3    H231710   0.961   6.761   5.913 -0.1899 -1.2600 -0.0846
 3407TIP3   OH231711   2.496   1.510   1.474 -0.0994  0.0912  0.1116
 3407TIP3    H131712   2.450   1.515   1.391  0.3897 -0.3581 -0.1967
 3407TIP3    H231713   2.587   1.531   1.452  0.1883 -0.8151  0.3799
 3408TIP3   OH231714   0.283   4.068   2.325  0.1965 -0.7865  0.6550
 3408TIP3    H131715   0.196   4.033   2.303  0.6504 -1.4409 -0.1482
 3408TIP3    H231716   0.265   4.154   2.363 -0.8303 -1.0935  0.8980
 3409TIP3   OH231717   6.799   3.743  15.652 -0.2311 -0.0359 -0.3207
 3409TIP3    H131718   6.744   3.762  15.576  0.8778  2.2062 -0.6210
 3409TIP3    H231719   6.882   3.787  15.634  1.4502 -2.6064  0.5066
 3410TIP3   OH231720   2.574   2.450   6.192  1.1041  0.1324  0.4194
 3410TIP3    H131721   2.516   2.420   6.261  1.5201 -0.0239  0.7051
 3410TIP3    H231722   2.546   2.540   6.174  0.0688 -0.2924 -0.2122
 3411TIP3   OH231723   1.195   4.065   5.727 -1.1124 -0.9055 -0.0831
 3411TIP3    H131724   1.197   4.041   5.820 -1.7786 -1.7892 -0.2756
 3411TIP3    H231725   1.277   4.111   5.712 -1.0560 -0.6289  0.9774
 3412TIP3   OH231726   4.473   1.668   0.719  0.0804  0.2525 -0.1353
 3412TIP3    H131727   4.502   1.614   0.791  0.5186  1.3547  0.5452
 3412TIP3    H231728   4.441   1.749   0.760  1.3911  1.3782 -1.2034
 3413TIP3   OH231729   3.443   4.093   2.676 -0.6817  0.3366 -0.2601
 3413TIP3    H131730   3.507   4.065   2.610  0.3943  0.3127  0.7657
 3413TIP3    H231731   3.478   4.175   2.710 -0.8820  0.0314  0.7232
 3414TIP3   OH231732   2.129   6.588  14.414 -0.2517  0.8862 -0.2793
 3414TIP3    H131733   2.092   6.629  14.336 -0.1152  0.3899 -0.6152
 3414TIP3    H231734   2.074   6.617  14.486 -1.4122  0.0355 -0.7880
 3415TIP3   OH231735   5.031   1.731   5.850 -0.2885  0.9514 -0.4154
 3415TIP3    H131736   4.977   1.733   5.929 -1.1952 -1.6700 -0.8553
 3415TIP3    H231737   5.119   1.754   5.880 -0.8771  1.3447  1.0803
 3416TIP3   OH231738   3.883   0.201   2.555 -0.1723  0.7283 -0.4824
 3416TIP3    H131739   3.886   0.221   2.461 -2.1737 -0.9188 -0.9781
 3416TIP3    H231740   3.894   0.106   2.559  1.5072  0.9375  1.1347
 3417TIP3   OH231741   3.937   6.474   0.807 -0.2416 -0.0477  0.0510
 3417TIP3    H131742   3.909   6.403   0.864  1.7838 -1.3877 -0.5123
 3417TIP3    H231743   3.863   6.488   0.747 -0.3196 -2.3908 -0.4758
 3418TIP3   OH231744   4.346   6.176  14.546  0.3117  0.5298 -0.2014
 3418TIP3    H131745   4.393   6.094  14.558 -0.5764  0.1218  0.6845
 3418TIP3    H231746   4.274   6.155  14.487  0.7258  0.9541 -0.8776
 3419TIP3   OH231747   4.899   3.933   3.464 -0.0188  0.1762 -0.5556
 3419TIP3    H131748   4.818   3.898   3.502 -0.3263  1.7758  0.3562
 3419TIP3    H231749   4.965   3.919   3.531 -0.0303  0.8270 -0.4011
 3420TIP3   OH231750   1.507   2.104   0.308 -0.1191  0.2103  0.1055
 3420TIP3    H131751   1.520   2.180   0.364  1.4887 -0.5610  0.8322
 3420TIP3    H231752   1.569   2.117   0.236 -2.2584  1.2631 -1.6504
 3421TIP3   OH231753   3.516   4.333  12.679 -0.1023 -0.3595 -0.0775
 3421TIP3    H131754   3.477   4.324  12.766  0.9718 -1.0706  0.3493
 3421TIP3    H231755   3.599   4.286  12.685  0.9550  1.3294 -0.8796
 3422TIP3   OH231756   1.633   6.611   3.169 -0.1279 -0.0910 -0.0360
 3422TIP3    H131757   1.576   6.659   3.110  1.7865  1.7946 -0.4560
 3422TIP3    H231758   1.669   6.677   3.228  1.3044 -1.2522  0.4725
 3423TIP3   OH231759   5.081   5.531   0.893 -0.5416  0.0332  0.1171
 3423TIP3    H131760   5.041   5.563   0.974  0.4864 -1.0363  1.1042
 3423TIP3    H231761   5.013   5.540   0.827 -3.0814 -3.0591  1.9725
 3424TIP3   OH231762   6.741   0.228  10.474  0.1003 -0.1260  0.5241
 3424TIP3    H131763   6.756   0.149  10.423  0.5835  0.5899 -0.4813
 3424TIP3    H231764   6.802   0.292  10.437 -0.4336  0.7773  1.1707
 3425TIP3   OH231765   5.137   1.621   3.751 -0.1753 -0.4818 -0.3842
 3425TIP3    H131766   5.210   1.679   3.731 -0.7561 -0.2662 -2.0393
 3425TIP3    H231767   5.167   1.534   3.725  0.3592 -0.8063  1.2360
 3426TIP3   OH231768   2.814   0.346   4.045  0.0097  0.2069  0.1096
 3426TIP3    H131769   2.824   0.346   3.949 -1.0507 -0.5461 -0.0135
 3426TIP3    H231770   2.721   0.358   4.060  0.4260  2.9509  1.1417
 3427TIP3   OH231771   2.566   4.529  12.321 -0.1238 -0.3502  0.1125
 3427TIP3    H131772   2.475   4.550  12.342  0.0550  1.3957 -0.6875
 3427TIP3    H231773   2.585   4.581  12.243  1.6071 -0.6032  0.3339
 3428TIP3   OH231774   5.298   0.081   3.919 -0.5123 -0.1943  0.4353
 3428TIP3    H131775   5.326  -0.008   3.897 -1.4364 -0.2763 -0.4464
 3428TIP3    H231776   5.203   0.075   3.927 -0.7272  0.9587 -0.9072
 3429TIP3   OH231777   0.528   6.065   1.915 -0.0470  0.5292 -0.1546
 3429TIP3    H131778   0.464   5.994   1.923 -2.4116  2.1369 -2.7529
 3429TIP3    H231779   0.607   6.023   1.880 -1.0249 -1.0043 -0.6168
 3430TIP3   OH231780   2.018   2.082  14.695 -0.1948  0.3843 -0.5469
 3430TIP3    H131781   1.930   2.104  14.727 -0.6680 -1.2216 -0.6728
 3430TIP3    H231782   2.015   2.101  14.601 -0.1578  1.0522 -0.4172
 3431TIP3   OH231783   3.844   0.485  13.282  0.1482 -0.0554 -0.0751
 3431TIP3    H131784   3.918   0.450  13.233 -0.3703 -0.8696 -0.2979
 3431TIP3    H231785   3.796   0.537  13.219 -0.7034 -1.3743 -0.5597
 3432TIP3   OH231786   1.137   2.718   0.821  0.5990  0.7913  0.0344
 3432TIP3    H131787   1.205   2.764   0.871  2.1462 -0.7242 -0.5750
 3432TIP3    H231788   1.174   2.711   0.733 -1.3203  1.8427 -0.9158
 3433TIP3   OH231789   6.022   6.257  14.236 -0.1267 -0.4525 -0.0950
 3433TIP3    H131790   5.951   6.250  14.173 -0.5366 -0.0209  0.3081
 3433TIP3    H231791   6.006   6.340  14.282  0.3764 -0.5716  0.3129
 3434TIP3   OH231792   4.416   3.608   0.343  0.1466  0.6056 -0.0298
 3434TIP3    H131793   4.472   3.686   0.339  0.3159  0.4367 -1.2014
 3434TIP3    H231794   4.368   3.617   0.426  2.0125  0.6800  1.0968
 3435TIP3   OH231795   3.314   0.648  12.512 -0.0701 -0.4002  0.0634
 3435TIP3    H131796   3.304   0.553  12.506 -0.1975 -0.6060  2.4203
 3435TIP3    H231797   3.403   0.665  12.482 -0.3188 -1.1360 -1.1633
 3436TIP3   OH231798   1.625   4.648   0.986  0.5363  0.2185  0.1074
 3436TIP3    H131799   1.685   4.699   0.932  1.4916 -0.6717  0.3111
 3436TIP3    H231800   1.665   4.646   1.073 -0.3120  0.4865  0.5255
 3437TIP3   OH231801   3.057   4.337   0.066 -0.3493  0.3297 -0.7447
 3437TIP3    H131802   3.102   4.263   0.025  1.0986  0.8553 -0.1820
 3437TIP3    H231803   3.118   4.367   0.133 -1.6790  0.9309  0.2363
 3438TIP3   OH231804   2.664   0.545  16.187 -0.1394  0.2684 -0.7604
 3438TIP3    H131805   2.684   0.459  16.225  1.0508  0.7645 -0.2202
 3438TIP3    H231806   2.576   0.565  16.217 -0.3488 -0.6764 -0.7242
 3439TIP3   OH231807   3.046   6.145  16.678 -0.4465 -0.4367  0.4690
 3439TIP3    H131808   2.957   6.178  16.687  0.1384  1.1210  0.8234
 3439TIP3    H231809   3.102   6.223  16.682  0.8954 -1.2868 -0.5032
 3440TIP3   OH231810   5.118   4.872   1.942 -0.2997  0.3210  0.4872
 3440TIP3    H131811   5.029   4.895   1.970 -1.0896 -2.5684  0.6795
 3440TIP3    H231812   5.131   4.783   1.975  2.4002  0.3755 -0.2186
 3441TIP3   OH231813   5.574   6.134   4.735 -0.5032 -0.9313  0.3360
 3441TIP3    H131814   5.665   6.120   4.763  0.2482  0.2684 -1.3690
 3441TIP3    H231815   5.575   6.117   4.641 -1.7483  0.3585  0.0640
 3442TIP3   OH231816   5.464   6.245   0.474  0.0129  0.3470  0.6631
 3442TIP3    H131817   5.431   6.161   0.508 -1.5319  0.1669 -1.0887
 3442TIP3    H231818   5.447   6.307   0.544  0.2676 -0.6235  1.6165
 3443TIP3   OH231819   1.087   5.827  15.692 -0.3668  0.2207  0.1865
 3443TIP3    H131820   1.111   5.763  15.759 -0.1307 -0.1001 -0.1985
 3443TIP3    H231821   1.104   5.912  15.733 -0.4371  0.0314  0.6103
 3444TIP3   OH231822   2.907   6.159   5.507 -0.3984 -0.2152  0.7724
 3444TIP3    H131823   2.905   6.243   5.461  0.3264 -0.0565  1.0158
 3444TIP3    H231824   2.815   6.132   5.513 -0.7214  1.0419  1.6008
 3445TIP3   OH231825   2.094   5.362  15.030  0.3230 -0.0639 -0.0442
 3445TIP3    H131826   2.071   5.400  14.946  0.5581  2.0966  0.7991
 3445TIP3    H231827   2.010   5.339  15.070  0.2322 -1.6300 -1.0331
 3446TIP3   OH231828   2.358   1.522   2.612  0.4368  0.0383 -0.3781
 3446TIP3    H131829   2.405   1.440   2.593  0.0963 -0.9003  2.4053
 3446TIP3    H231830   2.275   1.493   2.651  0.0496  1.7131  0.1029
 3447TIP3   OH231831   4.540   5.753  13.045  0.2353 -0.2088 -0.2744
 3447TIP3    H131832   4.490   5.674  13.064  0.6391 -0.3524  0.1952
 3447TIP3    H231833   4.590   5.771  13.125 -0.1373  0.7371 -0.2389
 3448TIP3   OH231834   0.448   0.990  13.616 -0.0546 -0.6227 -0.5001
 3448TIP3    H131835   0.353   0.995  13.615 -0.0132  0.3426 -0.8516
 3448TIP3    H231836   0.468   0.907  13.659 -1.0336 -0.2338  0.7466
 3449TIP3   OH231837   2.207   4.519   3.216 -0.3187 -0.0885 -0.5165
 3449TIP3    H131838   2.242   4.431   3.234  0.0757  0.3607  1.0562
 3449TIP3    H231839   2.136   4.504   3.153  1.6633 -1.2061 -2.6901
 3450TIP3   OH231840   5.782   2.404   1.034  0.0869 -0.3052 -0.3330
 3450TIP3    H131841   5.856   2.402   1.094 -1.4233 -0.0752  1.6297
 3450TIP3    H231842   5.760   2.311   1.020  0.1816 -0.3450 -0.2161
 3451TIP3   OH231843   0.298   6.454  13.301  0.2207 -0.0335  0.2814
 3451TIP3    H131844   0.323   6.534  13.347  1.5078 -0.0307 -0.3934
 3451TIP3    H231845   0.381   6.414  13.275 -0.4371 -0.1198 -1.8815
 3452TIP3   OH231846   5.718   5.673   0.066  0.5629  0.1755  0.3189
 3452TIP3    H131847   5.642   5.652   0.011  1.2830 -1.9577  0.0596
 3452TIP3    H231848   5.709   5.618   0.143  1.4668  0.4414  0.6323
 3453TIP3   OH231849   2.334   3.650  12.214 -0.2078 -0.4422 -0.5524
 3453TIP3    H131850   2.307   3.741  12.227 -1.7795 -0.9684  0.0188
 3453TIP3    H231851   2.409   3.638  12.272 -0.6743  0.1802  0.1865
 3454TIP3   OH231852   5.310   3.577  12.237 -0.1241  0.0315  0.1580
 3454TIP3    H131853   5.238   3.633  12.265 -0.4914 -0.8137  0.9434
 3454TIP3    H231854   5.268   3.504  12.192  0.2241 -0.4882  0.6607
 3455TIP3   OH231855   4.872   3.485  13.744 -0.2272  0.3616 -0.2600
 3455TIP3    H131856   4.910   3.402  13.714  0.5083  1.0196 -1.2136
 3455TIP3    H231857   4.947   3.545  13.749 -0.8030  1.0661  0.0806
 3456TIP3   OH231858   3.836   6.372  11.058 -0.4253 -0.1041 -0.1687
 3456TIP3    H131859   3.917   6.418  11.037 -0.5489  0.0280 -0.3653
 3456TIP3    H231860   3.848   6.285  11.020  0.2167 -0.5815  1.0772
 3457TIP3   OH231861   4.604   1.271  14.820 -0.6788  0.4911  0.0467
 3457TIP3    H131862   4.550   1.338  14.862 -1.6706 -0.5998  0.5643
 3457TIP3    H231863   4.601   1.292  14.727 -0.9714  1.1561  0.2001
 3458TIP3   OH231864   6.401   4.672  14.426  0.4669  0.6050  0.8425
 3458TIP3    H131865   6.409   4.678  14.521  2.1482  0.8910  0.7040
 3458TIP3    H231866   6.490   4.658  14.395 -0.4071 -3.2423 -0.4511
 3459TIP3   OH231867   0.892   5.835  12.178 -0.4687  0.0465  0.2347
 3459TIP3    H131868   0.807   5.880  12.179 -0.6225 -0.1884  2.2597
 3459TIP3    H231869   0.883   5.766  12.245  0.0527 -2.4951 -2.1359
 3460TIP3   OH231870   0.685   3.576   5.859  0.2842  0.0088 -0.3482
 3460TIP3    H131871   0.647   3.489   5.869  0.8635 -0.5989 -2.9256
 3460TIP3    H231872   0.773   3.568   5.896 -0.2891  0.0510  1.0893
 3461TIP3   OH231873   6.159   5.748   4.983 -0.0702  0.3333 -0.0183
 3461TIP3    H131874   6.178   5.658   5.013  1.4007  0.4422 -0.5098
 3461TIP3    H231875   6.186   5.803   5.057 -0.6089  0.3977  0.1337
 3462TIP3   OH231876   4.098   0.013   3.953  0.3316  0.2893  0.3235
 3462TIP3    H131877   4.177  -0.027   3.991  0.5432  0.3341 -0.0619
 3462TIP3    H231878   4.120   0.106   3.945 -1.0069  0.9981  3.4584
 3463TIP3   OH231879   1.560   2.949  17.201  0.0124 -0.1257 -0.0048
 3463TIP3    H131880   1.646   2.912  17.179 -1.0759 -2.1600 -1.1496
 3463TIP3    H231881   1.553   2.939  17.296  1.0976  0.1764  0.1128
 3464TIP3   OH231882   3.101   1.333   5.088 -0.4839  0.0369  0.5687
 3464TIP3    H131883   3.191   1.326   5.120  0.0589  0.6793 -0.7421
 3464TIP3    H231884   3.106   1.393   5.014 -2.1218  0.6596  0.9056
 3465TIP3   OH231885   0.851   2.224   5.015  0.3903 -0.0569 -0.4840
 3465TIP3    H131886   0.768   2.221   4.968 -0.2246 -0.7508  0.5909
 3465TIP3    H231887   0.911   2.172   4.962  0.3448  0.9937 -1.6088
 3466TIP3   OH231888   6.782   4.760   1.418  0.3247 -0.5114  0.2619
 3466TIP3    H131889   6.709   4.810   1.381  0.8905  0.2764  0.1873
 3466TIP3    H231890   6.751   4.733   1.504 -0.3113 -0.7765 -0.0385
 3467TIP3   OH231891   2.584   0.407   1.167  0.6441  0.0005  0.0854
 3467TIP3    H131892   2.528   0.421   1.090 -0.8789 -0.6544  1.0083
 3467TIP3    H231893   2.590   0.311   1.174  1.4866  0.0696  0.2919
 3468TIP3   OH231894   0.463   3.035  13.843 -0.0246 -0.0007 -0.0063
 3468TIP3    H131895   0.435   3.008  13.756  1.3508  1.3246 -0.9058
 3468TIP3    H231896   0.537   3.093  13.828 -1.8490  3.0600  1.8429
 3469TIP3   OH231897   6.030   1.458  13.495 -0.1673  0.4119 -0.5413
 3469TIP3    H131898   5.994   1.546  13.496  0.5444  0.7460 -1.8220
 3469TIP3    H231899   6.125   1.471  13.496 -0.0511 -0.3088 -1.1683
 3470TIP3   OH231900   0.900   0.111   2.649 -0.0958  0.4107 -0.4942
 3470TIP3    H131901   0.843   0.084   2.577 -0.6394  1.3198 -0.4180
 3470TIP3    H231902   0.877   0.053   2.721 -0.7375  0.5898 -0.5490
 3471TIP3   OH231903   2.770   5.921  12.942  0.1628 -0.4334 -0.4002
 3471TIP3    H131904   2.798   5.887  12.857 -0.7212 -1.9369 -0.1273
 3471TIP3    H231905   2.676   5.905  12.944 -0.3541  2.2926 -0.3087
 3472TIP3   OH231906   6.480   0.606   5.810 -0.5317 -0.5429  0.5282
 3472TIP3    H131907   6.484   0.667   5.883 -1.0062 -1.0224  0.9682
 3472TIP3    H231908   6.424   0.535   5.842 -0.0581 -1.1600 -0.0047
 3473TIP3   OH231909   1.820   1.360   0.098 -0.2855  0.3007  0.0246
 3473TIP3    H131910   1.822   1.272   0.138  0.8911  0.6427  0.7676
 3473TIP3    H231911   1.770   1.413   0.161 -1.7522 -0.0035 -0.8402
 3474TIP3   OH231912   3.041   4.364   3.586  0.3590  0.5688 -0.3530
 3474TIP3    H131913   3.054   4.434   3.650  0.3553 -0.6321  1.0171
 3474TIP3    H231914   2.983   4.402   3.520  1.0068  2.1024 -0.0861
 3475TIP3   OH231915   3.071   6.052  12.516 -0.5960  0.6222  0.1401
 3475TIP3    H131916   3.133   5.985  12.487  0.0718  1.3307 -0.0995
 3475TIP3    H231917   3.102   6.079  12.603  0.2074  1.8823 -0.5041
 3476TIP3   OH231918   1.862   2.069   3.838 -0.9705 -0.2080 -0.4915
 3476TIP3    H131919   1.889   1.978   3.834  1.3518  0.3550  0.5466
 3476TIP3    H231920   1.869   2.101   3.748  2.8542  0.0648 -0.2532
 3477TIP3   OH231921   4.873   3.041   1.541 -1.1449 -0.1385 -0.0919
 3477TIP3    H131922   4.885   3.094   1.462 -2.9811 -1.0247 -1.0251
 3477TIP3    H231923   4.795   2.989   1.524 -1.0443 -1.0723  1.9452
 3478TIP3   OH231924   1.631   2.140  11.927  0.2366  0.3953  0.5483
 3478TIP3    H131925   1.606   2.087  11.851  1.3712  0.4797  0.0918
 3478TIP3    H231926   1.593   2.094  12.002  0.3031 -0.4780  0.0607
 3479TIP3   OH231927   3.098   4.583  15.758 -0.2453 -0.2620  0.3127
 3479TIP3    H131928   3.079   4.517  15.691  0.6669 -0.1696 -0.0529
 3479TIP3    H231929   3.038   4.562  15.829 -1.1037 -0.4848 -0.4508
 3480TIP3   OH231930   0.486   5.577   3.067 -0.0834 -0.0388  0.8921
 3480TIP3    H131931   0.426   5.584   3.141 -0.5190  0.5969  0.4959
 3480TIP3    H231932   0.456   5.644   3.006  1.1578  0.4367  0.7683
 3481TIP3   OH231933   1.619   0.477   2.083 -0.8669  0.0684  0.8891
 3481TIP3    H131934   1.571   0.411   2.133 -0.2403  0.4107  1.9616
 3481TIP3    H231935   1.656   0.429   2.009 -0.4178 -0.7999  1.6589
 3482TIP3   OH231936   5.771   2.110  17.132  0.6889 -0.6094 -0.6034
 3482TIP3    H131937   5.738   2.097  17.043  1.2668 -1.0462 -0.7592
 3482TIP3    H231938   5.694   2.100  17.188  0.2727 -0.0696 -1.0721
 3483TIP3   OH231939   1.733   4.278  14.136  0.3581 -0.1337  0.2935
 3483TIP3    H131940   1.697   4.328  14.062  0.5398 -1.3335 -0.6268
 3483TIP3    H231941   1.827   4.272  14.118  0.1301 -2.1335 -0.4638
 3484TIP3   OH231942   2.099   1.286   4.613 -0.1304  0.3751  0.0625
 3484TIP3    H131943   2.180   1.240   4.636 -0.7719 -0.9720 -0.3288
 3484TIP3    H231944   2.079   1.338   4.691  0.8025  0.2930  0.3774
 3485TIP3   OH231945   5.355   3.621  10.694 -0.2042 -0.3610 -0.4449
 3485TIP3    H131946   5.273   3.607  10.741  1.3042  0.1515  2.5908
 3485TIP3    H231947   5.419   3.569  10.742  1.3871 -0.3307 -2.4016
 3486TIP3   OH231948   4.978   1.818  11.609 -0.6187  0.5476  0.0060
 3486TIP3    H131949   4.968   1.904  11.649 -0.4415  0.0827  1.0940
 3486TIP3    H231950   4.917   1.762  11.657  0.1406 -0.1965  0.1248
 3487TIP3   OH231951   5.456   3.305   4.595  0.5910  0.2733  0.1879
 3487TIP3    H131952   5.405   3.227   4.574  2.7796 -1.4536  0.8654
 3487TIP3    H231953   5.434   3.368   4.526 -1.1599 -0.9565 -0.4480
 3488TIP3   OH231954   2.500   6.382  16.485 -0.0671  0.1081 -0.4260
 3488TIP3    H131955   2.484   6.442  16.558 -1.5313 -0.8686  0.1255
 3488TIP3    H231956   2.465   6.427  16.408  1.0562  0.9482 -0.4601
 3489TIP3   OH231957   5.101   6.642  13.766 -0.2243 -0.2343  0.6399
 3489TIP3    H131958   5.165   6.576  13.794  0.3020  0.0687  0.1638
 3489TIP3    H231959   5.094   6.701  13.841 -0.0559 -0.3528  0.7501
 3490TIP3   OH231960   6.524   3.438  14.642 -0.1566 -0.1655  0.1472
 3490TIP3    H131961   6.438   3.445  14.683  1.1870  0.2191  3.2300
 3490TIP3    H231962   6.573   3.378  14.699  2.0572  0.8203 -0.5931
 3491TIP3   OH231963   1.390   5.133   5.615  0.2677  0.6330  0.1459
 3491TIP3    H131964   1.402   5.224   5.642 -1.7640  0.8493  0.4655
 3491TIP3    H231965   1.327   5.137   5.543 -0.5725 -0.5602  0.7715
 3492TIP3   OH231966   1.872   4.201   0.394 -0.0146 -0.3182 -0.0288
 3492TIP3    H131967   1.889   4.164   0.480 -0.2635  0.0004  0.1590
 3492TIP3    H231968   1.843   4.290   0.411  0.4002 -0.0966 -0.4677
 3493TIP3   OH231969   0.100   6.201  13.764  0.4528  0.3703 -0.1291
 3493TIP3    H131970   0.037   6.222  13.696 -0.4006  0.9503  0.8094
 3493TIP3    H231971   0.077   6.113  13.792 -1.7557  1.5220  2.0586
 3494TIP3   OH231972   2.439   2.887   5.445  0.0262  0.0717 -1.0145
 3494TIP3    H131973   2.397   2.905   5.361  0.1172 -1.2789 -1.3769
 3494TIP3    H231974   2.437   2.791   5.453 -0.6086  0.1963  0.8487
 3495TIP3   OH231975   0.446   1.285   3.677 -0.1869 -0.3686  0.4698
 3495TIP3    H131976   0.400   1.245   3.603  0.7237 -0.9252  0.1970
 3495TIP3    H231977   0.395   1.364   3.696 -1.2325 -0.9372  0.1524
 3496TIP3   OH231978   3.305   6.032   0.858  0.1967 -0.2384 -0.4914
 3496TIP3    H131979   3.332   5.944   0.830 -0.0644 -1.2280  2.0697
 3496TIP3    H231980   3.209   6.027   0.859  0.1850  0.0644 -0.2994
 3497TIP3   OH231981   1.665   3.561  13.776 -0.7304 -0.4471 -0.7348
 3497TIP3    H131982   1.615   3.575  13.696 -1.5259 -1.8747 -0.5122
 3497TIP3    H231983   1.700   3.472  13.768 -1.9349 -1.1425  1.0494
 3498TIP3   OH231984   6.398   4.380  10.605  0.0458  0.0633  0.2414
 3498TIP3    H131985   6.450   4.310  10.565 -0.9246 -0.0014 -0.9851
 3498TIP3    H231986   6.324   4.335  10.645 -0.5372  0.3601 -0.4762
 3499TIP3   OH231987   6.534   0.711   2.752 -0.3175  0.0159  0.2654
 3499TIP3    H131988   6.580   0.731   2.834 -0.5961  0.1062  0.4032
 3499TIP3    H231989   6.459   0.771   2.752 -1.7803 -1.6825  1.2016
 3500TIP3   OH231990   3.787   6.578  15.004  0.0302 -0.0543  0.2525
 3500TIP3    H131991   3.851   6.510  15.025  2.2184  1.6856 -0.4253
 3500TIP3    H231992   3.758   6.557  14.915  0.4122 -0.2969  0.1847
 3501TIP3   OH231993   2.091   6.760  15.889 -0.2946 -0.3161  0.1233
 3501TIP3    H131994   2.039   6.772  15.968 -2.4302 -1.1835 -1.0715
 3501TIP3    H231995   2.108   6.666  15.885 -0.6770 -0.3607 -0.7053
 3502TIP3   OH231996   4.824   3.047   4.589  0.0079  0.5515  0.4976
 3502TIP3    H131997   4.900   2.993   4.566 -0.0162  0.7501 -0.0466
 3502TIP3    H231998   4.748   2.991   4.568 -0.0034  0.3872  0.9573
 3503TIP3   OH231999   5.848   6.077  16.008 -0.0085  0.5663 -0.9215
 3503TIP3    H132000   5.911   6.019  15.966  1.2881  0.7062  0.7162
 3503TIP3    H232001   5.809   6.024  16.077  1.2252  1.5932  0.6332
 3504TIP3   OH232002   2.301   3.914  12.711 -0.5550  0.2454 -0.5235
 3504TIP3    H132003   2.347   3.998  12.699  0.8369 -0.5415 -0.9225
 3504TIP3    H232004   2.254   3.901  12.629 -1.1448  0.8468 -0.2880
 3505TIP3   OH232005   1.949   4.760  14.614 -0.0584  0.2592  0.2210
 3505TIP3    H132006   1.968   4.774  14.521  0.0042  0.8822  0.3241
 3505TIP3    H232007   2.031   4.727  14.651 -0.6448 -2.0098 -0.3335
 3506TIP3   OH232008   1.753   1.887  14.464  0.1684  0.2853  0.1901
 3506TIP3    H132009   1.663   1.857  14.468  0.7345 -1.7809 -1.1507
 3506TIP3    H232010   1.749   1.968  14.412 -0.6419 -1.2219 -2.2269
 3507TIP3   OH232011   0.841   2.472  12.521 -0.2653  0.2588 -0.2430
 3507TIP3    H132012   0.803   2.415  12.589 -1.2320 -1.2915 -1.9888
 3507TIP3    H232013   0.892   2.537  12.570 -2.3864  0.3393  2.0478
 3508TIP3   OH232014   0.325   2.300   0.635  0.1714 -0.5663 -0.3420
 3508TIP3    H132015   0.402   2.285   0.691 -1.9743  0.3388  3.1755
 3508TIP3    H232016   0.355   2.362   0.568  2.3792  0.2631  1.2983
 3509TIP3   OH232017   1.076   6.653   3.848  0.1836 -0.1615 -0.2235
 3509TIP3    H132018   1.079   6.640   3.943 -0.6883  0.9073 -0.0411
 3509TIP3    H232019   1.001   6.601   3.819 -0.0106  0.1220 -0.2276
 3510TIP3   OH232020   1.028   4.133  11.663 -0.4560 -0.0932 -0.0794
 3510TIP3    H132021   0.990   4.048  11.642  1.4366 -1.2857  1.0146
 3510TIP3    H232022   1.111   4.135  11.614 -1.1803  1.8318 -1.3425
 3511TIP3   OH232023   0.864   0.169  17.023  0.0560  0.5183  0.0620
 3511TIP3    H132024   0.910   0.087  17.041 -1.3937 -0.2507  0.4244
 3511TIP3    H232025   0.867   0.178  16.928  0.3441  0.1337  0.0305
 3512TIP3   OH232026   1.679   2.070   1.909 -0.2912 -0.1810  0.4312
 3512TIP3    H132027   1.760   2.031   1.876  0.3128  1.3052  0.1032
 3512TIP3    H232028   1.664   2.146   1.852 -1.4720  0.0412  1.0145
 3513TIP3   OH232029   5.863   4.014  14.220 -0.2778  0.0612 -0.1407
 3513TIP3    H132030   5.936   4.026  14.160  0.1109 -0.7211  0.1595
 3513TIP3    H232031   5.863   3.920  14.239 -0.9646  0.1544  0.3673
 3514TIP3   OH232032   6.705   6.264  15.222 -0.6630 -0.5281 -0.1049
 3514TIP3    H132033   6.652   6.281  15.144 -1.0403  2.0100  0.6003
 3514TIP3    H232034   6.675   6.328  15.286  2.4898  0.3387  0.7002
 3515TIP3   OH232035   3.003   4.725  14.107  0.0434  0.1415 -0.1720
 3515TIP3    H132036   3.080   4.672  14.130 -0.3278 -0.6422 -0.7128
 3515TIP3    H232037   3.026   4.763  14.022 -0.0570  0.1321 -0.2028
 3516TIP3   OH232038   0.732   5.518   4.301 -0.1944 -0.0558 -1.0556
 3516TIP3    H132039   0.788   5.556   4.233 -1.7070  2.1694 -1.1426
 3516TIP3    H232040   0.775   5.542   4.383  0.6157 -1.1159 -1.1385
 3517TIP3   OH232041   3.027   3.112   3.320  0.4058  0.3722  0.2643
 3517TIP3    H132042   3.025   3.073   3.408 -0.6963  1.0588  0.5568
 3517TIP3    H232043   3.074   3.194   3.332  4.7614 -1.6892 -0.7614
 3518TIP3   OH232044   2.792   5.338   0.402 -0.1487  0.2305  0.1039
 3518TIP3    H132045   2.765   5.258   0.356  2.4183 -0.2887 -0.6426
 3518TIP3    H232046   2.850   5.308   0.471 -0.7034  1.3475  1.0988
 3519TIP3   OH232047   0.355   4.729   5.144 -0.0148 -0.2522 -0.0803
 3519TIP3    H132048   0.346   4.648   5.194 -0.2026 -1.4574 -1.9537
 3519TIP3    H232049   0.449   4.746   5.143 -0.1007  0.4990  1.6858
 3520TIP3   OH232050   6.272   3.277   3.869 -0.2253  0.3183 -0.1353
 3520TIP3    H132051   6.335   3.221   3.823  0.0899  0.5644 -0.0047
 3520TIP3    H232052   6.200   3.288   3.806 -0.6249 -0.8044  0.0854
 3521TIP3   OH232053   6.574   0.431   1.811  0.3878 -0.1558  0.0588
 3521TIP3    H132054   6.517   0.474   1.875 -0.4827 -0.6799 -0.3509
 3521TIP3    H232055   6.608   0.354   1.857  0.2480 -0.1970  0.0944
 3522TIP3   OH232056   3.234   0.394   2.505 -0.4954  0.5740 -0.4301
 3522TIP3    H132057   3.244   0.308   2.463 -0.4703  1.0872 -1.5009
 3522TIP3    H232058   3.315   0.440   2.483  0.6909  0.0034  2.3302
 3523TIP3   OH232059   6.166   4.513   5.973 -0.5143  0.0492  0.3099
 3523TIP3    H132060   6.095   4.549   6.027 -1.1867 -1.5134  0.5161
 3523TIP3    H232061   6.245   4.531   6.023 -0.8818  0.6876  0.6835
 3524TIP3   OH232062   5.795   1.237   5.516 -0.1379 -0.0070  0.0942
 3524TIP3    H132063   5.740   1.212   5.590 -1.6456 -0.8296 -1.2379
 3524TIP3    H232064   5.734   1.277   5.453  0.5296 -1.9054 -1.8928
 3525TIP3   OH232065   3.253   6.282   4.808 -0.6883 -0.2627 -0.4860
 3525TIP3    H132066   3.340   6.320   4.821 -1.2380  0.3719  2.0046
 3525TIP3    H232067   3.255   6.201   4.858 -1.7004  0.0692  0.1147
 3526TIP3   OH232068   6.396   5.121   6.733  0.3541  0.4504  0.6510
 3526TIP3    H132069   6.317   5.094   6.780 -0.2949 -0.9665 -1.1501
 3526TIP3    H232070   6.402   5.215   6.747 -2.0143  0.6987  0.3174
 3527TIP3   OH232071   4.162   6.114   2.708  0.2081 -0.7053 -0.2940
 3527TIP3    H132072   4.255   6.133   2.697  0.5172 -1.8780  0.1135
 3527TIP3    H232073   4.154   6.085   2.799 -0.8841  1.1022  0.2342
 3528TIP3   OH232074   3.330   5.048  16.109  0.4699 -0.2248  0.5217
 3528TIP3    H132075   3.375   5.003  16.182  0.1632 -0.1515  0.7578
 3528TIP3    H232076   3.262   5.099  16.152  1.4455  1.2651  0.3599
 3529TIP3   OH232077   5.324   6.020  14.203  0.3793 -0.6967  0.2496
 3529TIP3    H132078   5.239   5.980  14.186  0.4355 -0.5307 -0.4847
 3529TIP3    H232079   5.375   5.952  14.246 -0.1637 -0.7529  0.8180
 3530TIP3   OH232080   2.879   5.207   2.810 -0.6274 -0.4068 -0.1051
 3530TIP3    H132081   2.918   5.138   2.756 -1.4023 -0.5825 -0.4507
 3530TIP3    H232082   2.835   5.265   2.748  0.5601  0.7758  0.1216
 3531TIP3   OH232083   1.409   0.753  12.024  0.0975 -0.5180 -0.6724
 3531TIP3    H132084   1.460   0.725  12.100  1.0496 -0.2511 -1.1962
 3531TIP3    H232085   1.325   0.710  12.034  1.2956 -3.1371 -1.1572
 3532TIP3   OH232086   2.812   0.999  14.270 -0.2483  0.0850  0.2361
 3532TIP3    H132087   2.780   0.914  14.237 -2.0214  0.7068  0.2427
 3532TIP3    H232088   2.835   0.982  14.361  2.2065 -1.0316 -0.5032
 3533TIP3   OH232089   2.964   0.727  16.173  0.1997 -0.5196 -0.8434
 3533TIP3    H132090   3.017   0.723  16.093  1.4423  0.9239 -0.1456
 3533TIP3    H232091   3.023   0.697  16.242 -0.5550 -0.8235 -0.3203
 3534TIP3   OH232092   0.029   2.723   5.331 -0.4354  0.0020 -0.0040
 3534TIP3    H132093   0.016   2.713   5.237 -0.6642  1.1638 -0.1198
 3534TIP3    H232094  -0.058   2.710   5.369 -0.3334 -0.5172  0.0522
 3535TIP3   OH232095   3.843   0.202  16.551 -0.3510 -0.5255  0.7108
 3535TIP3    H132096   3.880   0.150  16.622 -0.0784 -1.7927 -0.3033
 3535TIP3    H232097   3.753   0.171  16.543 -0.8132  0.6047  1.3935
 3536TIP3   OH232098   3.268   5.505  16.062  0.8066  0.4097 -0.4334
 3536TIP3    H132099   3.255   5.476  16.152 -0.3878 -0.0005 -0.7240
 3536TIP3    H232100   3.188   5.552  16.039  1.4152  1.1847 -1.0322
 3537TIP3   OH232101   2.537   3.063  11.282 -0.1115 -0.4024 -0.1653
 3537TIP3    H132102   2.474   2.995  11.306  0.5591 -0.4748  1.5097
 3537TIP3    H232103   2.569   3.097  11.365  0.5594  1.0579 -0.9726
 3538TIP3   OH232104   1.465   3.477  11.754  0.8124 -0.2418 -0.5546
 3538TIP3    H132105   1.420   3.436  11.680 -0.0252 -0.1832 -0.0902
 3538TIP3    H232106   1.557   3.476  11.729  1.1408 -4.0212  0.1481
 3539TIP3   OH232107   5.701   1.542  12.117  1.1655 -0.3750  0.3747
 3539TIP3    H132108   5.674   1.481  12.185  0.7816 -0.2688  0.3197
 3539TIP3    H232109   5.650   1.516  12.040  0.5869  0.3570  0.4957
 3540TIP3   OH232110   1.790   2.162  14.794 -0.2302 -0.2185 -0.5271
 3540TIP3    H132111   1.794   2.187  14.701 -2.2980  1.9092 -0.1204
 3540TIP3    H232112   1.754   2.238  14.838 -0.6940 -1.7101  1.8416
 3541TIP3   OH232113   5.290   0.538  15.904  0.6211 -0.2355 -0.2698
 3541TIP3    H132114   5.210   0.556  15.854 -0.0034 -2.3525 -0.1127
 3541TIP3    H232115   5.259   0.495  15.983  1.8964 -0.5851  0.0482
 3542TIP3   OH232116   2.853   6.065  11.737  0.1859 -0.2068  0.4867
 3542TIP3    H132117   2.942   6.068  11.773  0.2753 -0.6673  0.3048
 3542TIP3    H232118   2.831   5.972  11.735  0.8208 -0.3875 -2.2065
 3543TIP3   OH232119   5.310   4.456  14.678 -0.3670  0.4514  1.2383
 3543TIP3    H132120   5.295   4.494  14.591 -0.3191 -1.2456  0.4532
 3543TIP3    H232121   5.372   4.516  14.719  0.4139  0.7589 -0.3001
 3544TIP3   OH232122   6.742   3.409  17.173 -0.2452 -0.1416 -0.3728
 3544TIP3    H132123   6.701   3.389  17.257  0.5469  0.4419  0.1619
 3544TIP3    H232124   6.736   3.327  17.124  0.2876 -0.8354  0.6757
 3545TIP3   OH232125   1.912   3.605  11.470  0.0199  0.1272 -0.1735
 3545TIP3    H132126   1.821   3.580  11.486 -0.8835  2.3381 -1.4311
 3545TIP3    H232127   1.936   3.655  11.548 -0.5688  1.2815 -0.7089
 3546TIP3   OH232128   0.311   0.804   3.919  0.2788  0.3941  0.5975
 3546TIP3    H132129   0.304   0.847   3.834 -0.2701  0.9468  0.9115
 3546TIP3    H232130   0.372   0.731   3.905  0.1192  0.4245 -0.2830
 3547TIP3   OH232131   3.684   6.773  16.726 -0.0368 -0.1639 -0.3010
 3547TIP3    H132132   3.775   6.780  16.696  1.3148 -1.2926  2.9702
 3547TIP3    H232133   3.689   6.793  16.819 -2.9790 -1.3074  0.2037
 3548TIP3   OH232134   3.533   6.571   5.284 -0.4599  0.5547  0.2129
 3548TIP3    H132135   3.526   6.656   5.328 -1.3080  0.9360 -0.6270
 3548TIP3    H232136   3.539   6.507   5.355  1.5122  1.3952  0.8569
 3549TIP3   OH232137   6.301   2.162  17.069  0.4108 -0.5469  0.4111
 3549TIP3    H132138   6.390   2.192  17.089  0.3380 -0.2557  0.3098
 3549TIP3    H232139   6.294   2.171  16.974  0.0440  0.0830  0.4918
 3550TIP3   OH232140   3.939   4.715  13.740 -0.5734 -0.5547 -0.0384
 3550TIP3    H132141   3.898   4.739  13.823 -0.5004 -1.5204  0.2925
 3550TIP3    H232142   3.964   4.798  13.700  0.2336 -0.1027  1.3358
 3551TIP3   OH232143   1.603   0.321   5.106 -0.6016 -0.0896  0.0331
 3551TIP3    H132144   1.622   0.242   5.055 -1.2654 -1.4687  1.8222
 3551TIP3    H232145   1.513   0.310   5.135 -0.5942  1.1734  0.6137
 3552TIP3   OH232146   3.500   5.541   3.370  0.1913  0.8732 -0.0624
 3552TIP3    H132147   3.500   5.564   3.462 -0.2691  1.2352 -0.1500
 3552TIP3    H232148   3.571   5.593   3.332 -0.9174  2.2803 -0.2836
 3553TIP3   OH232149   0.759   4.970   3.256  0.1738  0.0036 -0.2441
 3553TIP3    H132150   0.807   4.893   3.289 -0.5806  0.4885  2.1177
 3553TIP3    H232151   0.682   4.933   3.214  1.7185 -0.6909 -2.7329
 3554TIP3   OH232152   0.085   0.696   3.780 -0.0838 -0.4573  0.0585
 3554TIP3    H132153   0.179   0.679   3.784  0.0614  0.3280  0.1025
 3554TIP3    H232154   0.076   0.787   3.805 -0.7743 -0.2681 -0.8297
 3555TIP3   OH232155   1.263   2.030  13.995  0.3939  0.0434 -0.1058
 3555TIP3    H132156   1.231   1.964  13.934  1.4990 -0.9574  0.3588
 3555TIP3    H232157   1.302   1.979  14.066  1.7789  1.2023 -0.0030
 3556TIP3   OH232158   3.596   0.744  12.139 -0.4152  0.3749 -0.1427
 3556TIP3    H132159   3.597   0.771  12.047  0.4336  0.7693 -0.0236
 3556TIP3    H232160   3.685   0.715  12.157 -0.7574 -0.4022  0.3581
 3557TIP3   OH232161   4.303   2.567   3.834 -0.6347 -0.2157 -0.0575
 3557TIP3    H132162   4.306   2.473   3.815 -0.5907 -0.2216 -0.0241
 3557TIP3    H232163   4.378   2.603   3.787  0.2609 -0.4290  1.1463
 3558TIP3   OH232164   6.192   0.710   1.371  1.0367  0.3002  0.4158
 3558TIP3    H132165   6.279   0.673   1.382  1.1571 -0.2615 -1.9542
 3558TIP3    H232166   6.155   0.663   1.297 -1.0525  0.9831  0.9610
 3559TIP3   OH232167   5.084   4.626  13.392 -0.1576 -0.0073  0.6221
 3559TIP3    H132168   4.988   4.629  13.401 -0.3409 -1.1634 -0.5674
 3559TIP3    H232169   5.117   4.670  13.470 -1.6567 -0.6225  1.6581
 3560TIP3   OH232170   4.252   2.045  12.768 -1.2419  0.3032 -0.2496
 3560TIP3    H132171   4.171   2.035  12.718 -1.7867 -0.4454  0.7370
 3560TIP3    H232172   4.302   1.965  12.749 -0.4141  1.0622 -1.3764
 3561TIP3   OH232173   3.269   6.392   2.507 -0.0380 -0.9679  0.3919
 3561TIP3    H132174   3.237   6.476   2.538  0.1580 -0.4356 -0.7866
 3561TIP3    H232175   3.364   6.398   2.514  0.1822  0.0353 -2.2819
 3562TIP3   OH232176   6.730   5.209   0.157  0.0436 -0.0715 -0.2119
 3562TIP3    H132177   6.766   5.282   0.107  0.7258 -0.7017 -0.6696
 3562TIP3    H232178   6.774   5.215   0.242 -2.4338  2.0824  1.0768
 3563TIP3   OH232179   3.283   4.265   3.510  0.4652  0.1556 -0.3837
 3563TIP3    H132180   3.198   4.293   3.543  0.5605 -2.9216  3.0917
 3563TIP3    H232181   3.339   4.263   3.587  2.8029 -0.9302 -2.0108
 3564TIP3   OH232182   2.704   4.718   2.358  0.2343 -0.2865 -0.3923
 3564TIP3    H132183   2.659   4.634   2.348 -0.4554  0.2538 -2.3702
 3564TIP3    H232184   2.749   4.731   2.274 -0.0380  1.5038 -0.3042
 3565TIP3   OH232185   2.732   3.830  12.812 -0.2370  0.2956  0.1019
 3565TIP3    H132186   2.671   3.895  12.846 -0.2841  0.3256 -0.0407
 3565TIP3    H232187   2.678   3.753  12.795 -0.3925  0.6144 -0.8663
 3566TIP3   OH232188   2.563   6.260   0.679  0.2530 -0.3232  0.3208
 3566TIP3    H132189   2.546   6.180   0.729  0.0439 -0.9290 -0.6862
 3566TIP3    H232190   2.598   6.229   0.596  1.2002  0.6884  0.3207
 3567TIP3   OH232191   0.137   6.092  11.827  0.3821 -0.1284 -0.1853
 3567TIP3    H132192   0.115   6.181  11.801 -0.0818 -0.1046  0.2719
 3567TIP3    H232193   0.201   6.102  11.897 -1.8288 -0.0333  1.9531
 3568TIP3   OH232194   6.747   0.059  10.830 -0.0616  0.4932 -0.0145
 3568TIP3    H132195   6.813   0.093  10.770  1.6597  1.6691  2.4020
 3568TIP3    H232196   6.722  -0.026  10.792  3.6166 -0.5412 -0.5334
 3569TIP3   OH232197   0.205   2.610  11.018  0.0732  0.4263 -0.0004
 3569TIP3    H132198   0.113   2.633  11.013 -0.1864 -0.7156 -1.2265
 3569TIP3    H232199   0.225   2.605  11.111 -1.4627 -0.6118  0.3022
 3570TIP3   OH232200   6.251   3.726   4.201 -0.0860  0.1221 -0.5576
 3570TIP3    H132201   6.168   3.763   4.232 -0.5034 -0.6087 -0.7645
 3570TIP3    H232202   6.296   3.699   4.281 -0.2669  0.0668 -0.4742
 3571TIP3   OH232203   1.402   5.196  16.878  0.0806  0.2195  0.0287
 3571TIP3    H132204   1.434   5.286  16.874  0.9170 -0.0925 -1.6643
 3571TIP3    H232205   1.479   5.145  16.905  1.0086 -0.4507 -3.3724
 3572TIP3   OH232206   4.305   0.067   0.921  0.0372 -0.5128  0.1184
 3572TIP3    H132207   4.380   0.016   0.889 -1.1250 -1.8233 -0.6207
 3572TIP3    H232208   4.283   0.125   0.848 -0.1205 -0.6495  0.0572
 3573TIP3   OH232209   0.262   3.316   1.632 -0.5764  0.3541 -0.2283
 3573TIP3    H132210   0.348   3.349   1.657 -0.0570 -0.6814 -0.5904
 3573TIP3    H232211   0.203   3.390   1.645  0.4541  1.2435 -0.5084
 3574TIP3   OH232212   2.015   0.108   4.726 -0.1196  0.3363  0.5782
 3574TIP3    H132213   2.024   0.046   4.654  0.9884 -1.0578  1.8367
 3574TIP3    H232214   2.057   0.188   4.694 -0.4330  0.0388 -0.6247
 3575TIP3   OH232215   3.169   1.420  10.636  0.2428  0.6588  0.0472
 3575TIP3    H132216   3.094   1.469  10.673  0.2404 -0.5095  1.7161
 3575TIP3    H232217   3.242   1.442  10.694  0.4609 -0.5602  0.2567
 3576TIP3   OH232218   1.892   3.584  10.802 -0.5023  0.8069  0.3823
 3576TIP3    H132219   1.946   3.597  10.880 -1.1031  0.1971  0.9130
 3576TIP3    H232220   1.867   3.491  10.806 -0.8044  0.8532 -0.3602
 3577TIP3   OH232221   1.136   5.938  12.110  0.2313 -0.3151  0.2560
 3577TIP3    H132222   1.073   5.866  12.120  0.0901 -0.1107  0.8414
 3577TIP3    H232223   1.091   6.000  12.053 -0.2690  0.0137  0.9947
 3578TIP3   OH232224   5.276   5.637   4.750 -0.0304  0.1106  0.1414
 3578TIP3    H132225   5.205   5.592   4.704  0.8855  0.0239 -1.2409
 3578TIP3    H232226   5.356   5.601   4.713  0.7393  1.3821  0.5017
 3579TIP3   OH232227   0.511   2.264   0.830 -0.2218  0.3432 -0.1001
 3579TIP3    H132228   0.563   2.301   0.758  0.0019  2.0013  0.8667
 3579TIP3    H232229   0.485   2.339   0.882 -2.4151 -0.5927  0.2671
 3580TIP3   OH232230   5.327   3.660   5.135  0.1000  0.6324 -0.6345
 3580TIP3    H132231   5.315   3.617   5.050 -0.1451  0.7883 -0.6797
 3580TIP3    H232232   5.421   3.675   5.142 -0.0216  1.9125 -1.5055
 3581TIP3   OH232233   5.879   4.001  13.058 -0.1683  0.4472  0.0179
 3581TIP3    H132234   5.877   3.918  13.011 -1.6310  0.5628 -0.1726
 3581TIP3    H232235   5.823   3.987  13.135  1.4853  0.5290  1.2870
 3582TIP3   OH232236   5.370   2.684   6.654  0.6333  0.9752 -0.3949
 3582TIP3    H132237   5.282   2.710   6.682  0.9600  0.0522  1.6460
 3582TIP3    H232238   5.354   2.611   6.593 -0.0481 -0.6547  1.5987
 3583TIP3   OH232239   5.928   5.440   2.950 -0.2158 -0.0722 -0.0135
 3583TIP3    H132240   5.962   5.371   3.007  0.0225 -2.0926 -2.4418
 3583TIP3    H232241   5.955   5.521   2.992  3.0026 -1.4856  0.9376
 3584TIP3   OH232242   3.084   6.185   0.786 -0.1078  0.1093  0.8501
 3584TIP3    H132243   3.141   6.262   0.785 -0.4317  0.3882 -1.3431
 3584TIP3    H232244   3.014   6.208   0.847  0.7696  0.7949  1.6266
 3585TIP3   OH232245   2.822   6.076   3.695 -0.1687 -0.4103 -0.2515
 3585TIP3    H132246   2.848   6.000   3.748  0.5119 -0.0212 -0.0087
 3585TIP3    H232247   2.898   6.134   3.699 -0.3414 -0.1156 -1.1868
 3586TIP3   OH232248   1.193   1.664   5.519  0.1828 -0.2438  0.2764
 3586TIP3    H132249   1.176   1.755   5.541 -0.4465  0.2547 -1.9561
 3586TIP3    H232250   1.144   1.613   5.583  0.6833  0.9580  1.6584
 3587TIP3   OH232251   2.482   1.790  11.281  0.0500 -0.3057  0.3568
 3587TIP3    H132252   2.569   1.757  11.304  0.1306 -0.1535  0.2692
 3587TIP3    H232253   2.498   1.878  11.246 -0.2118  0.0343  1.0632
 3588TIP3   OH232254   5.122   4.947   4.314  0.0157 -0.0192 -0.3299
 3588TIP3    H132255   5.103   4.980   4.226  0.4763 -0.1976 -0.4993
 3588TIP3    H232256   5.133   5.026   4.368  1.7891  0.1471 -0.8762
 3589TIP3   OH232257   2.620   3.269  13.861 -0.1022 -0.0945 -0.4430
 3589TIP3    H132258   2.615   3.252  13.955 -0.6266 -1.0905 -0.6258
 3589TIP3    H232259   2.695   3.327  13.850  0.1206 -0.1765  0.5630
 3590TIP3   OH232260   1.143   1.808   2.024 -0.3247  0.2941 -0.0689
 3590TIP3    H132261   1.179   1.814   1.936  0.8693  2.2118  0.4827
 3590TIP3    H232262   1.134   1.715   2.041  1.1590 -0.1517 -1.5355
 3591TIP3   OH232263   4.743   0.604   0.944  0.1194 -0.7465  0.4005
 3591TIP3    H132264   4.830   0.592   0.981  1.6301  1.1699 -2.1150
 3591TIP3    H232265   4.697   0.660   1.006  1.5542  0.1360  0.7038
 3592TIP3   OH232266   5.303   6.405   3.622  0.4079 -0.0491 -0.1907
 3592TIP3    H132267   5.223   6.387   3.672 -0.4250  1.9313 -0.6968
 3592TIP3    H232268   5.331   6.491   3.653  1.6982 -0.2059 -0.8618
 3593TIP3   OH232269   4.026   4.548  15.734  0.3387  0.5827 -0.4669
 3593TIP3    H132270   4.019   4.461  15.773 -2.7375 -0.0529 -2.1230
 3593TIP3    H232271   3.949   4.595  15.766 -1.1981  0.7142 -3.8457
 3594TIP3   OH232272   1.257   3.140  13.282 -0.1297 -0.1741  0.4815
 3594TIP3    H132273   1.284   3.205  13.347 -2.3772  0.5682  0.7780
 3594TIP3    H232274   1.162   3.152  13.275 -0.4544 -2.6776 -0.3084
 3595TIP3   OH232275   6.724   1.733   4.283  0.2712  0.0092  0.3222
 3595TIP3    H132276   6.640   1.746   4.241  0.4174  1.8031  0.5062
 3595TIP3    H232277   6.720   1.644   4.319 -0.4751 -0.9655 -2.0037
 3596TIP3   OH232278   1.002   1.204   2.698 -0.2571  0.1289 -0.5854
 3596TIP3    H132279   0.996   1.130   2.758 -0.2969  1.1302  0.7117
 3596TIP3    H232280   0.919   1.203   2.650 -0.3047 -0.5945 -0.5005
 3597TIP3   OH232281   1.846   0.087  14.717  0.5272  0.1364  0.2524
 3597TIP3    H132282   1.760   0.099  14.755 -0.2790  0.2049 -1.4889
 3597TIP3    H232283   1.843   0.136  14.635  1.9044 -0.6247 -0.2911
 3598TIP3   OH232284   2.606   0.322  14.698  0.2633  0.1364 -0.0253
 3598TIP3    H132285   2.511   0.321  14.706  0.2626  0.0201 -0.0364
 3598TIP3    H232286   2.629   0.231  14.679  0.4758 -0.0682  1.1324
 3599TIP3   OH232287   0.785   4.078  11.428 -0.4771 -0.6613  0.0964
 3599TIP3    H132288   0.832   4.105  11.350 -0.4385  1.1323  0.6934
 3599TIP3    H232289   0.699   4.049  11.397 -0.7785  0.8617 -0.5470
 3600TIP3   OH232290   3.666   5.979  11.252  0.0013 -0.4681 -0.3664
 3600TIP3    H132291   3.665   5.914  11.182  0.4401  0.3838 -1.1892
 3600TIP3    H232292   3.750   6.023  11.242 -0.1830  0.0537  0.3417
 3601TIP3   OH232293   2.831   6.773  16.360  0.1294  0.4621 -0.0487
 3601TIP3    H132294   2.783   6.717  16.299 -0.3873 -0.4647  1.1612
 3601TIP3    H232295   2.897   6.816  16.306 -0.9197  0.4086 -1.4228
 3602TIP3   OH232296   5.221   5.853  12.645 -0.1533 -0.5022  0.0799
 3602TIP3    H132297   5.152   5.904  12.602 -0.0539 -1.2208 -0.9875
 3602TIP3    H232298   5.297   5.910  12.643 -0.7636  0.3927  1.4903
 3603TIP3   OH232299   2.532   1.567  13.935  0.2060 -0.9126  0.1898
 3603TIP3    H132300   2.570   1.524  13.858  1.0095 -1.3674  0.8327
 3603TIP3    H232301   2.586   1.645  13.949 -0.8409 -0.0114 -0.5720
 3604TIP3   OH232302   6.124   3.599  14.136 -0.1966  0.4235 -0.4186
 3604TIP3    H132303   6.056   3.590  14.203 -1.9088  2.5001 -1.7654
 3604TIP3    H232304   6.110   3.686  14.099  0.9981 -0.4528 -3.1442
 3605TIP3   OH232305   3.553   3.550   1.977 -0.1877  0.4349 -0.6028
 3605TIP3    H132306   3.492   3.499   2.030 -0.3964  0.0341 -1.2062
 3605TIP3    H232307   3.609   3.595   2.040 -0.8130  0.4433 -0.0485
 3606TIP3   OH232308   2.731   4.735   3.850 -0.2171 -0.0605 -0.1326
 3606TIP3    H132309   2.768   4.680   3.919  0.2273 -2.3226 -2.0486
 3606TIP3    H232310   2.658   4.780   3.892 -0.3985 -1.8740  1.6632
 3607TIP3   OH232311   0.128   2.454   1.285  0.1512 -0.6290  0.3875
 3607TIP3    H132312   0.175   2.371   1.276 -0.5378 -1.0891  0.8932
 3607TIP3    H232313   0.141   2.499   1.201  1.0035 -0.9928  0.3152
 3608TIP3   OH232314   1.053   2.950  15.902  0.1196 -0.2122 -0.1797
 3608TIP3    H132315   1.051   2.917  15.812 -0.4606  0.5648 -0.4614
 3608TIP3    H232316   0.982   3.013  15.906  1.8175  1.8083  0.0177
 3609TIP3   OH232317   3.981   0.855   5.319  0.1904 -0.4947  0.0605
 3609TIP3    H132318   3.999   0.854   5.413  1.2938 -0.5157 -0.1362
 3609TIP3    H232319   3.886   0.863   5.312  0.1094 -0.4356  1.1760
 3610TIP3   OH232320   2.935   3.973   1.682  0.1774 -0.0069  0.2743
 3610TIP3    H132321   2.858   4.029   1.689  0.5006  0.8710 -2.1307
 3610TIP3    H232322   3.007   4.026   1.716  0.0439 -0.0135  0.5630
 3611TIP3   OH232323   4.768   0.428  12.099  0.1161  0.1515  0.2203
 3611TIP3    H132324   4.809   0.347  12.131 -0.6143 -0.1221  0.4673
 3611TIP3    H232325   4.728   0.403  12.016  0.8699  0.5468 -0.2813
 3612TIP3   OH232326   3.746   4.237  14.914 -0.0903 -0.0063  0.0226
 3612TIP3    H132327   3.759   4.248  14.820  0.5404 -0.1538  0.0863
 3612TIP3    H232328   3.817   4.179  14.942  1.3337  2.0927  1.0316
 3613TIP3   OH232329   1.569   0.536   0.042 -0.0102  0.4357 -0.0828
 3613TIP3    H132330   1.653   0.537  -0.004 -0.2717  0.1791 -0.5763
 3613TIP3    H232331   1.522   0.461   0.004 -1.1386  1.5691 -1.0394
 3614TIP3   OH232332   2.958   5.297   5.760 -0.4334  0.4014 -0.2273
 3614TIP3    H132333   2.908   5.235   5.814  0.0462  1.2080  1.2118
 3614TIP3    H232334   2.978   5.369   5.820  0.1274  1.3448 -1.5169
 3615TIP3   OH232335   6.513   5.465  16.117  0.2546  0.2055  0.3029
 3615TIP3    H132336   6.469   5.550  16.128  1.1469  1.0111 -1.8204
 3615TIP3    H232337   6.605   5.484  16.133  0.6027 -0.0924 -1.1830
 3616TIP3   OH232338   0.800   3.652  11.388  0.2346  0.4287 -0.0194
 3616TIP3    H132339   0.845   3.623  11.467 -0.6751 -2.8484 -0.5834
 3616TIP3    H232340   0.707   3.644  11.409 -0.0397  1.0581 -0.9414
 3617TIP3   OH232341   2.837   2.197   3.987 -0.3347  0.4002 -0.0914
 3617TIP3    H132342   2.755   2.246   3.996 -1.2420 -1.2866  1.9663
 3617TIP3    H232343   2.810   2.105   3.999  1.6384 -0.3728 -1.1699
 3618TIP3   OH232344   5.672   0.154  16.697  0.4009 -0.1526 -0.4638
 3618TIP3    H132345   5.730   0.222  16.733 -0.7695  0.0196  1.2163
 3618TIP3    H232346   5.602   0.203  16.654  0.1432 -0.3044 -0.2192
 3619TIP3   OH232347   3.779   5.558  14.791 -0.2358  0.4394 -0.2008
 3619TIP3    H132348   3.832   5.554  14.871 -1.3532 -0.7452  0.5139
 3619TIP3    H232349   3.694   5.523  14.817 -0.6229  0.0333 -1.9190
 3620TIP3   OH232350   6.559   1.051  14.521  0.0661  0.2787  0.1642
 3620TIP3    H132351   6.492   0.983  14.531  0.3688 -0.3683 -1.7459
 3620TIP3    H232352   6.510   1.134  14.524 -0.5836 -0.1130  0.5128
 3621TIP3   OH232353   6.623   5.922   2.950 -0.4462  0.5387  0.3464
 3621TIP3    H132354   6.614   5.931   2.855  0.1785  1.0681  0.3300
 3621TIP3    H232355   6.697   5.979   2.972  0.4520 -0.8292  0.9406
 3622TIP3   OH232356   1.934   5.571  14.790 -0.1590 -0.1641  0.5752
 3622TIP3    H132357   1.895   5.485  14.776  0.9568 -0.4916 -0.6775
 3622TIP3    H232358   1.894   5.603  14.871 -1.2808 -1.4529  0.5477
 3623TIP3   OH232359   0.333   0.613   2.745  0.4543  0.1677 -0.4094
 3623TIP3    H132360   0.403   0.658   2.697 -0.0826  0.9690 -0.4605
 3623TIP3    H232361   0.252   0.649   2.709  0.0213  1.1038  1.3574
 3624TIP3   OH232362   3.879   0.003  16.932 -0.7143 -0.0655  0.5500
 3624TIP3    H132363   3.793   0.032  16.964 -0.5357  1.3212 -0.1304
 3624TIP3    H232364   3.942   0.044  16.992 -0.4682  0.4928 -0.0835
 3625TIP3   OH232365   3.946   3.934  11.429  0.3149 -0.0998 -0.6559
 3625TIP3    H132366   4.021   3.987  11.456  0.4021 -0.0208 -1.0366
 3625TIP3    H232367   3.981   3.877  11.360  0.0480 -0.1320 -0.7680
 3626TIP3   OH232368   6.104   0.813   3.411  0.0652  0.0902  0.5894
 3626TIP3    H132369   6.097   0.885   3.474  1.3438  0.1011  0.7322
 3626TIP3    H232370   6.168   0.842   3.347  0.4462 -0.8363  0.5275
 3627TIP3   OH232371   6.805   6.285   1.970  0.1522 -0.0669  0.3581
 3627TIP3    H132372   6.770   6.199   1.993  0.8681 -0.5787 -0.4320
 3627TIP3    H232373   6.728   6.335   1.941 -0.4649 -0.0210  1.9828
 3628TIP3   OH232374   0.299   4.344  16.704 -0.1110  0.0109  0.1964
 3628TIP3    H132375   0.319   4.253  16.727 -1.9778 -0.8028 -1.1469
 3628TIP3    H232376   0.311   4.392  16.785  1.7659 -1.2600  0.7506
 3629TIP3   OH232377   1.554   4.735   1.517  0.3540 -0.1111 -0.3246
 3629TIP3    H132378   1.468   4.705   1.487  0.0569 -1.7793  1.9068
 3629TIP3    H232379   1.537   4.776   1.602  1.7438 -0.4909  0.1582
 3630TIP3   OH232380   2.104   3.737   3.737 -0.1250  0.3690 -0.6146
 3630TIP3    H132381   2.079   3.745   3.829  0.8151 -0.7834 -0.2344
 3630TIP3    H232382   2.199   3.746   3.737 -0.1252  0.5189 -1.5013
 3631TIP3   OH232383   5.877   5.453   3.357  0.2033 -0.1277 -0.1374
 3631TIP3    H132384   5.799   5.509   3.352  0.2215  0.1014  1.5703
 3631TIP3    H232385   5.900   5.451   3.449  2.2548 -0.1969 -0.5937
 3632TIP3   OH232386   6.022   1.879   0.227  0.2359 -0.1886  0.3674
 3632TIP3    H132387   6.021   1.791   0.189  0.7092  0.4083 -1.0911
 3632TIP3    H232388   6.042   1.937   0.154  0.3863  1.1043  1.3885
 3633TIP3   OH232389   4.913   1.934  16.422  0.0854  0.3336  0.5155
 3633TIP3    H132390   4.911   1.847  16.463  0.5815 -0.7213 -1.5363
 3633TIP3    H232391   4.844   1.930  16.355  1.2236  0.8627 -0.7463
 3634TIP3   OH232392   2.263   1.390  16.634 -0.7155  0.2138  0.1910
 3634TIP3    H132393   2.266   1.302  16.595 -0.6318  0.3320 -0.0730
 3634TIP3    H232394   2.170   1.403  16.655 -0.8605  0.3653 -0.4922
 3635TIP3   OH232395   2.606   5.411  15.605 -0.0476 -0.4526  0.6768
 3635TIP3    H132396   2.596   5.316  15.597 -1.1630 -0.3497  0.7316
 3635TIP3    H232397   2.553   5.434  15.681 -0.4459  0.3162  0.1760
 3636TIP3   OH232398   5.373   3.149   5.913  0.2702 -0.5710  0.3519
 3636TIP3    H132399   5.346   3.201   5.989 -0.1429 -1.0953  0.5736
 3636TIP3    H232400   5.468   3.144   5.920  0.3381  0.3658  0.1826
 3637TIP3   OH232401   6.630   6.315  16.610  0.3534  0.7622  0.4293
 3637TIP3    H132402   6.713   6.280  16.577  0.1244 -0.1896  0.8208
 3637TIP3    H232403   6.635   6.409  16.594  0.3369  0.3817 -2.0977
 3638TIP3   OH232404   2.591   0.253   2.084 -0.4791  0.3611 -0.7718
 3638TIP3    H132405   2.658   0.224   2.145 -0.6838  0.4080 -0.5222
 3638TIP3    H232406   2.627   0.332   2.043  0.2049 -0.4049 -1.6740
 3639TIP3   OH232407   4.636   4.005   4.642  0.0847  0.2561 -0.1231
 3639TIP3    H132408   4.560   3.946   4.642  2.0794 -2.6733  2.7706
 3639TIP3    H232409   4.688   3.978   4.566 -0.0853 -0.2273 -0.0738
 3640TIP3   OH232410   1.653   1.713   1.050 -0.3222  0.8206  0.2516
 3640TIP3    H132411   1.573   1.759   1.028  0.5250  1.9555 -0.6104
 3640TIP3    H232412   1.702   1.710   0.968 -1.0619 -3.2924 -0.2464
 3641TIP3   OH232413   1.031   0.094   1.467  0.0349  0.5903  0.3212
 3641TIP3    H132414   1.000   0.011   1.431 -0.0461  1.4185 -1.6063
 3641TIP3    H232415   1.049   0.074   1.559 -0.4550 -1.4272  0.0351
 3642TIP3   OH232416   5.750   5.404   3.740  0.1906 -0.1351  0.1531
 3642TIP3    H132417   5.816   5.334   3.737 -0.1589 -0.4486 -1.1917
 3642TIP3    H232418   5.688   5.379   3.672  0.4218  1.8517 -0.8337
 3643TIP3   OH232419   0.382   2.069   3.164  0.3905 -0.5623  0.0206
 3643TIP3    H132420   0.411   2.015   3.090  0.7446 -0.3327 -0.0117
 3643TIP3    H232421   0.352   2.006   3.229  0.0385 -0.7656 -0.3316
 3644TIP3   OH232422   5.633   6.582  14.277 -0.2806 -0.4288 -0.4432
 3644TIP3    H132423   5.634   6.622  14.364 -2.7885 -1.0271 -0.0533
 3644TIP3    H232424   5.670   6.495  14.290 -0.0903 -0.2992 -0.1099
 3645TIP3   OH232425   2.954   1.083   2.914 -0.1590 -0.8897  0.4115
 3645TIP3    H132426   2.975   1.177   2.916 -0.3970 -0.8450  2.1245
 3645TIP3    H232427   2.972   1.057   2.823 -0.3223  0.8537 -0.1665
 3646TIP3   OH232428   1.228   6.539   2.496  0.0042  0.4967  0.0062
 3646TIP3    H132429   1.173   6.463   2.475 -1.7767  1.7360 -0.0822
 3646TIP3    H232430   1.224   6.593   2.417 -0.2352  1.5062  0.6920
 3647TIP3   OH232431   1.455   2.513  17.207 -0.6663 -0.4643 -0.1820
 3647TIP3    H132432   1.532   2.515  17.150 -0.2671  0.0120  0.3632
 3647TIP3    H232433   1.489   2.489  17.293 -1.0672  0.0946  0.1424
 3648TIP3   OH232434   0.367   1.747   4.766 -0.3831 -0.7479  0.1581
 3648TIP3    H132435   0.362   1.814   4.698 -0.1577 -1.1245 -0.2365
 3648TIP3    H232436   0.288   1.758   4.818 -1.5237 -1.6789 -1.3161
 3649TIP3   OH232437   2.359   2.615  14.529 -0.3391 -0.1385  0.0309
 3649TIP3    H132438   2.389   2.706  14.528 -1.4865  0.2936  1.9156
 3649TIP3    H232439   2.313   2.604  14.445  0.7406  0.6516 -0.6955
 3650TIP3   OH232440   5.495   0.210   4.736  0.3533 -0.5053 -0.0892
 3650TIP3    H132441   5.424   0.274   4.745 -0.0552 -0.9535 -0.0422
 3650TIP3    H232442   5.500   0.192   4.642 -0.0883 -1.0075 -0.0237
 3651TIP3   OH232443   0.353   3.999  13.179 -0.5866 -0.3391 -0.3593
 3651TIP3    H132444   0.264   3.994  13.143 -0.7216 -0.0054 -0.0843
 3651TIP3    H232445   0.364   3.917  13.227 -1.0519 -0.0397  0.2815
 3652TIP3   OH232446   5.299   3.539   2.028 -0.0500  0.3392 -0.1937
 3652TIP3    H132447   5.341   3.621   2.056 -1.2455 -0.5762  5.5926
 3652TIP3    H232448   5.211   3.565   2.002 -0.1420  1.0201  0.7534
 3653TIP3   OH232449   2.830   2.737   1.581 -0.2631 -0.3141 -1.0386
 3653TIP3    H132450   2.896   2.751   1.648  0.0281 -1.6900 -1.0121
 3653TIP3    H232451   2.828   2.819   1.532  0.0428  0.4517  0.1775
 3654TIP3   OH232452   5.449   0.239  12.812 -0.4436  0.0671  0.0787
 3654TIP3    H132453   5.466   0.287  12.732  0.9956  0.5463  0.6369
 3654TIP3    H232454   5.385   0.292  12.859 -0.9091  0.0404 -0.5214
 3655TIP3   OH232455   4.464   6.681   0.771  0.5581 -0.5379 -0.0697
 3655TIP3    H132456   4.534   6.628   0.810 -1.0859 -3.6094 -0.8853
 3655TIP3    H232457   4.494   6.701   0.683  0.9735 -0.6450  0.0464
 3656TIP3   OH232458   4.748   6.218  13.054 -0.1654  0.7459 -0.2950
 3656TIP3    H132459   4.712   6.168  13.126 -0.7198  0.5767 -0.6849
 3656TIP3    H232460   4.840   6.232  13.078 -0.0088 -0.4046 -0.1529
 3657TIP3   OH232461   3.540   3.039  11.985  0.7070 -0.3667  0.0897
 3657TIP3    H132462   3.492   2.957  11.980 -1.7959  1.0594 -0.8562
 3657TIP3    H232463   3.563   3.059  11.894  1.1082  0.0973  0.2884
 3658TIP3   OH232464   5.681   4.520  17.195 -0.1595  0.1205 -0.6116
 3658TIP3    H132465   5.641   4.515  17.108 -1.2866  1.6112 -0.2093
 3658TIP3    H232466   5.654   4.440  17.239  1.0044 -0.9999 -1.8337
 3659TIP3   OH232467   0.716   2.195  12.347  0.8063  0.1935  0.7117
 3659TIP3    H132468   0.738   2.265  12.286  0.4681 -1.1662 -1.0369
 3659TIP3    H232469   0.656   2.235  12.410 -0.7600  1.0821 -1.2450
 3660TIP3   OH232470   3.201   0.157  16.769  0.3237  0.1875 -0.0975
 3660TIP3    H132471   3.241   0.077  16.735 -0.6515 -0.9438  1.2902
 3660TIP3    H232472   3.269   0.223  16.760  1.2387 -0.8426 -1.0746
 3661TIP3   OH232473   1.646   2.298   5.210  0.0001  0.1595  0.1513
 3661TIP3    H132474   1.731   2.342   5.200 -0.1792  0.2793 -0.9889
 3661TIP3    H232475   1.582   2.362   5.178 -0.3136 -0.7011 -1.0063
 3662TIP3   OH232476   4.575   1.971  12.800  0.2670 -0.1373 -0.4381
 3662TIP3    H132477   4.550   1.986  12.709  0.6066 -0.9803 -0.6752
 3662TIP3    H232478   4.671   1.980  12.800  0.1714  1.0195  0.0650
 3663TIP3   OH232479   3.722   1.035   2.648 -0.2850  0.2770  0.0291
 3663TIP3    H132480   3.767   0.964   2.693 -1.9165 -0.1817  1.0502
 3663TIP3    H232481   3.642   0.995   2.613  0.1560  0.9898 -1.9294
 3664TIP3   OH232482   3.321   5.781   2.513 -0.5507  0.5905  0.2475
 3664TIP3    H132483   3.411   5.749   2.508 -0.4969  0.8459 -0.6539
 3664TIP3    H232484   3.299   5.777   2.606  0.5273  0.9189  0.5307
 3665TIP3   OH232485   3.522   4.106   4.805 -0.5102  0.3075 -0.0999
 3665TIP3    H132486   3.605   4.128   4.763  0.3171  0.9559  1.7851
 3665TIP3    H232487   3.459   4.168   4.767  0.1165  0.6011 -0.6673
 3666TIP3   OH232488   2.945   5.928   5.722 -0.8582  0.0605 -0.1031
 3666TIP3    H132489   2.881   5.860   5.702  0.5167 -1.0113 -1.0836
 3666TIP3    H232490   2.987   5.900   5.803 -0.6379  0.0134 -0.2337
 3667TIP3   OH232491   0.672   0.283   0.355 -0.0992  0.4235 -0.1932
 3667TIP3    H132492   0.734   0.281   0.281 -0.6366  0.5141 -0.6583
 3667TIP3    H232493   0.728   0.284   0.433  0.4951  0.9059 -0.6073
 3668TIP3   OH232494   1.086   3.650   4.049  0.2489 -0.0505  0.1410
 3668TIP3    H132495   1.121   3.578   3.998  0.5631 -0.2233  0.6049
 3668TIP3    H232496   1.135   3.727   4.019 -0.2224  0.0164 -0.4954
 3669TIP3   OH232497   5.037   4.256  15.837 -0.2284 -0.3621  0.0809
 3669TIP3    H132498   5.057   4.242  15.929  0.8900  0.5198  0.0043
 3669TIP3    H232499   5.071   4.178  15.793  1.7642  0.3804  0.1540
 3670TIP3   OH232500   4.378   5.278   2.752 -0.7250 -0.3955  0.3173
 3670TIP3    H132501   4.354   5.365   2.785  0.7385 -0.2092  0.9741
 3670TIP3    H232502   4.303   5.222   2.774 -1.9848  0.8095 -0.7171
 3671TIP3   OH232503   1.469   2.948   4.254  0.9015 -0.4116  0.4990
 3671TIP3    H132504   1.544   2.988   4.211  1.3555  0.8503  2.3183
 3671TIP3    H232505   1.440   2.878   4.195  1.1612  1.4810 -2.0088
 3672TIP3   OH232506   6.727   6.501   5.580 -0.3171 -0.0089  0.5483
 3672TIP3    H132507   6.817   6.504   5.549 -0.4767 -2.6606 -0.3736
 3672TIP3    H232508   6.732   6.529   5.671  1.9568 -2.9099  1.4627
 3673TIP3   OH232509   4.779   2.707  14.982  0.5368  0.5974 -0.0724
 3673TIP3    H132510   4.845   2.726  15.049  0.7025  0.4290 -0.1843
 3673TIP3    H232511   4.825   2.719  14.899 -0.0698  2.2526 -0.1939
 3674TIP3   OH232512   3.636   1.519   3.067  0.0188  0.5999 -0.0446
 3674TIP3    H132513   3.581   1.443   3.086  2.3596 -1.6159 -1.3401
 3674TIP3    H232514   3.673   1.544   3.152  0.3018 -0.6793  0.2329
 3675TIP3   OH232515   1.900   0.456   4.047 -0.0374  0.7497  0.4773
 3675TIP3    H132516   1.980   0.405   4.046 -0.5173 -0.0864 -1.6470
 3675TIP3    H232517   1.846   0.416   4.116  1.0034  0.7847  1.3330
 3676TIP3   OH232518   6.495   1.075  13.844  0.4159 -0.0720  0.1483
 3676TIP3    H132519   6.550   1.043  13.772 -1.3683 -0.4400 -1.0941
 3676TIP3    H232520   6.493   1.002  13.906  2.2304  0.3643  0.8066
 3677TIP3   OH232521   0.682   4.289   0.651 -0.4382  0.4747 -0.2469
 3677TIP3    H132522   0.706   4.335   0.731  1.6269  0.9934 -1.1090
 3677TIP3    H232523   0.586   4.286   0.653 -0.4450  0.3994  2.2532
 3678TIP3   OH232524   3.261   4.553   1.445  0.1952  0.6582 -0.6997
 3678TIP3    H132525   3.337   4.501   1.419 -0.9020 -1.5415  0.1558
 3678TIP3    H232526   3.247   4.532   1.537 -1.4473  0.9591 -0.8365
 3679TIP3   OH232527   0.927   4.819   3.449  0.1906 -0.0084 -0.5635
 3679TIP3    H132528   0.922   4.902   3.496 -3.0533 -0.2740 -0.2311
 3679TIP3    H232529   0.966   4.758   3.512 -0.9115  0.4276  0.5719
 3680TIP3   OH232530   2.704   6.259  15.434 -0.3501 -0.6762  0.3175
 3680TIP3    H132531   2.733   6.168  15.439 -0.1136 -0.6379 -0.3077
 3680TIP3    H232532   2.772   6.308  15.482  0.4751 -0.6267 -0.8536
 3681TIP3   OH232533   0.110   1.069   2.378 -0.2174  0.4546  0.5297
 3681TIP3    H132534   0.032   1.125   2.376  0.7371  1.8522  1.0606
 3681TIP3    H232535   0.181   1.125   2.347  0.9266 -0.1858  1.8661
 3682TIP3   OH232536   4.728   0.169  12.394  0.2157 -0.3124 -0.4270
 3682TIP3    H132537   4.640   0.208  12.396  0.7536  0.9224  0.0193
 3682TIP3    H232538   4.745   0.154  12.301 -0.6489 -1.0371 -0.4902
 3683TIP3   OH232539   2.700   2.695  15.483 -0.2483 -0.3460  0.1339
 3683TIP3    H132540   2.692   2.606  15.450 -0.1055  0.0442 -0.9891
 3683TIP3    H232541   2.615   2.735  15.466 -0.2422 -0.1971  0.4434
 3684TIP3   OH232542   2.293   1.442  15.588 -0.1159  0.1592  0.5727
 3684TIP3    H132543   2.225   1.506  15.565  0.7106  0.9411  0.2710
 3684TIP3    H232544   2.267   1.362  15.542 -0.5036  0.6301 -0.0413
 3685TIP3   OH232545   4.285   6.293   3.915 -0.8906  0.0225 -0.0087
 3685TIP3    H132546   4.272   6.348   3.993 -0.2174  1.0206 -0.5766
 3685TIP3    H232547   4.367   6.247   3.931 -0.4509  0.6644 -0.3560
 3686TIP3   OH232548   1.462   4.711  13.358  0.2327  0.0531  0.2428
 3686TIP3    H132549   1.476   4.705  13.263  2.3028  1.4401  0.3910
 3686TIP3    H232550   1.449   4.621  13.386  1.2390 -0.5713 -1.1651
 3687TIP3   OH232551   5.854   1.099  11.284 -0.5581  0.2243  0.1354
 3687TIP3    H132552   5.777   1.141  11.323 -1.1509 -0.7192  0.0018
 3687TIP3    H232553   5.879   1.032  11.347 -0.7330 -0.4396 -0.4901
 3688TIP3   OH232554   4.930   2.241   0.980  0.2078  0.7071  0.5274
 3688TIP3    H132555   4.971   2.272   1.061  1.5098  1.4761 -0.3895
 3688TIP3    H232556   4.981   2.281   0.910 -1.8180  1.3122 -0.7114
 3689TIP3   OH232557   2.099   4.444   0.368 -0.9236 -0.2660 -0.3817
 3689TIP3    H132558   2.169   4.428   0.432  0.4066  2.6926 -0.9201
 3689TIP3    H232559   2.121   4.388   0.294  0.6599  0.2605 -0.3544
 3690TIP3   OH232560   0.736   5.751   0.399  0.0747 -0.7979 -0.3514
 3690TIP3    H132561   0.767   5.665   0.427 -0.3715 -1.1958 -1.0593
 3690TIP3    H232562   0.647   5.736   0.368  0.3003 -0.2534 -1.3196
 3691TIP3   OH232563   5.211   0.568   2.833  0.4290 -0.6480  0.3842
 3691TIP3    H132564   5.255   0.645   2.869  0.9295 -0.2081 -1.0901
 3691TIP3    H232565   5.118   0.586   2.843  0.4958  0.7946 -1.1534
 3692TIP3   OH232566   4.593   1.748   3.036  0.2407 -0.0163 -0.6504
 3692TIP3    H132567   4.626   1.808   2.969 -0.7803  1.0703 -0.2176
 3692TIP3    H232568   4.607   1.794   3.119 -3.4268  1.1698 -0.4872
 3693TIP3   OH232569   4.013   4.930  15.318 -0.0483  0.4196 -0.4792
 3693TIP3    H132570   3.993   4.880  15.398  1.7133  0.3824 -0.0267
 3693TIP3    H232571   4.026   4.863  15.251 -0.9406  0.4290 -0.6774
 3694TIP3   OH232572   5.325   3.102  15.271  0.2049 -0.2464  0.1949
 3694TIP3    H132573   5.416   3.131  15.278 -0.2019  1.1940 -0.0971
 3694TIP3    H232574   5.282   3.171  15.221 -1.4118 -0.0411  1.7621
 3695TIP3   OH232575   2.799   6.113   3.140 -0.5642  0.0162 -0.4205
 3695TIP3    H132576   2.730   6.054   3.109 -0.4339 -0.5701  0.3606
 3695TIP3    H232577   2.871   6.055   3.162 -0.4869  0.4540  0.5132
 3696TIP3   OH232578   2.009   5.616   5.188  0.4805 -0.2398 -0.0520
 3696TIP3    H132579   2.014   5.532   5.233  1.2167 -0.2035 -0.0539
 3696TIP3    H232580   2.083   5.666   5.222  0.7484 -0.0236 -0.9125
 3697TIP3   OH232581   1.915   0.081  13.766 -0.1592  0.5391  0.3959
 3697TIP3    H132582   1.847   0.143  13.793 -0.7586  0.4297 -0.7911
 3697TIP3    H232583   1.956   0.053  13.848 -2.7742 -0.7831  1.3892
 3698TIP3   OH232584   4.267   0.577   0.335 -0.0402  0.1185 -0.0757
 3698TIP3    H132585   4.200   0.531   0.285  0.8695 -0.3770 -0.8638
 3698TIP3    H232586   4.298   0.512   0.399  0.0157  0.2004 -0.0191
 3699TIP3   OH232587   2.452   2.821  14.191 -0.2030  0.1595  0.5579
 3699TIP3    H132588   2.483   2.745  14.141  0.5883  0.9543 -0.1891
 3699TIP3    H232589   2.364   2.796  14.219 -0.5641 -0.4250 -1.0018
 3700TIP3   OH232590   1.670   2.768   1.247 -0.0022 -0.5091  0.3635
 3700TIP3    H132591   1.689   2.717   1.325 -1.1830  0.1868  1.1463
 3700TIP3    H232592   1.745   2.827   1.237  0.5961 -1.2513  0.3974
 3701TIP3   OH232593   1.953   2.897   5.932 -0.2702  0.1239 -0.0063
 3701TIP3    H132594   1.860   2.896   5.907 -0.5890 -2.2472  0.9447
 3701TIP3    H232595   2.000   2.897   5.849 -1.2060 -1.5962 -0.5886
 3702TIP3   OH232596   3.596   0.336   5.135  0.3042 -0.3452  0.3408
 3702TIP3    H132597   3.673   0.364   5.185 -1.1865  0.7969  2.1390
 3702TIP3    H232598   3.553   0.418   5.109  0.5118 -0.9228 -2.0813
 3703TIP3   OH232599   2.212   0.465  16.550  0.9695  0.2893 -0.2179
 3703TIP3    H132600   2.221   0.388  16.606 -1.1347 -0.3913 -0.7276
 3703TIP3    H232601   2.262   0.443  16.471 -0.3692 -1.0019 -0.7563
 3704TIP3   OH232602   3.044   6.542  15.190  0.1050 -0.3071  0.3687
 3704TIP3    H132603   3.019   6.518  15.280  1.4659 -0.0311  0.8311
 3704TIP3    H232604   2.988   6.617  15.169  0.8387  0.6033  1.5675
 3705TIP3   OH232605   5.401   4.770  16.811  0.1362 -0.3139  0.5223
 3705TIP3    H132606   5.396   4.825  16.733 -1.2030 -0.8135  0.2394
 3705TIP3    H232607   5.343   4.812  16.874  0.2842 -0.5737  0.8387
 3706TIP3   OH232608   3.908   6.078  12.197  0.6746 -0.4455 -0.6043
 3706TIP3    H132609   3.970   6.037  12.136  0.7589 -1.1800 -0.0326
 3706TIP3    H232610   3.877   6.155  12.150  0.7619 -0.9784 -1.5773
 3707TIP3   OH232611   4.397   0.983   4.999 -0.0853  0.0352  0.0724
 3707TIP3    H132612   4.334   0.916   5.025  0.7324 -0.4762  0.7954
 3707TIP3    H232613   4.359   1.022   4.920  0.7248 -3.1992 -2.1398
 3708TIP3   OH232614   1.123   2.057   1.393  0.3460  0.3927 -0.6515
 3708TIP3    H132615   1.045   2.101   1.426  0.4531 -1.1105  1.8833
 3708TIP3    H232616   1.090   1.977   1.353  0.5689 -0.3022  0.5295
 3709TIP3   OH232617   3.151   0.683  11.320  0.0960 -0.1345  0.1158
 3709TIP3    H132618   3.188   0.698  11.407 -1.3805  0.1632  0.7372
 3709TIP3    H232619   3.056   0.683  11.335 -0.1504 -1.5579 -1.2734
 3710TIP3   OH232620   1.655   4.199  12.958  0.2544 -0.1578  0.2556
 3710TIP3    H132621   1.614   4.115  12.938 -1.8706  0.9517 -0.3310
 3710TIP3    H232622   1.711   4.181  13.033 -1.4678 -1.7602  1.2334
 3711TIP3   OH232623   6.622   1.343   4.677  0.8244  0.4045  0.6835
 3711TIP3    H132624   6.558   1.408   4.707 -0.4996 -0.7437  0.4507
 3711TIP3    H232625   6.629   1.358   4.583  2.0537  1.4874  0.9185
 3712TIP3   OH232626   3.525   0.743  14.315 -0.1544 -0.1179  0.5727
 3712TIP3    H132627   3.599   0.728  14.256 -1.5322 -0.9854 -1.0091
 3712TIP3    H232628   3.566   0.762  14.400  1.8766  0.6607 -0.5128
 3713TIP3   OH232629   6.605   2.279   3.657 -0.1943  0.2058  0.1893
 3713TIP3    H132630   6.627   2.280   3.750 -0.5239  0.8405  0.2658
 3713TIP3    H232631   6.523   2.329   3.651 -0.0866  0.3147 -0.4600
 3714TIP3   OH232632   2.725   5.607  13.696  0.1319 -0.3396 -0.2979
 3714TIP3    H132633   2.643   5.606  13.646 -0.0387  0.2806 -0.0373
 3714TIP3    H232634   2.777   5.676  13.654  0.6046 -0.8595 -0.5854
 3715TIP3   OH232635   1.497   2.761  11.693 -0.2468  0.7227  0.7561
 3715TIP3    H132636   1.513   2.849  11.659  0.7549 -0.5412 -2.4755
 3715TIP3    H232637   1.571   2.709  11.660 -2.0141 -1.8157  0.4869
 3716TIP3   OH232638   3.163   4.684   2.287  0.7969 -0.0248  0.1923
 3716TIP3    H132639   3.145   4.598   2.249 -1.6820  1.1935 -1.6737
 3716TIP3    H232640   3.226   4.666   2.357  0.9731 -3.2226 -0.6107
 3717TIP3   OH232641   2.852   3.225   3.029  0.4388 -0.5070  0.0029
 3717TIP3    H132642   2.821   3.136   3.049  1.5167 -0.8223  0.3410
 3717TIP3    H232643   2.944   3.213   3.006  0.4433  0.4610 -0.5135
 3718TIP3   OH232644   1.489   3.221   3.881 -0.3368  0.1829 -0.0754
 3718TIP3    H132645   1.423   3.170   3.928 -1.2420  1.6403  0.3004
 3718TIP3    H232646   1.496   3.179   3.795  0.5275 -1.8508  0.9112
 3719TIP3   OH232647   2.948   2.490  12.056  0.4572 -0.1029 -0.6565
 3719TIP3    H132648   2.926   2.528  12.141  0.3240  2.1646 -1.6239
 3719TIP3    H232649   3.040   2.467  12.063  0.8507  1.4197 -0.3116
 3720TIP3   OH232650   1.841   1.361  14.304 -0.0710  0.0921 -0.6217
 3720TIP3    H132651   1.850   1.456  14.311 -0.0341 -0.0000  0.9088
 3720TIP3    H232652   1.756   1.348  14.261 -2.0726  0.8415  2.7700
 3721TIP3   OH232653   5.880   0.137   5.055 -0.0642 -0.1681  0.2762
 3721TIP3    H132654   5.801   0.141   5.109 -1.8269 -1.0314 -2.0751
 3721TIP3    H232655   5.880   0.049   5.019  0.4165  0.6679 -1.9340
 3722TIP3   OH232656   6.429   2.279   4.892  0.3368  0.5862  0.1460
 3722TIP3    H132657   6.339   2.309   4.907  0.0316 -0.4204  0.4126
 3722TIP3    H232658   6.420   2.205   4.832  0.8635 -0.2641  1.0762
 3723TIP3   OH232659   3.595   5.069   2.175 -0.1506 -0.3389  0.2141
 3723TIP3    H132660   3.545   4.990   2.155  0.9396 -0.8993 -0.4620
 3723TIP3    H232661   3.641   5.089   2.093 -1.0045  1.4703  0.1324
 3724TIP3   OH232662   1.625   3.707   2.814 -0.2549 -0.1825 -0.0289
 3724TIP3    H132663   1.603   3.678   2.903 -2.2979  0.0506 -0.4175
 3724TIP3    H232664   1.631   3.626   2.764  1.2703 -0.3451  0.3382
 3725TIP3   OH232665   1.701   4.425   1.804 -0.1139  0.2630 -0.0093
 3725TIP3    H132666   1.781   4.402   1.757 -0.1312 -0.2499  0.2068
 3725TIP3    H232667   1.708   4.519   1.819  0.2273  0.3021 -0.4040
 3726TIP3   OH232668   1.722   1.397  17.059 -0.4509  0.1155  0.3360
 3726TIP3    H132669   1.759   1.405  17.147  1.1129 -0.5371 -0.2243
 3726TIP3    H232670   1.646   1.339  17.070 -0.2319 -0.0115  1.2498
 3727TIP3   OH232671   2.299   0.817   3.957 -0.7110  0.1175  0.5113
 3727TIP3    H132672   2.336   0.866   4.030  1.1095 -0.3573 -0.0558
 3727TIP3    H232673   2.282   0.884   3.890 -2.8955  0.6379  1.4833
 3728TIP3   OH232674   4.600   0.695   1.800  0.4371  0.7467  0.2820
 3728TIP3    H132675   4.608   0.790   1.795 -2.9185  1.1399 -3.9202
 3728TIP3    H232676   4.638   0.664   1.718 -0.4816 -1.2360  0.5519
 3729TIP3   OH232677   6.286   6.085  12.983 -0.3974  0.0166 -0.3562
 3729TIP3    H132678   6.309   6.177  12.970 -0.9396  0.0299 -1.3082
 3729TIP3    H232679   6.364   6.036  12.957 -0.3113  0.1836 -0.4104
 3730TIP3   OH232680   0.962   3.435   4.156  0.2584  0.1654 -0.4119
 3730TIP3    H132681   0.919   3.368   4.104 -0.3984 -0.1019  0.4543
 3730TIP3    H232682   0.980   3.506   4.094 -1.2269  0.1848 -0.8476
 3731TIP3   OH232683   5.930   2.247   2.645 -0.2163  0.0347  0.3380
 3731TIP3    H132684   6.018   2.211   2.633  0.5614  1.0860  2.3929
 3731TIP3    H232685   5.945   2.340   2.662 -2.0987  1.4994 -4.3807
 3732TIP3   OH232686   0.370   0.037  11.623  1.0129 -0.0811  0.0798
 3732TIP3    H132687   0.436  -0.021  11.584  1.5006  0.4955  0.0255
 3732TIP3    H232688   0.399   0.048  11.713  2.1330  1.7340 -0.4342
 3733TIP3   OH232689   1.967   5.375   5.324  0.6508 -0.2711 -0.7487
 3733TIP3    H132690   2.020   5.300   5.297 -0.2526 -1.1724 -0.1054
 3733TIP3    H232691   1.896   5.378   5.260 -0.1130 -0.8770  0.0457
 3734TIP3   OH232692   2.970   3.274   6.134 -0.1290  0.1086 -0.1117
 3734TIP3    H132693   2.956   3.289   6.040  0.0110  0.2637 -0.1092
 3734TIP3    H232694   2.981   3.362   6.170  1.0520 -0.0105 -0.1473
 3735TIP3   OH232695   4.043   5.951   1.038  0.2255  0.4018 -0.1557
 3735TIP3    H132696   4.010   5.925   0.951 -4.9451  0.3761  1.4935
 3735TIP3    H232697   4.018   6.043   1.046  0.6003  0.3866  1.3157
 3736TIP3   OH232698   3.269   3.936   4.095 -0.1936 -0.3044  0.4409
 3736TIP3    H132699   3.323   3.909   4.169 -0.7459  2.5669  2.0601
 3736TIP3    H232700   3.295   3.878   4.023  0.5694 -3.0168  2.7530
 3737TIP3   OH232701   4.995   5.757   4.645 -0.3364 -0.2428 -0.1816
 3737TIP3    H132702   5.044   5.770   4.726  0.6627  0.6474 -0.9004
 3737TIP3    H232703   4.970   5.664   4.647  2.3190 -1.0525 -0.2490
 3738TIP3   OH232704   3.772   5.049  12.578 -0.4105  0.0845 -0.2729
 3738TIP3    H132705   3.779   5.002  12.495 -2.0953 -1.5333  0.4356
 3738TIP3    H232706   3.786   4.982  12.645  3.7988  1.7935  0.9155
 3739TIP3   OH232707   3.845   4.843   2.096  0.4272  0.1097  0.0110
 3739TIP3    H132708   3.870   4.874   2.182  3.7665 -1.6712 -0.1547
 3739TIP3    H232709   3.888   4.903   2.035 -0.0985  0.0608 -0.4241
 3740TIP3   OH232710   3.567   1.265  12.176 -0.2735 -0.2488  0.0572
 3740TIP3    H132711   3.631   1.204  12.138  1.6407  0.2841  2.1999
 3740TIP3    H232712   3.492   1.209  12.199 -0.4049 -0.9902 -2.0055
 3741TIP3   OH232713   6.187   1.219   1.948  0.4898 -0.4578  0.0445
 3741TIP3    H132714   6.123   1.273   1.996  2.6892  1.2847  1.2506
 3741TIP3    H232715   6.235   1.282   1.894  2.2848 -1.3786  0.4799
 3742TIP3   OH232716   1.320   0.420  12.308  0.6125  0.1041  0.2659
 3742TIP3    H132717   1.273   0.468  12.377 -0.0613 -2.4947  1.7364
 3742TIP3    H232718   1.410   0.453  12.314  0.3438  0.6667  1.7010
 3743TIP3   OH232719   2.218   4.721  16.160  0.2396 -0.1722 -0.1212
 3743TIP3    H132720   2.202   4.814  16.142  1.4964  0.5905  2.2548
 3743TIP3    H232721   2.131   4.682  16.164 -0.3069  0.8147 -1.3593
 3744TIP3   OH232722   6.038   5.978   4.472 -0.0770 -0.2398  0.3368
 3744TIP3    H132723   6.043   6.068   4.440 -2.1142 -0.7827 -1.7070
 3744TIP3    H232724   6.103   5.930   4.421  1.7141  0.1505  2.1005
 3745TIP3   OH232725   2.306   6.273   0.967  0.1297  0.2035 -0.0453
 3745TIP3    H132726   2.365   6.221   1.022  2.4223  0.5102 -2.0342
 3745TIP3    H232727   2.267   6.210   0.906 -0.8462  0.1510  0.6184
 3746TIP3   OH232728   3.067   0.791  15.253 -0.2190 -0.0159  0.2529
 3746TIP3    H132729   3.098   0.826  15.169  1.0883  1.0312  1.1158
 3746TIP3    H232730   3.051   0.698  15.236  3.5036 -0.7075 -0.3222
 3747TIP3   OH232731   4.796   4.107  14.862  0.2022 -0.8994 -0.0374
 3747TIP3    H132732   4.713   4.097  14.909  0.1088 -1.3284 -0.2954
 3747TIP3    H232733   4.830   4.192  14.892 -0.1894 -0.8534  0.2843
 3748TIP3   OH232734   0.122   5.393   3.793  0.0978  0.1152  0.0495
 3748TIP3    H132735   0.080   5.346   3.866 -0.5366 -0.4877 -0.6809
 3748TIP3    H232736   0.212   5.361   3.793  0.0549 -0.0103  0.4657
 3749TIP3   OH232737   3.298   3.858   4.656 -0.1358  0.1472  0.1635
 3749TIP3    H132738   3.352   3.825   4.728 -1.0289 -0.8507  0.4000
 3749TIP3    H232739   3.334   3.945   4.637 -0.0856  0.5751  2.0192
 3750TIP3   OH232740   4.228   2.388   6.180  0.2371 -0.5984  0.0968
 3750TIP3    H132741   4.192   2.317   6.126  0.1507 -0.9545  0.6128
 3750TIP3    H232742   4.154   2.446   6.195  0.2031 -0.6259  0.0386
 3751TIP3   OH232743   4.813   0.321  14.270  0.3521  0.2746 -0.2802
 3751TIP3    H132744   4.894   0.325  14.322 -0.3223 -0.5823  0.8642
 3751TIP3    H232745   4.834   0.259  14.200 -0.0520 -1.9220  1.4372
 3752TIP3   OH232746   6.033   2.514   2.108  0.7780 -0.1471 -0.6240
 3752TIP3    H132747   5.948   2.489   2.073  1.0570 -0.1838 -1.2933
 3752TIP3    H232748   6.019   2.600   2.147  0.2129 -0.5728  0.1514
 3753TIP3   OH232749   6.185   1.227  14.197  0.1051 -0.3664 -0.6156
 3753TIP3    H132750   6.094   1.204  14.214 -0.1123  1.4491  1.0570
 3753TIP3    H232751   6.182   1.291  14.127 -0.0220  0.3933  0.0682
 3754TIP3   OH232752   1.020   0.376  13.817 -0.0403  0.0416  0.1630
 3754TIP3    H132753   0.980   0.298  13.778  0.2918  0.3365 -0.8241
 3754TIP3    H232754   1.091   0.342  13.871 -0.2110 -0.3680  0.1330
 3755TIP3   OH232755   1.613   3.688  10.418 -0.4743 -0.1871  0.1034
 3755TIP3    H132756   1.566   3.608  10.441 -2.7614  1.0005 -0.0763
 3755TIP3    H232757   1.567   3.720  10.340  0.9889  0.8315 -0.3801
 3756TIP3   OH232758   3.048   4.829   5.787  0.0337  0.0265  0.5048
 3756TIP3    H132759   3.108   4.902   5.775  0.1301 -0.0008  0.8013
 3756TIP3    H232760   3.091   4.773   5.852  0.3287 -0.6973 -0.2934
 3757TIP3   OH232761   5.232   0.120   2.697 -0.4057 -0.8454  0.2572
 3757TIP3    H132762   5.237   0.207   2.736 -1.6517 -1.6413  2.3164
 3757TIP3    H232763   5.179   0.133   2.618 -1.0437  0.1786  0.8243
 3758TIP3   OH232764   5.235   5.259  11.592  0.4159 -0.2507 -0.4356
 3758TIP3    H132765   5.302   5.213  11.541  1.6218  0.4218  0.4887
 3758TIP3    H232766   5.239   5.349  11.562 -1.5006 -0.5519 -1.7816
 3759TIP3   OH232767   1.723   0.791   4.619 -0.1710  0.4312 -0.6911
 3759TIP3    H132768   1.806   0.753   4.591  0.4298  2.1815 -1.4138
 3759TIP3    H232769   1.740   0.821   4.709 -1.0875 -2.1794  0.4485
 3760TIP3   OH232770   4.670   4.437  15.604 -0.4597 -0.7488 -0.0186
 3760TIP3    H132771   4.732   4.475  15.667 -0.3507 -0.5359 -0.2510
 3760TIP3    H232772   4.681   4.490  15.525 -0.0005 -1.5316 -0.4892
 3761TIP3   OH232773   2.174   0.319  14.336  0.1213  0.0691  0.2497
 3761TIP3    H132774   2.103   0.256  14.346 -0.7447  0.6801 -1.5933
 3761TIP3    H232775   2.166   0.377  14.412 -0.1530 -0.9676  1.0366
 3762TIP3   OH232776   3.479   5.498  15.470 -0.6829 -0.7761  0.5999
 3762TIP3    H132777   3.504   5.540  15.553  0.1470  0.3099 -0.1564
 3762TIP3    H232778   3.497   5.405  15.483  0.3220 -0.4945  1.3316
 3763TIP3   OH232779   2.353   3.475   5.584  0.0097  0.3222 -0.0064
 3763TIP3    H132780   2.336   3.531   5.660  0.7799  0.9426 -0.2717
 3763TIP3    H232781   2.448   3.463   5.585  0.0449  0.4785 -0.9697
 3764TIP3   OH232782   5.344   1.083  16.027  0.2106  0.2023  0.0773
 3764TIP3    H132783   5.259   1.040  16.031  0.1686  0.3030  0.2510
 3764TIP3    H232784   5.353   1.110  15.935 -0.8265  1.9515  0.4494
 3765TIP3   OH232785   5.444   6.485  11.004 -0.2104 -0.0320  0.1798
 3765TIP3    H132786   5.513   6.530  10.955 -1.7139  0.3755 -1.6935
 3765TIP3    H232787   5.373   6.476  10.941 -0.5624 -3.7539  0.8799
 3766TIP3   OH232788   5.562   1.822  10.736  1.0032 -0.7135  0.3266
 3766TIP3    H132789   5.477   1.852  10.707  1.3206 -0.3221 -0.2175
 3766TIP3    H232790   5.547   1.733  10.768  0.2986 -0.4506  0.7441
 3767TIP3   OH232791   0.235   6.768   3.997 -0.2092  0.2204 -0.0625
 3767TIP3    H132792   0.249   6.791   4.089 -0.5688 -0.3216  0.1321
 3767TIP3    H232793   0.142   6.746   3.991 -0.1533  0.0911 -0.5171
 3768TIP3   OH232794   3.128   1.868   6.537 -0.0743 -0.0704  0.5426
 3768TIP3    H132795   3.142   1.793   6.595  0.3280  0.1436  0.7257
 3768TIP3    H232796   3.171   1.941   6.581  1.2234 -0.1347 -0.5373
 3769TIP3   OH232797   4.147   5.049   2.530 -0.6548  0.2262  0.7130
 3769TIP3    H132798   4.079   5.114   2.548 -1.3090 -0.0322 -0.7230
 3769TIP3    H232799   4.190   5.036   2.615 -0.4780  2.5424  1.0464
 3770TIP3   OH232800   6.177   2.560  11.655  0.0207 -0.1715 -0.2632
 3770TIP3    H132801   6.137   2.489  11.604 -4.0881  0.3513  1.8839
 3770TIP3    H232802   6.210   2.517  11.734  1.5438 -0.2034 -0.8729
 3771TIP3   OH232803   4.197   6.750  15.833 -0.3410 -0.3010  0.2275
 3771TIP3    H132804   4.170   6.661  15.813 -0.9834 -0.5718  2.0509
 3771TIP3    H232805   4.243   6.780  15.755 -2.0171 -1.4294 -1.2820
 3772TIP3   OH232806   1.638   0.201   3.166 -0.3394 -0.1260 -0.5766
 3772TIP3    H132807   1.544   0.187   3.174 -0.4974 -0.0642 -2.0357
 3772TIP3    H232808   1.678   0.137   3.225 -1.2682 -0.9162 -0.7931
 3773TIP3   OH232809   0.324   1.618  15.402  0.2339  0.2805  0.1858
 3773TIP3    H132810   0.379   1.679  15.354  1.7301 -1.7986 -0.9341
 3773TIP3    H232811   0.236   1.654  15.396  1.2943  3.3215  1.3509
 3774TIP3   OH232812   0.455   5.712   1.052 -0.5115 -0.1510 -0.5137
 3774TIP3    H132813   0.384   5.747   0.999 -0.8580  0.5884  0.3980
 3774TIP3    H232814   0.412   5.679   1.131  0.1652  0.5510  0.1680
 3775TIP3   OH232815   5.672   4.603   4.011 -0.1958  0.3759  0.0300
 3775TIP3    H132816   5.623   4.560   3.941  1.2835 -0.8339 -0.3409
 3775TIP3    H232817   5.755   4.627   3.971  0.7300 -0.4415  1.3561
 3776TIP3   OH232818   4.568   1.544  13.652  0.8226 -0.1943  0.1797
 3776TIP3    H132819   4.594   1.547  13.744  0.7018  0.4354  0.1969
 3776TIP3    H232820   4.556   1.451  13.634 -0.3109 -0.2648  1.1354
 3777TIP3   OH232821   1.661   6.669   1.583 -0.0464 -0.2237  0.1507
 3777TIP3    H132822   1.719   6.639   1.513  1.5554 -0.7104  1.6110
 3777TIP3    H232823   1.625   6.751   1.551  0.9500 -0.2255 -1.0717
 3778TIP3   OH232824   2.332   4.219   5.134  0.3354  0.5440  0.0147
 3778TIP3    H132825   2.377   4.235   5.217  1.6934 -2.4573 -0.0251
 3778TIP3    H232826   2.345   4.126   5.117 -3.5907  0.0888 -1.4659
 3779TIP3   OH232827   2.037   0.104  11.816 -0.9189 -0.4984  0.2050
 3779TIP3    H132828   1.980   0.165  11.863 -0.8617 -0.7240  0.5686
 3779TIP3    H232829   2.049   0.145  11.730  2.0516  1.9218  1.5441
 3780TIP3   OH232830   5.440   1.604   5.897 -0.0064 -0.2521  0.1319
 3780TIP3    H132831   5.411   1.661   5.969 -0.7013 -1.0104  0.4727
 3780TIP3    H232832   5.463   1.664   5.827 -0.1227  0.4752  0.7000
 3781TIP3   OH232833   1.832   4.125   3.507  0.3809  0.2114 -0.3168
 3781TIP3    H132834   1.898   4.095   3.569  0.1886  1.2591  0.4289
 3781TIP3    H232835   1.790   4.045   3.475 -0.5927 -0.3272  2.0978
 3782TIP3   OH232836   5.172   1.952   2.768 -0.2130 -0.6125  0.1462
 3782TIP3    H132837   5.157   1.896   2.692 -0.2419 -0.7217  0.2320
 3782TIP3    H232838   5.230   1.901   2.824 -0.7604 -0.8253  0.5237
 3783TIP3   OH232839   4.511   3.292  10.924 -0.4115  0.2036 -0.0688
 3783TIP3    H132840   4.469   3.300  11.010  0.0048 -0.6394  0.2210
 3783TIP3    H232841   4.573   3.364  10.921 -0.5104  0.3071  0.2925
 3784TIP3   OH232842   0.847   5.631  12.420 -0.0724  0.2988 -0.0536
 3784TIP3    H132843   0.919   5.586  12.378 -0.6656 -2.1731  1.3888
 3784TIP3    H232844   0.845   5.597  12.509 -2.5927  0.7561  0.1619
 3785TIP3   OH232845   0.207   2.947   2.709 -0.2276  0.4075 -0.2455
 3785TIP3    H132846   0.123   2.909   2.735  0.8995  0.4232  4.3200
 3785TIP3    H232847   0.270   2.876   2.721  0.9008  1.5210  0.7834
 3786TIP3   OH232848   5.715   3.145   2.746 -0.2607  0.2055  0.1600
 3786TIP3    H132849   5.718   3.080   2.676 -1.8466 -0.5087  0.6947
 3786TIP3    H232850   5.735   3.095   2.825 -0.3386  0.6114  0.4364
 3787TIP3   OH232851   0.188   0.449  15.283 -1.0188  0.1184  0.3983
 3787TIP3    H132852   0.096   0.465  15.304 -0.5007  0.7548  2.4146
 3787TIP3    H232853   0.235   0.481  15.360  0.8102 -1.2956 -0.0914
 3788TIP3   OH232854   3.914   3.412   1.730 -0.1205 -0.2781 -0.2262
 3788TIP3    H132855   3.823   3.385   1.741  0.1466 -0.8414  0.7338
 3788TIP3    H232856   3.928   3.478   1.799  0.3679 -0.6596  0.0493
 3789TIP3   OH232857   1.875   1.054   3.461  0.1659  0.2642  0.0831
 3789TIP3    H132858   1.879   0.958   3.468 -0.7397  0.1098 -1.0745
 3789TIP3    H232859   1.958   1.078   3.420 -0.0494 -0.1559 -0.6233
 3790TIP3   OH232860   1.968   1.270  11.655 -0.4052  0.5794 -0.1127
 3790TIP3    H132861   1.988   1.341  11.715  1.7781  0.1094 -0.1742
 3790TIP3    H232862   1.874   1.257  11.662 -0.5223  2.0132  1.5206
 3791TIP3   OH232863   3.031   5.441  14.462  0.1385  0.4978 -0.4559
 3791TIP3    H132864   3.033   5.512  14.397 -1.3471  0.4294 -0.5984
 3791TIP3    H232865   3.072   5.479  14.539  0.2386  1.1979 -0.8432
 3792TIP3   OH232866   0.407   0.334   4.556  0.3651  0.0458 -0.0987
 3792TIP3    H132867   0.432   0.326   4.464 -1.0229 -0.8062 -0.4311
 3792TIP3    H232868   0.477   0.386   4.595  1.0690  0.2840 -1.5930
 3793TIP3   OH232869   5.010   1.367  11.618 -0.1860 -0.0894 -0.1298
 3793TIP3    H132870   5.039   1.454  11.642  1.3913 -0.9810  1.3934
 3793TIP3    H232871   4.943   1.345  11.683 -1.1562  0.2375 -0.9764
 3794TIP3   OH232872   5.581   2.997   2.174 -0.0362 -0.0392  0.8992
 3794TIP3    H132873   5.491   2.968   2.165  0.2921 -0.2964 -3.0201
 3794TIP3    H232874   5.574   3.089   2.200 -1.7071  1.0285 -2.7051
 3795TIP3   OH232875   3.685   2.055  16.546 -0.1896  0.8769 -0.1362
 3795TIP3    H132876   3.664   2.088  16.459  0.4816 -0.5120 -0.8574
 3795TIP3    H232877   3.775   2.023  16.539 -0.4301 -0.0712  0.8063
 3796TIP3   OH232878   1.132   1.436  12.764  0.4060 -0.1601 -0.2741
 3796TIP3    H132879   1.060   1.495  12.746  1.9165  1.9875  0.2603
 3796TIP3    H232880   1.207   1.473  12.717  1.9324 -0.3307  1.8279
 3797TIP3   OH232881   0.473   5.868   0.210  0.1286  0.3499  0.7470
 3797TIP3    H132882   0.499   5.850   0.120 -0.2499 -0.2321  0.7454
 3797TIP3    H232883   0.527   5.942   0.237 -1.6959  2.3773 -0.8586
 3798TIP3   OH232884   6.118   4.608   2.004  0.5884 -0.8887  0.5034
 3798TIP3    H132885   6.107   4.603   2.099 -0.8486 -1.6319  0.3301
 3798TIP3    H232886   6.212   4.596   1.990  0.6816 -1.9316  1.7753
 3799TIP3   OH232887   3.928   0.270  15.011 -0.3627 -0.0167  0.1249
 3799TIP3    H132888   3.948   0.184  15.046  0.3187  0.0787 -0.0184
 3799TIP3    H232889   3.854   0.255  14.951 -1.9391 -0.0847  1.9905
 3800TIP3   OH232890   6.707   4.896   6.379  0.1265  0.0826 -0.0907
 3800TIP3    H132891   6.718   4.991   6.367  0.8081  0.0059 -0.1414
 3800TIP3    H232892   6.698   4.886   6.474 -0.3780  0.2364 -0.1205
 3801TIP3   OH232893   1.953   3.352  14.485  0.1809  0.2403 -0.3888
 3801TIP3    H132894   1.889   3.296  14.530 -0.2126  1.4764  0.6460
 3801TIP3    H232895   1.901   3.427  14.454  0.8534  0.4660 -0.9922
 3802TIP3   OH232896   6.313   3.494   1.373  0.0205  0.1439  0.3264
 3802TIP3    H132897   6.371   3.435   1.421  1.5199  1.3540  0.0531
 3802TIP3    H232898   6.252   3.435   1.327 -1.3571 -1.0630  3.4389
 3803TIP3   OH232899   5.614   0.268   1.264 -0.4545 -0.0193  0.1484
 3803TIP3    H132900   5.681   0.315   1.314  0.2292 -0.2985 -0.5003
 3803TIP3    H232901   5.564   0.338   1.222 -1.8086  0.2975  2.1230
 3804TIP3   OH232902   2.636   0.828   4.294  0.0435 -0.2918  0.2127
 3804TIP3    H132903   2.685   0.749   4.270 -0.1455 -0.0440 -1.0776
 3804TIP3    H232904   2.613   0.868   4.210 -0.5921  0.6925  0.8359
 3805TIP3   OH232905   5.395   2.678  12.515  0.6098 -0.0253  0.1224
 3805TIP3    H132906   5.394   2.588  12.482  2.6073 -0.2396  0.5596
 3805TIP3    H232907   5.362   2.672  12.604  0.3113 -0.2477 -0.0022
 3806TIP3   OH232908   2.156   6.609   0.629 -0.3815 -0.5394  0.0393
 3806TIP3    H132909   2.167   6.615   0.535 -0.0359 -0.5032  0.0802
 3806TIP3    H232910   2.245   6.607   0.664 -0.5023  0.4899  0.4340
 3807TIP3   OH232911   6.627   5.657   3.026  0.7266  0.0794  0.4986
 3807TIP3    H132912   6.630   5.751   3.013 -2.0862  0.1587 -0.2887
 3807TIP3    H232913   6.634   5.620   2.938 -1.5748 -0.2115  0.3769
 3808TIP3   OH232914   2.787   2.661   2.644 -0.9312 -0.3554 -0.6658
 3808TIP3    H132915   2.871   2.618   2.662 -1.0530 -1.5461 -2.5986
 3808TIP3    H232916   2.721   2.598   2.672 -1.1741  0.1097 -0.1778
 3809TIP3   OH232917   6.329   1.705   3.277 -0.4409 -0.3666 -0.4079
 3809TIP3    H132918   6.342   1.655   3.196  1.0615  1.0741 -1.1088
 3809TIP3    H232919   6.234   1.713   3.285 -0.6240  0.7560 -2.8807
 3810TIP3   OH232920   1.819   6.786  12.185  0.0323 -0.3905 -0.4856
 3810TIP3    H132921   1.756   6.720  12.213  1.7696 -2.0927 -0.4072
 3810TIP3    H232922   1.833   6.840  12.263  0.8798 -1.8566  0.4267
 3811TIP3   OH232923   5.280   1.368  17.240 -0.2642 -0.0302 -0.6559
 3811TIP3    H132924   5.343   1.435  17.268  0.2244 -0.4629 -0.7095
 3811TIP3    H232925   5.328   1.315  17.176 -1.0351  0.3243 -1.5612
 3812TIP3   OH232926   1.518   3.922   4.704  0.4068  0.6253 -0.0470
 3812TIP3    H132927   1.436   3.915   4.655  0.4733 -0.9663  0.0090
 3812TIP3    H232928   1.519   3.844   4.760  2.1584  0.3945 -0.3468
 3813TIP3   OH232929   4.158   3.196   4.107  0.2001 -0.1288  0.5766
 3813TIP3    H132930   4.112   3.112   4.101 -0.0607 -0.0436  1.2411
 3813TIP3    H232931   4.247   3.176   4.079  0.2197 -0.7002  1.0201
 3814TIP3   OH232932   4.885   2.783  12.151 -0.0726  0.1498  0.4566
 3814TIP3    H132933   4.936   2.745  12.223  2.6258  1.4754 -0.6441
 3814TIP3    H232934   4.908   2.730  12.075 -1.3243  0.0331  0.1331
 3815TIP3   OH232935   6.228   4.224   0.078  0.4427 -0.0492  0.0595
 3815TIP3    H132936   6.317   4.196   0.098  0.4983  0.8948  1.2245
 3815TIP3    H232937   6.219   4.210  -0.016  2.0351  0.4309 -0.1914
 3816TIP3   OH232938   3.670   3.623  12.122 -0.1797 -0.1692 -0.1352
 3816TIP3    H132939   3.643   3.548  12.176  1.8984  0.8588  2.5576
 3816TIP3    H232940   3.685   3.587  12.035 -1.5558 -2.3689  0.4722
 3817TIP3   OH232941   2.557   5.459  15.338 -0.4470  0.2280  0.0475
 3817TIP3    H132942   2.591   5.448  15.428 -1.9633 -2.2684  0.4224
 3817TIP3    H232943   2.631   5.494  15.289  1.8320 -2.2873  1.4174
 3818TIP3   OH232944   5.030   3.325  15.405 -0.3230  0.0418  0.1759
 3818TIP3    H132945   5.046   3.332  15.311 -2.1639 -0.8941 -0.2535
 3818TIP3    H232946   4.987   3.408  15.428 -0.5241 -0.0214  0.0329
 3819TIP3   OH232947   3.864   4.439   3.385 -0.3265  0.6276 -0.0395
 3819TIP3    H132948   3.788   4.435   3.444 -0.3586 -1.0327 -0.1514
 3819TIP3    H232949   3.877   4.533   3.370 -0.4667  1.1137  2.3955
 3820TIP3   OH232950   3.168   4.760  14.576  0.0618  0.0694  0.0448
 3820TIP3    H132951   3.157   4.853  14.595  0.6179 -0.0287  0.8928
 3820TIP3    H232952   3.150   4.716  14.659  1.8566 -0.4193  0.2188
 3821TIP3   OH232953   3.144   4.000   3.316 -0.0873  0.6315  0.2642
 3821TIP3    H132954   3.075   4.066   3.322  1.3107  2.2101 -0.2376
 3821TIP3    H232955   3.208   4.027   3.381 -1.2794 -2.6365  3.0878
 3822TIP3   OH232956   2.496   3.851  13.866  0.5479 -0.3694  0.2241
 3822TIP3    H132957   2.573   3.844  13.810 -0.9795  0.2708 -2.1037
 3822TIP3    H232958   2.518   3.919  13.930  1.2822  1.0833 -1.5123
 3823TIP3   OH232959   4.070   1.783  10.916 -0.1732 -0.4155  0.1482
 3823TIP3    H132960   4.120   1.721  10.863  0.9773  0.0302  0.6643
 3823TIP3    H232961   4.010   1.824  10.855  1.9266  0.9310 -1.1401
 3824TIP3   OH232962   0.007   3.990   3.608 -0.5863  0.2821 -0.3607
 3824TIP3    H132963  -0.058   4.044   3.653 -2.2403 -1.5091 -0.4799
 3824TIP3    H232964   0.079   3.982   3.670 -1.5552  0.2589  0.7810
 3825TIP3   OH232965   6.059   4.187  11.135 -0.4933  0.4777 -0.0827
 3825TIP3    H132966   6.109   4.107  11.118 -0.8132  0.2128  0.2000
 3825TIP3    H232967   5.968   4.161  11.123 -0.7119  0.3768  1.5721
 3826TIP3   OH232968   1.329   0.660   5.817  0.4033 -0.0192  0.3931
 3826TIP3    H132969   1.265   0.647   5.886  1.4131 -0.6275  1.2504
 3826TIP3    H232970   1.400   0.709   5.859  0.4910  0.6967 -0.5438
 3827TIP3   OH232971   4.735   1.494   5.737  0.1650 -0.1032  0.0822
 3827TIP3    H132972   4.823   1.463   5.718  0.3682  0.2644  0.4076
 3827TIP3    H232973   4.725   1.482   5.832 -0.4815 -1.0182 -0.0936
 3828TIP3   OH232974   0.192   2.087  10.870  0.1331  0.4541 -0.1238
 3828TIP3    H132975   0.256   2.037  10.818  0.2809  0.4899  0.0236
 3828TIP3    H232976   0.112   2.035  10.865  0.1240  0.4952 -0.4531
 3829TIP3   OH232977   2.060   3.707  16.504 -0.5138  0.0659  0.0131
 3829TIP3    H132978   2.010   3.638  16.460 -0.4088  0.2717 -0.4372
 3829TIP3    H232979   2.020   3.715  16.590  0.4743 -1.6754  0.6927
 3830TIP3   OH232980   1.871   6.499  17.185 -0.2499 -0.6622  0.1502
 3830TIP3    H132981   1.776   6.507  17.172 -0.0272 -1.1255 -2.2226
 3830TIP3    H232982   1.881   6.427  17.246 -1.4366 -0.8702  0.1230
 3831TIP3   OH232983   5.135   0.453  10.357  0.3239 -0.0575 -0.4268
 3831TIP3    H132984   5.042   0.456  10.333 -0.3879  0.9526  2.1081
 3831TIP3    H232985   5.137   0.402  10.438  2.4893 -2.8270 -2.0363
 3832TIP3   OH232986   2.172   0.380   6.531 -0.0975  0.1271  0.1674
 3832TIP3    H132987   2.267   0.395   6.527  0.3382 -2.1173 -4.0134
 3832TIP3    H232988   2.162   0.300   6.582  0.4205 -0.3500 -0.4714
 3833TIP3   OH232989   4.054   5.670   2.151  0.7110  0.3560  0.4289
 3833TIP3    H132990   3.967   5.678   2.191  0.7289  1.5499  0.2695
 3833TIP3    H232991   4.109   5.635   2.221  0.2264  0.1362  0.7068
 3834TIP3   OH232992   3.013   4.907   4.502  0.3187 -0.1573 -0.3897
 3834TIP3    H132993   3.054   4.830   4.542  0.7144  0.2362 -0.0284
 3834TIP3    H232994   3.077   4.977   4.512 -0.2054  0.3253 -0.3397
 3835TIP3   OH232995   3.548   0.368   6.387  0.2601  0.3350 -0.4318
 3835TIP3    H132996   3.497   0.305   6.335 -0.2433 -0.2762  0.7690
 3835TIP3    H232997   3.592   0.423   6.321 -0.9289  0.0563 -1.5051
 3836TIP3   OH232998   4.896   1.796   3.468 -0.1884  0.1802  0.2035
 3836TIP3    H132999   4.886   1.801   3.563  0.8042  2.2899  0.2557
 3836TIP3    H233000   4.929   1.708   3.451 -0.9089 -0.4139  1.7421
 3837TIP3   OH233001   5.431   5.146  12.930  0.2591 -0.0035  0.0181
 3837TIP3    H133002   5.471   5.232  12.918 -0.4049  0.1928 -0.8398
 3837TIP3    H233003   5.399   5.148  13.020  1.1410  0.2534  0.3459
 3838TIP3   OH233004   0.099   5.753   1.200  0.6989  0.0078  0.3510
 3838TIP3    H133005   0.044   5.704   1.260 -0.4201 -1.5334 -1.7907
 3838TIP3    H233006   0.189   5.732   1.227  0.2612  0.2664  2.1243
 3839TIP3   OH233007   1.772   2.231  16.806 -0.4551  0.4504  0.1978
 3839TIP3    H133008   1.751   2.312  16.761  0.8662  1.0896  0.6783
 3839TIP3    H233009   1.843   2.192  16.754  0.8203  1.0070  1.4785
 3840TIP3   OH233010   2.236   5.716   5.293  0.2726 -0.2265  0.0514
 3840TIP3    H133011   2.266   5.631   5.324  1.6515  0.4134  0.5862
 3840TIP3    H233012   2.251   5.775   5.366  0.6396  0.7329 -0.7660
 3841TIP3   OH233013   2.042   5.698  13.836  0.3497 -0.3434  0.3933
 3841TIP3    H133014   2.085   5.690  13.751  0.4087 -2.8010  0.6002
 3841TIP3    H233015   1.966   5.641  13.831 -1.1108  1.4103  1.1787
 3842TIP3   OH233016   0.693   5.675  15.790  0.8196 -0.3311 -0.1513
 3842TIP3    H133017   0.718   5.703  15.702 -0.3107 -0.0764 -0.4039
 3842TIP3    H233018   0.683   5.580  15.783  0.6186 -0.2975 -0.3277
 3843TIP3   OH233019   1.054   2.082   4.899 -0.4586 -0.0370  0.2045
 3843TIP3    H133020   1.047   2.015   4.831 -1.1796 -1.3526  1.5135
 3843TIP3    H233021   1.119   2.048   4.960  2.5626  2.5664 -1.2908
 3844TIP3   OH233022   6.543   4.000   4.336  0.2068 -0.0057 -0.0680
 3844TIP3    H133023   6.580   3.939   4.400  1.6238  0.1643 -0.6958
 3844TIP3    H233024   6.601   3.993   4.260  0.0365  1.6488 -0.3848
 3845TIP3   OH233025   0.099   2.627  14.573 -0.2230  0.4372  0.2800
 3845TIP3    H133026   0.132   2.709  14.609 -1.5080  1.6952 -1.2755
 3845TIP3    H233027   0.121   2.562  14.640  2.0066  1.7769  0.9767
 3846TIP3   OH233028   2.013   0.353  16.371  0.0028  0.4620  0.1084
 3846TIP3    H133029   1.958   0.305  16.433 -1.9247  2.5789  0.1789
 3846TIP3    H233030   2.101   0.350  16.409 -0.1505 -2.3258  0.4288
 3847TIP3   OH233031   3.835   5.158   3.351  0.1871 -0.1994  0.4090
 3847TIP3    H133032   3.770   5.227   3.363  0.2662  0.5459 -2.5823
 3847TIP3    H233033   3.803   5.107   3.276  2.3497 -0.6214 -0.3055
 3848TIP3   OH233034   1.134   6.211   5.550  0.7559  0.2245 -0.6423
 3848TIP3    H133035   1.138   6.244   5.639 -0.4601 -2.0028  0.3355
 3848TIP3    H233036   1.040   6.203   5.532  0.9907  0.1488 -1.9237
 3849TIP3   OH233037   3.031   1.715  15.452 -0.5783  0.7999 -0.2430
 3849TIP3    H133038   2.964   1.655  15.486  0.5567 -0.6172 -0.4131
 3849TIP3    H233039   3.037   1.784  15.519 -1.2146  0.2071  0.4503
 3850TIP3   OH233040   0.498   3.215   0.088 -0.1724  0.0868  0.5547
 3850TIP3    H133041   0.447   3.218   0.169  0.3239  0.4915  0.8546
 3850TIP3    H233042   0.536   3.302   0.080 -1.8461  0.7326 -1.1957
 3851TIP3   OH233043   6.110   4.717   1.630  0.7464 -0.0228  0.2950
 3851TIP3    H133044   6.202   4.726   1.655  1.6870  0.7669 -2.9217
 3851TIP3    H233045   6.100   4.625   1.607  1.4114  0.2843 -1.3866
 3852TIP3   OH233046   2.875   4.762  11.334 -0.3465  0.5729  0.1996
 3852TIP3    H133047   2.894   4.740  11.242  0.7071  2.0143  0.0338
 3852TIP3    H233048   2.892   4.856  11.340 -1.1564  0.6545  1.7050
 3853TIP3   OH233049   4.389   6.191  14.215  0.2538 -0.2595  0.8988
 3853TIP3    H133050   4.409   6.270  14.265  0.5292 -0.7482  1.5781
 3853TIP3    H233051   4.468   6.137  14.223 -0.6722 -1.4838  2.1774
 3854TIP3   OH233052   4.250   6.062  13.930  0.2548 -0.2046  0.3477
 3854TIP3    H133053   4.229   5.970  13.917 -1.3971  0.2518 -0.4812
 3854TIP3    H233054   4.345   6.066  13.929  0.5364 -2.3578  3.7213
 3855TIP3   OH233055   1.159   1.260  11.299 -0.1648  0.9253 -0.0001
 3855TIP3    H133056   1.191   1.288  11.213 -0.5858  2.2724  0.2607
 3855TIP3    H233057   1.238   1.255  11.353  0.2045 -0.6657 -0.6213
 3856TIP3   OH233058   2.568   6.782   3.984 -0.3011  0.2281  0.6321
 3856TIP3    H133059   2.644   6.785   3.926 -0.8485  1.1162 -0.0571
 3856TIP3    H233060   2.531   6.695   3.970 -0.6199  0.5510 -0.6096
 3857TIP3   OH233061   3.379   2.292   2.679 -0.3681 -0.3770  0.0106
 3857TIP3    H133062   3.332   2.213   2.704  1.4587 -1.1003  1.3804
 3857TIP3    H233063   3.429   2.316   2.756  1.9039  0.0122 -1.4822
 3858TIP3   OH233064   0.610   1.720  14.089  0.0750  0.1088 -0.1738
 3858TIP3    H133065   0.521   1.754  14.098  0.6111  1.0788  2.7889
 3858TIP3    H233066   0.665   1.798  14.075  0.9154  0.2625  3.1129
 3859TIP3   OH233067   6.786   4.746  12.514 -0.3405  0.0882  0.2416
 3859TIP3    H133068   6.755   4.833  12.487 -2.5520 -0.7224 -0.0217
 3859TIP3    H233069   6.731   4.724  12.589 -0.8164 -1.6643 -0.5859
 3860TIP3   OH233070   5.506   4.934  14.863 -0.7586 -0.1315  0.4590
 3860TIP3    H133071   5.438   4.992  14.830 -0.7392 -0.2724  0.1625
 3860TIP3    H233072   5.588   4.970  14.828 -0.4790  1.0240  2.1917
 3861TIP3   OH233073   0.647   4.232  10.708 -0.0110 -0.0025  0.1209
 3861TIP3    H133074   0.696   4.290  10.767  1.5885 -0.1779 -0.9727
 3861TIP3    H233075   0.638   4.150  10.757  1.8840 -0.3741 -0.0728
 3862TIP3   OH233076   4.781   1.340   0.654  0.3196 -0.6579 -0.4960
 3862TIP3    H133077   4.718   1.293   0.709 -1.1061  1.9087  0.2310
 3862TIP3    H233078   4.866   1.305   0.682 -0.5423 -1.5940  1.1794
 3863TIP3   OH233079   5.632   0.027   1.565 -0.7435  0.5463 -0.2487
 3863TIP3    H133080   5.697   0.028   1.496 -0.5007 -0.2271 -0.0324
 3863TIP3    H233081   5.682   0.023   1.646 -1.0595 -1.0135 -0.1083
 3864TIP3   OH233082   6.278   4.861   3.343  0.0922 -0.5648 -0.2056
 3864TIP3    H133083   6.301   4.951   3.320 -1.2205 -0.3705 -0.8666
 3864TIP3    H233084   6.185   4.865   3.365 -0.3187 -1.9519 -1.4791
 3865TIP3   OH233085   2.491   4.670  14.434  0.5257 -0.2630  0.0758
 3865TIP3    H133086   2.516   4.705  14.349 -2.0415  1.1680 -0.1888
 3865TIP3    H233087   2.564   4.614  14.459  1.3201 -0.8634 -3.1234
 3866TIP3   OH233088   0.680   6.377  14.593 -0.2476 -0.7459  0.0124
 3866TIP3    H133089   0.692   6.446  14.528  0.1092 -0.3560  0.4812
 3866TIP3    H233090   0.768   6.349  14.615 -0.2315  0.4825  1.7417
 3867TIP3   OH233091   6.095   0.642   5.262  0.2330  0.0933 -0.4938
 3867TIP3    H133092   6.087   0.729   5.300  0.2219 -0.9557  2.1447
 3867TIP3    H233093   6.187   0.635   5.236  0.5799  0.4303  0.5801
 3868TIP3   OH233094   3.338   5.682  12.132  0.3284 -0.1457  0.1722
 3868TIP3    H133095   3.428   5.717  12.130  0.5643 -0.6500  1.1234
 3868TIP3    H233096   3.312   5.676  12.040  1.4323 -0.3945 -0.1389
 3869TIP3   OH233097   0.661   0.168  10.737 -0.4897  0.3756 -0.0444
 3869TIP3    H133098   0.568   0.182  10.755 -0.3315  0.4212  0.7793
 3869TIP3    H233099   0.680   0.082  10.775 -0.0298  0.6937  0.4595
 3870TIP3   OH233100   2.527   0.867   6.405 -0.5646  0.1735  0.3525
 3870TIP3    H133101   2.580   0.896   6.479  1.1787 -1.8539  0.0111
 3870TIP3    H233102   2.512   0.774   6.421  1.8833 -0.9819 -2.7905
 3871TIP3   OH233103   6.414   5.722  10.826 -0.0275  0.0825  0.5984
 3871TIP3    H133104   6.403   5.633  10.859  0.4631 -0.4638 -0.6330
 3871TIP3    H233105   6.361   5.725  10.746  1.2598  0.3566 -0.2744
 3872TIP3   OH233106   4.757   3.179   6.101 -0.2125  0.0098  0.0128
 3872TIP3    H133107   4.698   3.197   6.174 -0.7607  2.1323 -0.8849
 3872TIP3    H233108   4.756   3.259   6.049 -0.0509 -1.5285 -2.5025
 3873TIP3   OH233109   5.195   4.846  15.011  0.1588 -0.4213  0.0218
 3873TIP3    H133110   5.198   4.845  14.915 -0.2760  0.0384 -0.0005
 3873TIP3    H233111   5.103   4.832  15.032 -0.4097  2.9178  0.2798
 3874TIP3   OH233112   2.435   5.567  15.063 -0.4603 -0.6543 -0.3813
 3874TIP3    H133113   2.492   5.638  15.093  0.4222 -0.8414 -1.5377
 3874TIP3    H233114   2.428   5.508  15.138 -0.9978  0.5046  0.5136
 3875TIP3   OH233115   0.577   6.729   6.359 -0.1531 -0.4605  0.0780
 3875TIP3    H133116   0.595   6.661   6.295 -1.5403 -1.1004  0.3432
 3875TIP3    H233117   0.631   6.706   6.435  1.2158  0.1008 -0.6821
 3876TIP3   OH233118   2.128   5.860   4.263  0.3087 -0.2338 -0.4968
 3876TIP3    H133119   2.145   5.767   4.250  1.0200  0.0381 -1.6599
 3876TIP3    H233120   2.033   5.870   4.250 -0.0493 -1.0364  1.3099
 3877TIP3   OH233121   0.279   4.400  12.285 -0.1372 -0.4500  0.0196
 3877TIP3    H133122   0.205   4.461  12.277  1.0627  1.4853  2.2567
 3877TIP3    H233123   0.250   4.337  12.350 -0.2779 -0.4488 -0.0405
 3878TIP3   OH233124   4.001   5.506  11.502  0.2977 -0.1990  0.1514
 3878TIP3    H133125   3.982   5.485  11.593  0.5218 -1.1987 -0.0173
 3878TIP3    H233126   4.078   5.562  11.506 -1.7765  2.8306  0.7587
 3879TIP3   OH233127   0.127   5.236   4.018 -0.1871  0.1564  0.0510
 3879TIP3    H133128   0.065   5.165   4.031  1.9288 -1.6828  0.7876
 3879TIP3    H233129   0.118   5.290   4.097  0.3517 -1.1240  1.0319
 3880TIP3   OH233130   4.264   1.520   5.142 -0.3148  0.2412 -0.3280
 3880TIP3    H133131   4.349   1.557   5.168  0.3341 -1.3181 -0.1364
 3880TIP3    H233132   4.256   1.543   5.049  1.9698 -2.4587 -1.3153
 3881TIP3   OH233133   5.289   3.566  15.715  0.6532 -0.2166 -0.4856
 3881TIP3    H133134   5.280   3.585  15.622 -0.0463  1.4807 -0.1235
 3881TIP3    H233135   5.382   3.549  15.728  0.3890 -3.3323 -1.9196
 3882TIP3   OH233136   3.715   2.941  15.063 -0.1827  0.0373 -0.1680
 3882TIP3    H133137   3.664   2.875  15.017 -0.2441  0.2374 -0.3892
 3882TIP3    H233138   3.696   2.926  15.155 -1.4370  0.7459 -0.2883
 3883TIP3   OH233139   3.033   2.890  11.655 -0.3256  0.2139 -0.4373
 3883TIP3    H133140   3.082   2.929  11.727  0.0576 -0.4892 -0.3086
 3883TIP3    H233141   2.944   2.926  11.663 -0.0039  0.9775 -0.2760
 3884TIP3   OH233142   4.202   0.307   5.537 -0.1012 -0.2931  0.7744
 3884TIP3    H133143   4.236   0.251   5.468 -1.1724 -0.7632  0.6094
 3884TIP3    H233144   4.255   0.285   5.614  0.6063 -0.2907  0.3042
 3885TIP3   OH233145   1.700   6.469   5.665 -0.0001 -0.1799 -0.0290
 3885TIP3    H133146   1.766   6.522   5.709  0.9217  1.6459 -3.3327
 3885TIP3    H233147   1.621   6.522   5.667 -0.1376 -0.3854  0.0176
 3886TIP3   OH233148   5.296   5.276   6.373  0.2753  0.1818 -0.3251
 3886TIP3    H133149   5.337   5.358   6.401  3.7620 -1.2351 -0.6972
 3886TIP3    H233150   5.281   5.229   6.455  0.2082  0.4002 -0.2124
 3887TIP3   OH233151   1.412   4.602   5.938  0.2039 -0.2643  0.2331
 3887TIP3    H133152   1.492   4.652   5.928  0.1229 -0.2761 -0.5119
 3887TIP3    H233153   1.377   4.629   6.023  0.5570  0.3650  0.1832
 3888TIP3   OH233154   3.343   4.485  13.760  0.1638 -0.7581 -0.1144
 3888TIP3    H133155   3.324   4.577  13.781 -1.4701 -0.3787 -2.8317
 3888TIP3    H233156   3.326   4.438  13.842  3.3132  1.5001  2.0963
 3889TIP3   OH233157   4.521   2.283   2.921 -0.2871  0.2123  0.4876
 3889TIP3    H133158   4.519   2.216   2.989 -2.1780 -0.5812 -0.2627
 3889TIP3    H233159   4.438   2.330   2.931  0.4056  1.5579  0.1302
 3890TIP3   OH233160   0.344   1.503   6.127  0.6211  0.5357 -0.3107
 3890TIP3    H133161   0.386   1.539   6.206  0.0668 -0.2904  0.3780
 3890TIP3    H233162   0.257   1.477   6.157 -0.4474  2.2556 -1.7256
 3891TIP3   OH233163   1.240   1.001   6.572 -0.1344 -0.3096 -0.3882
 3891TIP3    H133164   1.295   0.923   6.580  0.9592  0.4162 -0.7568
 3891TIP3    H233165   1.276   1.048   6.497 -0.4269  0.8456  0.1865
 3892TIP3   OH233166   2.421   0.672   0.849 -0.1273 -0.5311 -0.5164
 3892TIP3    H133167   2.474   0.679   0.929  0.4925  2.4469 -1.0493
 3892TIP3    H233168   2.461   0.601   0.800  1.7118 -0.1509  0.3143
 3893TIP3   OH233169   2.099   1.740  16.609 -0.7104 -0.0362  0.3734
 3893TIP3    H133170   2.070   1.750  16.518 -0.2922  0.4521  0.2858
 3893TIP3    H233171   2.038   1.677  16.647 -3.4344  2.6579  0.8713
 3894TIP3   OH233172   1.628   5.644  12.267  0.1047 -0.0378 -0.4917
 3894TIP3    H133173   1.561   5.668  12.331  0.4532 -0.1988 -0.0620
 3894TIP3    H233174   1.597   5.682  12.185 -0.9885 -0.8812 -0.5030
 3895TIP3   OH233175   0.285   1.558   0.051  0.2275 -0.3253 -0.3020
 3895TIP3    H133176   0.231   1.512  -0.013 -1.7376 -1.4705  2.0157
 3895TIP3    H233177   0.254   1.649   0.049 -0.3339 -0.5192 -0.4654
 3896TIP3   OH233178   2.711   5.680   3.895  0.0825 -0.0814  0.4516
 3896TIP3    H133179   2.746   5.768   3.910  0.6603 -0.4608  1.4618
 3896TIP3    H233180   2.785   5.631   3.858  0.3029 -0.5897  1.5320
 3897TIP3   OH233181   3.267   4.446   2.114  0.3331 -0.2015 -0.2558
 3897TIP3    H133182   3.264   4.350   2.114 -0.0738 -0.2013  0.6483
 3897TIP3    H233183   3.338   4.468   2.174 -0.6334  0.0608  0.8309
 3898TIP3   OH233184   4.589   0.714  13.670  0.5954 -0.4444 -0.1437
 3898TIP3    H133185   4.626   0.652  13.606 -0.7821 -2.1269  0.5991
 3898TIP3    H233186   4.560   0.658  13.742  0.1828  1.2107  1.0089
 3899TIP3   OH233187   6.483   5.051   5.627  0.1148  0.3632  0.1464
 3899TIP3    H133188   6.533   5.102   5.691  0.4512 -0.5830  0.6484
 3899TIP3    H233189   6.394   5.051   5.662  0.3715 -0.4632  0.8186
 3900TIP3   OH233190   2.724   2.527   5.191  0.3634  0.2259  0.0304
 3900TIP3    H133191   2.756   2.560   5.107  0.8497 -0.0642  0.0952
 3900TIP3    H233192   2.642   2.483   5.170  1.4262 -1.5789 -0.6561
 3901TIP3   OH233193   5.652   4.708   2.678 -0.3979  0.1289 -0.0386
 3901TIP3    H133194   5.603   4.784   2.645 -1.5158 -0.3605  0.4403
 3901TIP3    H233195   5.671   4.730   2.769  0.3235  0.3297 -0.2315
 3902TIP3   OH233196   6.221   0.363   0.139 -0.0004 -0.0146 -0.1532
 3902TIP3    H133197   6.151   0.427   0.138  0.8547  0.9430 -0.6057
 3902TIP3    H233198   6.284   0.397   0.203 -0.2553 -1.2233  0.7833
 3903TIP3   OH233199   2.882   0.176   0.843 -0.4422 -0.3077  0.2729
 3903TIP3    H133200   2.793   0.209   0.848 -0.9962 -1.2212 -2.2673
 3903TIP3    H233201   2.928   0.239   0.787 -0.2472 -1.2885 -0.6949
 3904TIP3   OH233202   5.876   4.409  11.928  0.0505 -0.0980  0.2090
 3904TIP3    H133203   5.945   4.471  11.903 -0.5927  1.1040  1.2994
 3904TIP3    H233204   5.849   4.437  12.015 -3.3296  0.9174 -0.9962
 3905TIP3   OH233205   4.578   2.654   3.627 -0.0279 -0.0369  0.1318
 3905TIP3    H133206   4.574   2.730   3.685 -0.5008 -0.4940  0.7139
 3905TIP3    H233207   4.599   2.690   3.541  1.2761  0.6005  0.6903
 3906TIP3   OH233208   6.579   2.473  16.922 -0.5214 -0.1463 -0.2042
 3906TIP3    H133209   6.530   2.428  16.991 -0.6089  2.8624  1.8904
 3906TIP3    H233210   6.642   2.528  16.969  0.4969  0.8933 -2.6077
 3907TIP3   OH233211   0.093   1.758  11.843  0.2339  0.1528  0.5902
 3907TIP3    H133212  -0.003   1.750  11.846  0.1458 -0.0259 -1.4863
 3907TIP3    H233213   0.109   1.850  11.822  0.4215 -0.2438 -1.1151
 3908TIP3   OH233214   1.228   0.707   2.535 -0.5221  0.3073 -0.0578
 3908TIP3    H133215   1.255   0.710   2.444  0.1346 -1.8814  0.0131
 3908TIP3    H233216   1.144   0.660   2.533 -0.8400  0.8435  0.4119
 3909TIP3   OH233217   4.935   5.740   2.501 -0.3190 -0.6217 -0.2748
 3909TIP3    H133218   5.018   5.695   2.485  1.2718  1.6137  1.1190
 3909TIP3    H233219   4.931   5.806   2.432  0.6815  1.2772  1.3796
 3910TIP3   OH233220   4.317   3.750   0.605 -0.0838 -0.0025  0.7979
 3910TIP3    H133221   4.230   3.734   0.641 -0.2624 -1.2051 -0.1142
 3910TIP3    H233222   4.365   3.791   0.677 -1.1985  0.0836  1.5263
 3911TIP3   OH233223   0.884   5.544   5.362 -0.1387 -0.2473  0.1260
 3911TIP3    H133224   0.909   5.635   5.345 -1.8382 -0.1011 -1.9278
 3911TIP3    H233225   0.902   5.499   5.279  0.1593 -1.6762  0.9472
 3912TIP3   OH233226   0.419   3.721  11.859 -0.2085 -0.4731 -0.1508
 3912TIP3    H133227   0.353   3.652  11.852 -0.1739 -0.6739  1.2010
 3912TIP3    H233228   0.391   3.774  11.934  0.0903  0.6423 -0.8004
 3913TIP3   OH233229   2.140   5.216  14.516  0.2292  0.1700 -0.4658
 3913TIP3    H133230   2.126   5.253  14.429 -2.2173  1.0736  0.2258
 3913TIP3    H233231   2.100   5.129  14.512 -1.3575  0.8218  0.1224
 3914TIP3   OH233232   1.767   6.064   2.916  0.4501 -1.0190 -0.1552
 3914TIP3    H133233   1.842   6.033   2.866  0.8657 -0.4561  0.1099
 3914TIP3    H233234   1.755   6.155   2.887  0.4097 -0.8335  0.4304
 3915TIP3   OH233235   2.176   4.978  16.094 -0.0431  0.1030  0.2321
 3915TIP3    H133236   2.131   5.054  16.131  1.5749  1.0568  0.3106
 3915TIP3    H233237   2.147   4.976  16.003  0.7774  1.5371 -0.0910
 3916TIP3   OH233238   4.191   3.397   0.346 -0.3718 -1.0009  0.1371
 3916TIP3    H133239   4.240   3.380   0.265 -1.4014 -1.2400 -0.4464
 3916TIP3    H233240   4.259   3.406   0.413  0.6107  0.9080 -1.0221
 3917TIP3   OH233241   1.165   1.025  14.228 -0.5794  0.6480 -0.3765
 3917TIP3    H133242   1.088   1.041  14.173 -0.5908 -2.5618 -1.5067
 3917TIP3    H233243   1.129   1.004  14.314 -1.0303 -0.8576 -0.9073
 3918TIP3   OH233244   1.979   1.287  15.346  0.1287  0.1337  0.0977
 3918TIP3    H133245   1.994   1.336  15.266  0.7251 -0.1444  0.0335
 3918TIP3    H233246   1.936   1.207  15.318  2.4158 -1.0509 -0.2602
 3919TIP3   OH233247   0.526   3.823   3.738  0.2008 -0.4327 -0.1504
 3919TIP3    H133248   0.581   3.753   3.704 -1.3870 -2.2891  0.9219
 3919TIP3    H233249   0.558   3.838   3.827 -0.0503 -0.4285 -0.0608
 3920TIP3   OH233250   6.681   3.663   6.716  0.6920 -0.2997  0.2185
 3920TIP3    H133251   6.758   3.607   6.707  1.3745  0.6055  0.2046
 3920TIP3    H233252   6.620   3.632   6.649  1.8356  0.1926 -1.1145
 3921TIP3   OH233253   2.367   1.103   5.624 -0.5111 -0.0705 -0.0685
 3921TIP3    H133254   2.426   1.164   5.578  1.5863 -0.7694  1.5152
 3921TIP3    H233255   2.387   1.017   5.586  0.4123 -0.4850  1.2920
 3922TIP3   OH233256   2.180   2.134   1.353 -0.6172  0.2921  0.4861
 3922TIP3    H133257   2.232   2.210   1.380 -0.2308 -0.0709  0.7802
 3922TIP3    H233258   2.239   2.083   1.297 -0.9400  0.3068  0.1263
 3923TIP3   OH233259   0.602   0.779  17.211  0.4602  0.3439  0.4216
 3923TIP3    H133260   0.582   0.735  17.128 -0.0924 -0.3584  0.9067
 3923TIP3    H233261   0.657   0.853  17.187 -1.3101  1.3246 -0.8075
 3924TIP3   OH233262   0.276   2.380  13.557  0.2053  0.4979  0.6548
 3924TIP3    H133263   0.295   2.290  13.585  2.8607  0.5958 -0.5005
 3924TIP3    H233264   0.248   2.371  13.466  2.4696  0.8962 -0.1456
 3925TIP3   OH233265   4.154   6.252   0.403 -0.0963  0.1704  0.9661
 3925TIP3    H133266   4.071   6.244   0.449 -1.0232  2.2652 -0.1827
 3925TIP3    H233267   4.141   6.203   0.322 -0.1640  0.3365  0.8747
 3926TIP3   OH233268   0.148   1.196  12.019  0.7034 -0.6907  0.4582
 3926TIP3    H133269   0.232   1.238  12.003  0.9722 -1.4418 -0.1620
 3926TIP3    H233270   0.105   1.195  11.933 -0.1667  0.1524  0.8640
 3927TIP3   OH233271   3.605   3.684  15.325 -0.0705  0.0274  0.0504
 3927TIP3    H133272   3.661   3.728  15.389 -0.7307 -0.1813  0.7928
 3927TIP3    H233273   3.529   3.742  15.315 -0.8993 -0.8568  0.9626
 3928TIP3   OH233274   4.448   2.205  15.264  0.0689 -0.4305 -0.4046
 3928TIP3    H133275   4.544   2.201  15.270  0.0342 -2.0213 -0.3414
 3928TIP3    H233276   4.431   2.269  15.196  1.2768 -1.6897 -1.9845
 3929TIP3   OH233277   0.414   6.720  14.358  0.3069  0.5233 -0.0064
 3929TIP3    H133278   0.364   6.653  14.405  0.0355  2.0936  2.1101
 3929TIP3    H233279   0.461   6.672  14.290 -0.7144 -1.6298  0.7114
 3930TIP3   OH233280   3.860   1.555   1.246  0.1060  0.4939  0.3233
 3930TIP3    H133281   3.800   1.505   1.301  1.3831  0.3252  1.6193
 3930TIP3    H233282   3.910   1.610   1.307  0.7812  1.1497 -0.7746
 3931TIP3   OH233283   1.847   1.450  16.452 -0.6139 -0.7835  0.6924
 3931TIP3    H133284   1.895   1.515  16.401  1.5567  0.0057  3.5071
 3931TIP3    H233285   1.831   1.379  16.390  2.4307 -0.1913 -0.9791
 3932TIP3   OH233286   0.731   4.297  16.909 -0.0711 -0.3412 -0.1112
 3932TIP3    H133287   0.667   4.335  16.968 -0.2138 -0.6232 -0.0809
 3932TIP3    H233288   0.698   4.317  16.821  0.0503 -0.0720 -0.0935
 3933TIP3   OH233289   6.546   2.724  16.203  0.1017 -0.1769  0.1021
 3933TIP3    H133290   6.632   2.759  16.181  0.0226 -0.1359 -0.1425
 3933TIP3    H233291   6.557   2.629  16.199 -0.2593 -0.1778 -1.5027
 3934TIP3   OH233292   2.376   6.740   5.202  0.0662 -0.5319  0.0636
 3934TIP3    H133293   2.302   6.703   5.153  1.5869 -0.5378 -2.4108
 3934TIP3    H233294   2.441   6.670   5.202  0.4323 -0.2144  1.4137
 3935TIP3   OH233295   4.438   5.691   5.157  0.3078 -0.3818  0.4172
 3935TIP3    H133296   4.489   5.715   5.235  1.0612 -0.0898 -0.1603
 3935TIP3    H233297   4.401   5.774   5.126 -0.1394 -0.5238  0.5551
 3936TIP3   OH233298   6.735   5.531  14.204  0.4821 -0.3079 -0.0194
 3936TIP3    H133299   6.823   5.496  14.186  1.1797  1.5359 -0.3863
 3936TIP3    H233300   6.683   5.505  14.128  0.7600 -1.1966  0.0810
 3937TIP3   OH233301   1.465   6.647   0.108  0.2872 -0.5260  0.3082
 3937TIP3    H133302   1.454   6.552   0.107 -0.5874 -0.4270  0.0664
 3937TIP3    H233303   1.512   6.665   0.190  3.9342 -1.5109 -1.3411
 3938TIP3   OH233304   3.947   4.207   3.601  0.0931  0.0813  0.1194
 3938TIP3    H133305   3.889   4.257   3.543  1.1098 -1.0545 -2.0244
 3938TIP3    H233306   3.987   4.272   3.658 -1.7709  1.1281  0.3033
 3939TIP3   OH233307   1.420   0.124  15.512  0.3680  0.1890  0.1368
 3939TIP3    H133308   1.467   0.144  15.431  2.1548  0.0363  1.0642
 3939TIP3    H233309   1.407   0.210  15.553 -1.8050  0.4202 -0.9059
 3940TIP3   OH233310   3.304   2.759   5.509 -0.4371  0.3686  0.0545
 3940TIP3    H133311   3.336   2.813   5.437 -0.1496  1.6163  1.0823
 3940TIP3    H233312   3.310   2.669   5.477  3.4090  0.5468 -0.1186
 3941TIP3   OH233313   3.920   1.292   4.193 -0.2454 -0.0799 -0.1894
 3941TIP3    H133314   3.954   1.210   4.157 -2.3747 -1.8856  1.6170
 3941TIP3    H233315   3.905   1.348   4.116  3.7719 -0.2167 -1.2758
 3942TIP3   OH233316   4.002   5.595  15.852  0.3844  0.0750 -0.3461
 3942TIP3    H133317   3.986   5.662  15.786  0.9252  0.5566  0.0027
 3942TIP3    H233318   3.922   5.593  15.904 -0.1839 -0.5472 -1.2080
 3943TIP3   OH233319   5.658   2.574   1.236  0.2730  0.0468  0.2552
 3943TIP3    H133320   5.678   2.552   1.146  2.7645 -2.2394  1.2336
 3943TIP3    H233321   5.572   2.535   1.253  0.1561 -0.2026 -0.8894
 3944TIP3   OH233322   6.264   6.412   5.101  0.3228 -1.1758 -0.0087
 3944TIP3    H133323   6.260   6.475   5.173 -0.1547 -1.1269 -0.0697
 3944TIP3    H233324   6.192   6.351   5.120 -0.8665 -0.2422 -1.2774
 3945TIP3   OH233325   4.796   3.458   6.111  0.1534  0.0512 -0.0586
 3945TIP3    H133326   4.881   3.414   6.111  0.4189  0.5501  0.6787
 3945TIP3    H233327   4.817   3.550   6.128 -0.5603  0.1164  0.4990
 3946TIP3   OH233328   4.972   1.928   2.345  0.9069  0.2001 -0.0402
 3946TIP3    H133329   5.005   1.849   2.387 -1.6356 -0.0860  1.6093
 3946TIP3    H233330   4.988   1.998   2.408 -2.1987 -0.0899  1.1967
 3947TIP3   OH233331   2.605   6.527  11.743  1.1793 -0.3226 -0.2872
 3947TIP3    H133332   2.574   6.603  11.793  2.9641  1.2814 -1.4739
 3947TIP3    H233333   2.538   6.460  11.758  0.1972  1.0090  1.8959
 3948TIP3   OH233334   1.428   3.079  15.067 -0.0258 -0.3706 -0.1007
 3948TIP3    H133335   1.387   3.058  14.983  1.8272 -0.1685 -1.1081
 3948TIP3    H233336   1.388   3.163  15.093  0.8031  0.6006 -1.8144
 3949TIP3   OH233337   0.322   4.525   2.844  0.2053  0.3663  0.0594
 3949TIP3    H133338   0.322   4.430   2.834  1.0931  0.3475  0.1950
 3949TIP3    H233339   0.268   4.556   2.771  0.3918 -0.2086 -0.3361
 3950TIP3   OH233340   1.739   1.468   1.098 -0.4177 -0.1649 -0.4149
 3950TIP3    H133341   1.770   1.453   1.187  2.2973 -0.1301 -1.2592
 3950TIP3    H233342   1.729   1.563   1.091  3.5829  0.3770 -1.2461
 3951TIP3   OH233343   0.032   1.285   1.940 -0.5282  0.0472 -0.0685
 3951TIP3    H133344   0.112   1.248   1.905  1.4701  2.0118  2.0572
 3951TIP3    H233345  -0.027   1.210   1.952  1.5502 -1.6957 -0.2484
 3952TIP3   OH233346   5.149   6.041  11.591  0.0528  0.3754 -0.2474
 3952TIP3    H133347   5.219   5.981  11.618  0.2316  0.2765 -0.9151
 3952TIP3    H233348   5.117   6.004  11.508 -2.3948 -0.9454  1.1714
 3953TIP3   OH233349   2.204   3.659   3.409 -0.1334 -0.3206 -0.2860
 3953TIP3    H133350   2.223   3.676   3.501  0.4067 -1.9690 -0.0587
 3953TIP3    H233351   2.149   3.580   3.410 -0.8574  0.1456 -1.3450
 3954TIP3   OH233352   4.438   0.998  13.684 -0.0742  0.3540  0.1298
 3954TIP3    H133353   4.448   1.014  13.777 -4.0962  1.0828  0.6072
 3954TIP3    H233354   4.456   0.904  13.674 -0.9890 -0.0602  1.9384
 3955TIP3   OH233355   4.184   0.727  16.372 -0.3677  0.5739  0.4153
 3955TIP3    H133356   4.090   0.728  16.389 -0.5636 -3.7771  0.8054
 3955TIP3    H233357   4.192   0.722  16.276 -0.6371 -0.3206  0.4330
 3956TIP3   OH233358   1.303   1.162  14.929  0.3618  0.5648 -0.1241
 3956TIP3    H133359   1.266   1.077  14.953 -2.3804  1.4538 -0.8914
 3956TIP3    H233360   1.353   1.188  15.006 -0.9769 -0.5477  1.1845
 3957TIP3   OH233361   2.190   5.610  12.430 -0.3549  0.1718 -0.3818
 3957TIP3    H133362   2.120   5.668  12.459 -0.2337 -0.2226  0.7567
 3957TIP3    H233363   2.250   5.605  12.504  0.6925  0.2040 -1.2061
 3958TIP3   OH233364   4.528   4.538   4.765 -0.3474  0.6036  0.1365
 3958TIP3    H133365   4.475   4.576   4.695 -0.4699  1.8305  0.8683
 3958TIP3    H233366   4.602   4.497   4.720 -1.4263 -0.3383 -0.8299
 3959TIP3   OH233367   5.156   5.347  12.510 -0.0479  0.2888  0.0085
 3959TIP3    H133368   5.080   5.382  12.464 -1.7456 -0.4390  2.0959
 3959TIP3    H233369   5.188   5.420  12.563 -0.0418  0.2492  0.0594
 3960TIP3   OH233370   6.066   2.512   2.862 -0.2504  0.4911  0.0848
 3960TIP3    H133371   6.026   2.501   2.948 -2.3791 -0.2082 -0.9201
 3960TIP3    H233372   6.034   2.597   2.831  0.2511  0.5991 -0.1596
 3961TIP3   OH233373   1.628   3.293   4.305 -0.2772 -0.0774  0.2497
 3961TIP3    H133374   1.609   3.337   4.222 -2.9279  0.6339  1.1525
 3961TIP3    H233375   1.620   3.362   4.371 -0.1852 -1.0398  1.2889
 3962TIP3   OH233376   3.532   5.352  11.950  0.3157 -0.3096 -0.9008
 3962TIP3    H133377   3.483   5.351  12.033 -3.3420 -1.8136 -2.8318
 3962TIP3    H233378   3.623   5.339  11.976 -0.6282 -0.7492  2.8602
 3963TIP3   OH233379   1.089   3.063  11.793  0.3530 -0.2673  0.3652
 3963TIP3    H133380   1.117   2.987  11.844  0.2241  0.9351  2.3426
 3963TIP3    H233381   1.099   3.137  11.853 -1.7854  0.9782 -0.6894
 3964TIP3   OH233382   3.827   2.655  14.891 -0.1998  0.1542  0.6187
 3964TIP3    H133383   3.844   2.707  14.813  0.8586 -2.1505 -0.7978
 3964TIP3    H233384   3.883   2.693  14.959 -0.2035  1.4323 -0.0702
 3965TIP3   OH233385   3.658   1.440   4.160  0.5074 -0.7591 -0.3457
 3965TIP3    H133386   3.739   1.446   4.212  1.0406 -1.2366 -1.1078
 3965TIP3    H233387   3.686   1.406   4.076 -0.2004  0.9321 -1.3164
 3966TIP3   OH233388   2.148   3.994  12.487  0.2092 -0.0850  0.1591
 3966TIP3    H133389   2.097   3.918  12.460 -0.5716  1.1928 -2.3028
 3966TIP3    H233390   2.085   4.050  12.534 -0.7802  1.3624 -2.6357
 3967TIP3   OH233391   1.423   1.274  15.137  0.4982 -1.0913 -0.2480
 3967TIP3    H133392   1.374   1.348  15.172 -0.4178 -1.6314 -0.3609
 3967TIP3    H233393   1.453   1.226  15.214  1.6219 -0.2798 -0.1645
 3968TIP3   OH233394   1.449   2.603   5.155 -0.3817 -0.1686  0.2024
 3968TIP3    H133395   1.360   2.606   5.119 -0.4431  2.8687  0.3167
 3968TIP3    H233396   1.483   2.692   5.142  2.7851 -1.2911 -0.1050
 3969TIP3   OH233397   0.230   5.988   3.934 -0.0210 -0.0264 -0.0865
 3969TIP3    H133398   0.299   6.020   3.992  0.0573  1.6549 -1.0173
 3969TIP3    H233399   0.186   5.920   3.984  1.4275 -0.1820  1.0662
 3970TIP3   OH233400   0.682   2.209  11.296 -0.0634  0.0704  0.1006
 3970TIP3    H133401   0.648   2.132  11.342 -1.2987  0.3912 -0.2274
 3970TIP3    H233402   0.728   2.173  11.220  0.6732 -0.3966  0.7618
 3971TIP3   OH233403   0.347   2.381   1.725 -0.0903  0.0153 -0.0622
 3971TIP3    H133404   0.336   2.415   1.637 -1.0433 -0.7375 -0.2423
 3971TIP3    H233405   0.330   2.457   1.782  0.3748  0.4648 -0.5070
 3972TIP3   OH233406   6.552   3.390  12.309 -0.2252  0.3077 -0.1316
 3972TIP3    H133407   6.570   3.473  12.353  0.4105 -0.5185  1.2540
 3972TIP3    H233408   6.545   3.326  12.381 -3.1240 -0.4553 -0.9574
 3973TIP3   OH233409   5.855   1.246  15.155 -0.8909  0.4576 -0.1801
 3973TIP3    H133410   5.844   1.154  15.182 -1.4013  1.0481  1.8395
 3973TIP3    H233411   5.946   1.266  15.179 -0.7860  0.4929 -0.6045
 3974TIP3   OH233412   2.207   1.251   4.014  0.8172 -0.1693  0.2292
 3974TIP3    H133413   2.146   1.178   4.013  1.6631 -0.8850 -0.4500
 3974TIP3    H233414   2.250   1.246   4.100 -1.2881  1.4125  1.4676
 3975TIP3   OH233415   5.137   3.294   3.861  0.1700  0.4348 -0.6200
 3975TIP3    H133416   5.119   3.220   3.920 -1.8715  1.3468  0.0133
 3975TIP3    H233417   5.209   3.264   3.806 -0.9545 -2.2603 -0.7757
 3976TIP3   OH233418   5.040   3.956   6.005  0.2322  0.4650  0.0791
 3976TIP3    H133419   5.100   3.890   6.040 -3.2187 -1.6125  2.7080
 3976TIP3    H233420   5.010   3.919   5.922  0.1225 -0.0867  0.3612
 3977TIP3   OH233421   4.624   3.189   0.541  0.3639 -0.0560  0.0740
 3977TIP3    H133422   4.579   3.248   0.481 -2.2644 -3.3894 -1.5766
 3977TIP3    H233423   4.555   3.156   0.599  1.3703 -2.4370  0.0342
 3978TIP3   OH233424   6.214   0.149  10.886  1.1043 -0.3579  0.5675
 3978TIP3    H133425   6.301   0.138  10.925  0.8536 -0.5837  1.0677
 3978TIP3    H233426   6.206   0.075  10.826  1.3974 -0.1416  0.2606
 3979TIP3   OH233427   4.540   1.166   0.111 -0.2640 -0.3370 -0.3581
 3979TIP3    H133428   4.479   1.228   0.150  0.0628  0.6230 -1.3023
 3979TIP3    H233429   4.495   1.134   0.033  0.3853  0.3655 -1.0529
 3980TIP3   OH233430   0.996   2.465   3.673  0.0313 -0.5680 -0.4477
 3980TIP3    H133431   0.953   2.493   3.592 -0.6601 -1.7240 -0.5088
 3980TIP3    H233432   0.940   2.395   3.706  0.5943 -0.4638  0.7621
 3981TIP3   OH233433   2.111   4.689   2.751  0.1965  0.5526 -0.0812
 3981TIP3    H133434   2.043   4.625   2.770  0.2417  0.7070  0.6012
 3981TIP3    H233435   2.159   4.699   2.832  1.2585  0.2014 -0.6526
 3982TIP3   OH233436   3.723   3.148   0.963 -0.1494  0.1409  0.3125
 3982TIP3    H133437   3.792   3.082   0.973 -0.3982 -0.1651  0.0158
 3982TIP3    H233438   3.642   3.098   0.969 -0.3469  0.4802  0.4982
 3983TIP3   OH233439   2.806   5.360   5.546  1.1268  0.0642  0.5551
 3983TIP3    H133440   2.724   5.380   5.591  0.8661 -0.1320  0.1759
 3983TIP3    H233441   2.857   5.309   5.609  0.4680 -0.8302  0.3792
 3984TIP3   OH233442   2.108   2.507  15.028  0.0731  0.1198 -0.1815
 3984TIP3    H133443   2.133   2.595  15.056  0.1486  0.0590 -0.0577
 3984TIP3    H233444   2.154   2.449  15.088 -0.8747  0.0176  0.4494
 3985TIP3   OH233445   3.069   5.597  13.031  0.2142  0.7708  0.1652
 3985TIP3    H133446   2.983   5.625  13.061  0.7916  1.6602  1.0762
 3985TIP3    H233447   3.056   5.574  12.939 -1.2642 -0.4192  0.6373
 3986TIP3   OH233448   2.481   4.680  15.426 -0.1462 -0.2014 -0.1479
 3986TIP3    H133449   2.393   4.643  15.423 -0.1346 -0.1727 -1.7169
 3986TIP3    H233450   2.537   4.612  15.388  0.1856  0.5411 -1.0398
 3987TIP3   OH233451   1.782   0.767   3.195 -0.0504  0.4954 -0.1929
 3987TIP3    H133452   1.710   0.710   3.166 -1.4771  1.5445  1.0980
 3987TIP3    H233453   1.847   0.708   3.233 -1.6881 -0.3045  1.5282
 3988TIP3   OH233454   6.769   0.910  16.337  0.0852  0.6170  0.4727
 3988TIP3    H133455   6.773   0.909  16.241  1.7065  2.3884  0.4615
 3988TIP3    H233456   6.676   0.899  16.357 -0.3362  0.5717 -1.3073
 3989TIP3   OH233457   4.175   2.597  15.788 -0.2455  0.0431  0.2833
 3989TIP3    H133458   4.158   2.675  15.736  0.4481  0.4954  0.7225
 3989TIP3    H233459   4.108   2.600  15.857  0.0193  0.4674  0.5295
 3990TIP3   OH233460   3.050   1.135   5.765 -0.3204 -0.2157 -0.1264
 3990TIP3    H133461   3.023   1.173   5.681 -1.0467 -1.1320 -0.3287
 3990TIP3    H233462   3.017   1.197   5.831  0.8562  0.8672 -0.5171
 3991TIP3   OH233463   4.581   5.885   3.478 -0.0037 -0.1129  0.3718
 3991TIP3    H133464   4.641   5.960   3.490  0.2334 -0.2845  0.2683
 3991TIP3    H233465   4.538   5.876   3.563 -0.0454  0.1540  0.3800
 3992TIP3   OH233466   1.196   5.457   3.363  0.2953  0.7537  0.2568
 3992TIP3    H133467   1.284   5.492   3.378  0.4001 -0.1194  1.8741
 3992TIP3    H233468   1.167   5.427   3.449 -0.1172 -2.3466 -0.8413
 3993TIP3   OH233469   6.553   3.421   5.611  0.2068 -0.3977 -0.2998
 3993TIP3    H133470   6.479   3.453   5.559  0.7565 -1.8824 -2.1050
 3993TIP3    H233471   6.530   3.331   5.632  0.8159 -0.3832  0.4620
 3994TIP3   OH233472   2.797   6.229  14.544  0.5119 -0.6102  0.2532
 3994TIP3    H133473   2.886   6.260  14.526 -0.1418  1.4390  0.2363
 3994TIP3    H233474   2.795   6.140  14.509  2.1112 -0.1532 -1.1567
 3995TIP3   OH233475   5.822   3.249  13.808 -0.3949  0.1615 -0.7766
 3995TIP3    H133476   5.838   3.238  13.902  0.2334  0.7200 -0.8106
 3995TIP3    H233477   5.907   3.231  13.768 -0.9776 -1.4963 -1.3767
 3996TIP3   OH233478   4.597   3.521   5.919 -0.2582  0.2966 -0.0049
 3996TIP3    H133479   4.650   3.443   5.905 -0.3925  0.1842  0.1134
 3996TIP3    H233480   4.633   3.561   5.998 -0.7388 -0.1104  0.4312
 3997TIP3   OH233481   6.552   3.020  13.001  0.3706 -0.8279 -0.2771
 3997TIP3    H133482   6.480   3.076  12.971  0.0534 -0.7599  0.5922
 3997TIP3    H233483   6.511   2.935  13.018  0.3267 -0.5624  1.0103
 3998TIP3   OH233484   3.160   0.413  16.376 -0.4795  0.2310  0.0091
 3998TIP3    H133485   3.144   0.497  16.334 -3.0762 -0.4141 -0.4333
 3998TIP3    H233486   3.080   0.363  16.362  0.6022 -1.9649  1.1410
 3999TIP3   OH233487   3.146   4.391   2.957 -0.7448  0.7340  0.0885
 3999TIP3    H133488   3.110   4.371   2.870  1.2306  0.3298 -0.7004
 3999TIP3    H233489   3.185   4.309   2.986  1.2320  1.5942  0.0038
 4000TIP3   OH233490   5.371   4.838   3.252 -0.1525 -0.2394 -0.0476
 4000TIP3    H133491   5.308   4.821   3.181 -0.5160 -0.2207  0.2719
 4000TIP3    H233492   5.380   4.933   3.253  0.5363 -0.2903 -0.6602
 4001TIP3   OH233493   2.073   0.262   1.812  0.4235  0.0905 -0.5850
 4001TIP3    H133494   2.050   0.169   1.822  1.0907 -0.0481 -0.3000
 4001TIP3    H233495   2.127   0.264   1.733 -1.3888  0.5733 -1.8848
 4002TIP3   OH233496   0.844   0.471  12.840  0.1191 -0.3477 -1.0229
 4002TIP3    H133497   0.791   0.437  12.911 -1.2069  1.6872 -0.9790
 4002TIP3    H233498   0.934   0.453  12.867 -0.3008  1.0124  1.5265
 4003TIP3   OH233499   2.440   3.950  17.046  0.0032  0.4240  0.3687
 4003TIP3    H133500   2.496   4.020  17.079 -0.5188  1.2823 -0.5153
 4003TIP3    H233501   2.489   3.911  16.973  0.7372 -0.8365  1.4901
 4004TIP3   OH233502   3.073   5.437   4.424  0.1197  0.2847 -0.5143
 4004TIP3    H133503   3.092   5.345   4.444 -1.5225 -0.1060 -0.5878
 4004TIP3    H233504   2.980   5.447   4.445  0.5497  2.2838  0.6797
 4005TIP3   OH233505   0.147   1.767   3.904 -0.0253 -0.1133  0.3909
 4005TIP3    H133506   0.183   1.844   3.948 -1.1243  2.0543 -2.2400
 4005TIP3    H233507   0.059   1.757   3.942  0.3913 -0.5828  1.2637
 4006TIP3   OH233508   5.948   3.012  16.892 -0.5824  0.2355  0.0300
 4006TIP3    H133509   5.949   3.038  16.984 -1.0479  0.6820 -0.0816
 4006TIP3    H233510   6.017   3.065  16.852 -0.1724 -0.1864  0.1808
 4007TIP3   OH233511   0.515   0.383  16.631 -0.1282 -0.2774 -0.4793
 4007TIP3    H133512   0.467   0.463  16.653  0.3180  0.1936 -1.1900
 4007TIP3    H233513   0.458   0.337  16.570 -0.5220 -0.6581  0.1696
 4008TIP3   OH233514   4.317   2.250  11.496 -0.0860 -0.2167  0.0509
 4008TIP3    H133515   4.304   2.185  11.427 -2.1138 -0.5260  0.6480
 4008TIP3    H233516   4.331   2.332  11.450  0.3097 -0.7013 -0.7158
 4009TIP3   OH233517   4.693   4.184   2.158  0.0253 -0.1036  0.1192
 4009TIP3    H133518   4.701   4.174   2.063 -0.5719 -1.1537  0.1602
 4009TIP3    H233519   4.751   4.256   2.180  0.3207  0.0213 -1.0231
 4010TIP3   OH233520   2.088   4.270  13.736 -0.2786  0.0562  0.0051
 4010TIP3    H133521   2.044   4.186  13.728 -1.3198  0.5263  0.5558
 4010TIP3    H233522   2.130   4.268  13.822 -1.0990  0.4450  0.4264
 4011TIP3   OH233523   4.447   3.458   2.679  0.2363 -0.2907  0.0722
 4011TIP3    H133524   4.509   3.524   2.711  0.1431  0.4327 -1.2007
 4011TIP3    H233525   4.478   3.376   2.718  0.0973  0.5339  2.0465
 4012TIP3   OH233526   1.556   4.167   5.483  0.3979 -0.2496  0.5403
 4012TIP3    H133527   1.513   4.138   5.564  0.1381 -0.2836  0.3916
 4012TIP3    H233528   1.528   4.258   5.473  3.2183  0.9773  2.3747
 4013TIP3   OH233529   3.175   2.359   1.589 -0.1025  0.4277  0.1949
 4013TIP3    H133530   3.221   2.362   1.506  1.4043 -0.1237  0.9799
 4013TIP3    H233531   3.103   2.296   1.575  0.6989 -0.3669 -0.4246
 4014TIP3   OH233532   0.702   2.436   1.731 -0.2044  0.6328 -0.1617
 4014TIP3    H133533   0.640   2.401   1.795 -0.0230  1.2349  0.3565
 4014TIP3    H233534   0.742   2.511   1.776  0.6018  0.4928 -0.6372
 4015TIP3   OH233535   4.798   0.809  11.105 -0.2087 -0.2472  0.1099
 4015TIP3    H133536   4.853   0.812  11.184 -0.5393 -0.1791  0.3393
 4015TIP3    H233537   4.838   0.872  11.046  0.8463 -1.2711 -0.3114
 4016TIP3   OH233538   1.389   0.595  15.292 -0.4971 -0.1923  0.1694
 4016TIP3    H133539   1.440   0.542  15.354  1.6738  0.7160 -0.7446
 4016TIP3    H233540   1.355   0.531  15.229  0.8666 -0.7003 -0.0939
 4017TIP3   OH233541   0.199   0.678  13.185 -0.4250  0.0105 -0.2406
 4017TIP3    H133542   0.187   0.718  13.272  1.0333 -0.4358  0.1973
 4017TIP3    H233543   0.237   0.748  13.132 -2.8281  0.8134 -1.0645
 4018TIP3   OH233544   1.866   2.396   0.106 -0.3475 -0.0645 -0.5136
 4018TIP3    H133545   1.933   2.421   0.042  0.7783  0.0118  0.6494
 4018TIP3    H233546   1.904   2.420   0.191 -2.2683  0.8863  0.1363
 4019TIP3   OH233547   1.823   5.840  10.689  0.5212  0.4935 -0.7420
 4019TIP3    H133548   1.755   5.773  10.684 -0.2741  1.2698 -0.7675
 4019TIP3    H233549   1.798   5.904  10.622 -0.0988  1.9983  0.8409
 4020TIP3   OH233550   6.101   6.228   1.801 -0.2673 -0.1410  0.5079
 4020TIP3    H133551   6.023   6.254   1.752  0.7068  0.9819 -0.5070
 4020TIP3    H233552   6.067   6.198   1.886 -1.7480  1.0830  0.3894
 4021TIP3   OH233553   6.574   3.812  13.293 -0.3891  0.2054  0.3992
 4021TIP3    H133554   6.490   3.774  13.267 -0.0486  1.0336 -2.1448
 4021TIP3    H233555   6.634   3.790  13.222  0.6615  2.4858  0.4790
 4022TIP3   OH233556   1.576   0.499   3.891 -0.5824  0.2750  0.0642
 4022TIP3    H133557   1.657   0.547   3.873 -0.9176  1.0206  0.4920
 4022TIP3    H233558   1.520   0.562   3.936 -1.5670 -0.1096 -0.5897
 4023TIP3   OH233559   2.929   6.594  17.127  0.1242 -0.4124  0.0485
 4023TIP3    H133560   2.983   6.596  17.048  1.4398 -0.8899  0.9018
 4023TIP3    H233561   2.929   6.502  17.153 -2.7884 -0.7982 -1.0075
 4024TIP3   OH233562   0.679   2.442  11.797  0.1078 -0.1065  0.1011
 4024TIP3    H133563   0.706   2.404  11.714 -0.9011 -0.1649 -0.2090
 4024TIP3    H233564   0.680   2.369  11.859  1.0961 -0.0148  0.2110
 4025TIP3   OH233565   3.646   3.816  16.030 -0.1451 -0.4780 -0.2597
 4025TIP3    H133566   3.668   3.739  16.082 -1.1767 -1.5465 -1.3353
 4025TIP3    H233567   3.720   3.827  15.971  0.1287 -0.4836  0.0812
 4026TIP3   OH233568   1.352   1.029   2.500 -0.0145  0.0850 -0.2948
 4026TIP3    H133569   1.281   1.077   2.457  0.2505  1.4500  0.7249
 4026TIP3    H233570   1.307   0.964   2.554 -0.4183 -0.1571 -0.9035
 4027TIP3   OH233571   3.627   0.863   2.360 -0.1290  0.1650 -0.3518
 4027TIP3    H133572   3.580   0.875   2.442  0.2482 -0.5843 -0.0211
 4027TIP3    H233573   3.582   0.790   2.316  1.0900 -1.0032  0.2669
 4028TIP3   OH233574   5.027   4.239   2.270 -0.2251  0.2511 -0.4709
 4028TIP3    H133575   4.981   4.207   2.348  2.8531 -0.0714  1.3801
 4028TIP3    H233576   5.108   4.278   2.304  1.5273 -0.3500 -3.5611
 4029TIP3   OH233577   6.192   5.597   0.342  0.1068  0.7173 -0.0420
 4029TIP3    H133578   6.246   5.608   0.263  0.3434 -0.0705 -0.0029
 4029TIP3    H233579   6.106   5.570   0.308  0.4437 -0.4396 -0.0053
 4030TIP3   OH233580   6.097   5.410  12.625 -0.6205 -0.0074  0.7026
 4030TIP3    H133581   6.133   5.399  12.538  1.4495  0.7697  1.4099
 4030TIP3    H233582   6.057   5.325  12.645  2.2209 -1.5211  0.4532
 4031TIP3   OH233583   3.621   4.915  15.345  0.3327 -0.0085 -0.1348
 4031TIP3    H133584   3.608   4.940  15.436  0.7038  1.6134 -0.5051
 4031TIP3    H233585   3.687   4.846  15.348  1.1013  0.7413  0.7541
 4032TIP3   OH233586   4.767   5.315   1.485 -0.3540 -0.5426  0.0143
 4032TIP3    H133587   4.779   5.389   1.544 -2.0199 -1.3101  1.4095
 4032TIP3    H233588   4.678   5.325   1.451 -0.5241 -1.7588  0.0385
 4033TIP3   OH233589   6.231   5.387   2.312 -0.0582  0.3016 -0.4266
 4033TIP3    H133590   6.211   5.385   2.219 -0.9587 -0.1118 -0.2346
 4033TIP3    H233591   6.305   5.327   2.322 -1.9274 -2.1836 -0.4618
 4034TIP3   OH233592   1.019   5.293   5.540 -0.7173 -0.1103  0.2431
 4034TIP3    H133593   0.942   5.349   5.527 -1.2283 -0.9629 -0.5959
 4034TIP3    H233594   1.031   5.250   5.456 -0.8879 -1.9097  1.0827
 4035TIP3   OH233595   2.067   5.024   2.846  0.0322  0.1597  0.2905
 4035TIP3    H133596   2.072   5.119   2.859  0.2559  0.3785 -1.1953
 4035TIP3    H233597   2.158   4.996   2.844  0.0256  0.1703 -0.8305
 4036TIP3   OH233598   2.081   4.409   0.917  0.4092 -0.3138  0.0707
 4036TIP3    H133599   2.073   4.371   0.829  0.3128 -2.2240  0.8511
 4036TIP3    H233600   2.175   4.417   0.931  0.4139  0.9087 -0.5501
 4037TIP3   OH233601   1.850   2.294  15.389 -0.4837 -0.3258 -0.4492
 4037TIP3    H133602   1.885   2.376  15.423  0.7903 -1.1053  0.1818
 4037TIP3    H233603   1.867   2.230  15.457 -2.5794 -0.9094 -0.4007
 4038TIP3   OH233604   4.877   2.563   3.401 -0.0771  0.3744 -0.2732
 4038TIP3    H133605   4.944   2.518   3.452 -0.7246  0.0410  0.3134
 4038TIP3    H233606   4.860   2.644   3.449  0.7428  1.0311 -1.0672
 4039TIP3   OH233607   3.380   6.400  17.183  0.0593  0.2615 -0.5588
 4039TIP3    H133608   3.309   6.431  17.238  1.3339  2.4010 -0.0105
 4039TIP3    H233609   3.339   6.381  17.099 -1.4936 -0.7009  0.3752
 4040TIP3   OH233610   5.352   1.299  13.875 -0.2996 -0.1927  0.1866
 4040TIP3    H133611   5.428   1.276  13.929  0.5164 -1.1203 -1.2880
 4040TIP3    H233612   5.390   1.328  13.792 -1.5147 -2.6729 -1.3547
 4041TIP3   OH233613   2.714   4.997  11.429  0.4432  0.1440  0.5403
 4041TIP3    H133614   2.673   5.062  11.486 -0.1191  0.2280  0.0484
 4041TIP3    H233615   2.794   4.972  11.475  0.5379  0.9944  0.8611
 4042TIP3   OH233616   3.126   6.031   6.203 -0.3598 -0.3340 -0.1580
 4042TIP3    H133617   3.218   6.032   6.179 -0.1426  0.5475  0.6431
 4042TIP3    H233618   3.121   6.085   6.282 -1.3383 -1.5306  0.6337
 4043TIP3   OH233619   0.229   0.655   0.469 -0.3488 -0.5488  0.1857
 4043TIP3    H133620   0.136   0.630   0.472 -0.7880  1.0299  0.6096
 4043TIP3    H233621   0.231   0.743   0.506  1.6919 -1.5827  2.9560
 4044TIP3   OH233622   4.989   6.092   1.195 -0.0941 -0.4860 -0.5076
 4044TIP3    H133623   5.050   6.164   1.177 -0.5775 -0.1514 -0.8264
 4044TIP3    H233624   4.907   6.119   1.154 -0.4536 -0.9441 -0.1023
 4045TIP3   OH233625   0.245   2.826   0.063 -0.5663  0.3589  0.2697
 4045TIP3    H133626   0.206   2.869  -0.012 -1.0806 -0.4060  0.0836
 4045TIP3    H233627   0.190   2.749   0.078 -0.7727  0.7550  1.7398
 4046TIP3   OH233628   2.116   4.822   5.699  0.3628 -0.3201  0.0403
 4046TIP3    H133629   2.066   4.779   5.630  0.5748  1.1160 -1.0545
 4046TIP3    H233630   2.138   4.908   5.663  0.4262  0.5120  1.9240
 4047TIP3   OH233631   6.271   0.425   5.146  0.6355  0.7845  0.6875
 4047TIP3    H133632   6.318   0.467   5.075  2.3448 -2.1822 -0.1140
 4047TIP3    H233633   6.339   0.378   5.195 -0.6580  1.6887  3.5843
 4048TIP3   OH233634   4.011   4.244  12.892 -0.0925 -0.0402  0.7186
 4048TIP3    H133635   3.917   4.254  12.880 -0.2382 -1.9238 -0.0228
 4048TIP3    H233636   4.049   4.323  12.853 -1.3211  0.4065  0.3992
 4049TIP3   OH233637   5.448   1.852  12.448 -0.7706 -0.5648  0.3828
 4049TIP3    H133638   5.505   1.812  12.382  0.2937  0.1046  0.8603
 4049TIP3    H233639   5.386   1.783  12.472 -0.6016 -1.0965 -0.6575
 4050TIP3   OH233640   5.569   4.555   0.582 -1.0745 -0.2225 -0.4281
 4050TIP3    H133641   5.520   4.572   0.662 -0.5045 -0.2766 -0.0599
 4050TIP3    H233642   5.503   4.547   0.514 -1.4974  1.9871 -0.3697
 4051TIP3   OH233643   2.885   0.581   0.961 -0.2755 -0.1154 -0.0809
 4051TIP3    H133644   2.892   0.545   0.873  1.3080  1.5536 -0.7143
 4051TIP3    H233645   2.880   0.505   1.018  1.9619 -1.3682 -1.3979
 4052TIP3   OH233646   2.148   2.026  11.853  0.1967  0.0796  0.1446
 4052TIP3    H133647   2.056   2.054  11.857  0.5421  1.2217  0.5254
 4052TIP3    H233648   2.196   2.106  11.834  1.4087  0.1354  2.9527
 4053TIP3   OH233649   5.194   3.338  16.669 -0.2182  0.0098  0.1858
 4053TIP3    H133650   5.149   3.259  16.701  1.6405 -1.7163 -1.1610
 4053TIP3    H233651   5.154   3.355  16.584 -0.4695  0.3696  0.3780
 4054TIP3   OH233652   3.130   4.175  12.748  0.6355 -0.1576 -0.0005
 4054TIP3    H133653   3.084   4.116  12.689 -0.4297  1.0718 -0.4449
 4054TIP3    H233654   3.129   4.131  12.833  0.5921 -1.1316 -0.4987
 4055TIP3   OH233655   0.785   5.937   4.627  0.1737 -0.2482 -0.2198
 4055TIP3    H133656   0.746   6.002   4.686 -0.6199  0.0555 -1.0547
 4055TIP3    H233657   0.879   5.948   4.637  0.0722  1.5718 -0.9109
 4056TIP3   OH233658   0.451   6.001   4.099  0.2033 -0.6316 -0.0565
 4056TIP3    H133659   0.533   6.048   4.087 -0.4052  0.5275  0.1345
 4056TIP3    H233660   0.428   6.017   4.191 -0.0148 -1.3337  0.0207
 4057TIP3   OH233661   6.616   1.874  13.700 -0.2340 -0.0178  0.1193
 4057TIP3    H133662   6.696   1.871  13.649  0.9508  1.0414  1.8139
 4057TIP3    H233663   6.556   1.927  13.648  0.3902 -0.2562 -0.8609
 4058TIP3   OH233664   1.433   5.937   3.916 -0.3492  0.0649  0.4451
 4058TIP3    H133665   1.405   6.007   3.857 -1.8114  0.5737  1.7050
 4058TIP3    H233666   1.394   5.857   3.879 -0.0449  0.1468 -0.0676
 4059TIP3   OH233667   1.695   6.298   2.785  0.2073  0.1354 -0.3409
 4059TIP3    H133668   1.718   6.353   2.710 -0.9714  0.5201 -0.4323
 4059TIP3    H233669   1.600   6.285   2.778 -0.0409  0.7581  1.4663
 4060TIP3   OH233670   0.535   5.950  16.204 -0.0564 -0.1242 -0.0271
 4060TIP3    H133671   0.589   5.897  16.262 -1.6099 -0.5517  1.1116
 4060TIP3    H233672   0.546   6.040  16.234 -0.8680 -0.3468  0.9944
 4061TIP3   OH233673   1.634   6.433  11.863  0.2573 -0.2382  0.3756
 4061TIP3    H133674   1.569   6.435  11.793  1.1107  0.9006 -0.4176
 4061TIP3    H233675   1.626   6.518  11.906  1.5282  0.1149 -0.0407
 4062TIP3   OH233676   6.098   5.438   1.077 -0.0070 -0.1642  0.1248
 4062TIP3    H133677   6.149   5.392   1.144 -0.2838 -1.2697 -0.3963
 4062TIP3    H233678   6.160   5.499   1.037  0.7480 -1.0465 -0.0783
 4063TIP3   OH233679   1.490   3.164  15.360 -0.5268 -0.4413 -0.0041
 4063TIP3    H133680   1.569   3.176  15.307 -0.2786 -0.1783  0.4176
 4063TIP3    H233681   1.519   3.115  15.436 -0.6599  0.1037  0.4058
 4064TIP3   OH233682   6.647   0.548   4.718  0.0247  0.0022 -0.0602
 4064TIP3    H133683   6.599   0.630   4.722  0.5020  0.3732 -1.4425
 4064TIP3    H233684   6.638   0.519   4.627  0.6630 -0.9905  0.1700
 4065TIP3   OH233685   4.795   3.429   4.859  0.0314  0.0312  0.4331
 4065TIP3    H133686   4.750   3.512   4.848  0.9892  0.3874 -1.3189
 4065TIP3    H233687   4.866   3.447   4.920 -0.7752  0.0575  1.3723
 4066TIP3   OH233688   4.822   5.950  16.742 -0.0158  0.1752 -0.4710
 4066TIP3    H133689   4.902   5.909  16.709 -0.9303 -0.2215 -2.3831
 4066TIP3    H233690   4.781   5.986  16.663 -2.5935 -1.1931  0.1394
 4067TIP3   OH233691   2.167   4.931  12.617  0.4758 -0.3588  0.4237
 4067TIP3    H133692   2.247   4.878  12.620  0.4691 -0.3891  0.0849
 4067TIP3    H233693   2.149   4.941  12.524  1.0493  1.0967  0.4439
 4068TIP3   OH233694   3.652   2.601  14.549 -0.2307 -0.4245 -0.3178
 4068TIP3    H133695   3.662   2.577  14.457 -2.9957  1.1275 -1.1471
 4068TIP3    H233696   3.601   2.529  14.587  1.2962 -1.2841  0.1570
 4069TIP3   OH233697   2.281   5.569   3.514  0.4778 -0.4500  0.1730
 4069TIP3    H133698   2.342   5.613   3.573 -0.6343  0.3793  0.7557
 4069TIP3    H233699   2.261   5.635   3.447  0.6043 -0.8824 -0.2917
 4070TIP3   OH233700   3.576   6.044   1.232  0.1282  0.0409 -0.0104
 4070TIP3    H133701   3.509   6.074   1.293  1.9773  1.6053  1.3928
 4070TIP3    H233702   3.561   6.096   1.153  0.5461  1.4796  0.8193
 4071TIP3   OH233703   3.868   1.532   0.153  0.0383 -0.2647  0.2846
 4071TIP3    H133704   3.867   1.582   0.071 -1.1401  2.6272  1.9020
 4071TIP3    H233705   3.961   1.513   0.167  0.3557 -0.0618 -1.2584
 4072TIP3   OH233706   5.720   2.197   3.994  0.1569 -0.2288  0.3532
 4072TIP3    H133707   5.674   2.243   3.923  1.2130  1.6587  0.8264
 4072TIP3    H233708   5.658   2.130   4.023 -1.2912  0.6031 -0.6751
 4073TIP3   OH233709   0.823   5.734   3.200 -0.1782  0.3767  0.0715
 4073TIP3    H133710   0.766   5.684   3.258  1.2716  1.0482  2.2244
 4073TIP3    H233711   0.911   5.718   3.233  0.6318  1.5612 -1.3734
 4074TIP3   OH233712   3.623   4.260  16.592 -0.3239 -0.1212 -0.1935
 4074TIP3    H133713   3.719   4.264  16.600 -0.3587  1.9096 -0.1837
 4074TIP3    H233714   3.591   4.321  16.659 -1.6818 -1.2861  0.2749
 4075TIP3   OH233715   2.054   1.945  16.390  0.3322 -0.2638 -0.4528
 4075TIP3    H133716   2.131   1.936  16.446 -1.3200 -0.1418  1.9878
 4075TIP3    H233717   2.006   2.019  16.427 -1.8150 -1.4380 -0.7698
 4076TIP3   OH233718   3.734   1.667   5.985  0.1120 -0.3885  0.5228
 4076TIP3    H133719   3.730   1.690   6.078  1.5837 -1.0297  0.7709
 4076TIP3    H233720   3.710   1.575   5.982 -2.1469  0.1515 -0.0419
 4077TIP3   OH233721   4.323   6.463   0.342 -0.7138 -0.2630  0.2241
 4077TIP3    H133722   4.344   6.458   0.249  0.7246 -2.9935  0.5942
 4077TIP3    H233723   4.271   6.384   0.359 -0.4964 -0.1013  1.8309
 4078TIP3   OH233724   1.600   4.755  11.130 -0.4988 -0.0962 -0.4283
 4078TIP3    H133725   1.584   4.730  11.220 -1.2354  0.3172 -0.4340
 4078TIP3    H233726   1.636   4.676  11.089  0.0175 -0.2274  0.2656
 4079TIP3   OH233727   6.241   3.885   5.629 -0.2862 -0.3300  0.0069
 4079TIP3    H133728   6.162   3.939   5.640 -0.2302  0.2533 -2.0932
 4079TIP3    H233729   6.267   3.898   5.538  2.5051 -0.1848  0.7458
 4080TIP3   OH233730   5.453   2.653  13.434  0.4129  0.3943 -0.2747
 4080TIP3    H133731   5.514   2.717  13.470  0.1014  0.6098 -0.1290
 4080TIP3    H233732   5.508   2.593  13.384  0.7266  0.6725 -0.2654
 4081TIP3   OH233733   4.877   3.562   4.020  0.1205 -0.0781  1.0055
 4081TIP3    H133734   4.802   3.503   4.018 -0.9977  1.3140  0.4843
 4081TIP3    H233735   4.857   3.623   4.091  0.1763  1.0262  0.0918
 4082TIP3   OH233736   1.899   0.631   1.897  0.4602 -0.3094 -0.1116
 4082TIP3    H133737   1.825   0.670   1.851  0.0171 -0.1033  0.7460
 4082TIP3    H233738   1.968   0.697   1.893  0.1285  0.0671  0.2654
 4083TIP3   OH233739   2.797   6.376   5.215  0.4907  0.6628  0.1570
 4083TIP3    H133740   2.823   6.423   5.136  1.3347 -1.2280 -0.7619
 4083TIP3    H233741   2.867   6.395   5.278  2.7234 -1.9085 -1.3116
 4084TIP3   OH233742   5.938   1.730  10.539  0.0535  0.4082 -0.1333
 4084TIP3    H133743   5.968   1.679  10.464  2.5186  2.0423 -0.3775
 4084TIP3    H233744   6.003   1.711  10.607 -2.2449 -1.2114  1.7739
 4085TIP3   OH233745   1.111   6.524   2.219  0.0444  0.0257  0.1616
 4085TIP3    H133746   1.051   6.462   2.177 -0.4311 -0.6786  1.8032
 4085TIP3    H233747   1.105   6.603   2.165  0.2103 -1.1147 -1.6395
 4086TIP3   OH233748   2.308   1.511   1.965  0.0421  0.6448  0.1701
 4086TIP3    H133749   2.376   1.548   2.021 -0.9561  0.9781  1.2220
 4086TIP3    H233750   2.293   1.576   1.897 -0.0016  1.0880  0.5971
 4087TIP3   OH233751   0.873   6.303   0.741  0.7993  0.1846 -0.5533
 4087TIP3    H133752   0.878   6.264   0.654 -0.4384  0.5734 -0.8159
 4087TIP3    H233753   0.785   6.338   0.747  0.2079 -1.4323  1.5499
 4088TIP3   OH233754   5.910   5.510   0.444  0.2771 -0.1543 -0.0005
 4088TIP3    H133755   5.899   5.598   0.479 -0.6495 -0.0913 -0.4137
 4088TIP3    H233756   5.919   5.454   0.521 -0.8694  0.0894  0.3354
 4089TIP3   OH233757   6.674   3.737   0.820 -0.2934 -0.2057 -0.4166
 4089TIP3    H133758   6.714   3.796   0.884 -0.8170 -1.3599  1.0533
 4089TIP3    H233759   6.747   3.703   0.769  0.2695 -0.0425  0.2669
 4090TIP3   OH233760   1.315   0.157  12.597 -0.0802  0.2230  0.6590
 4090TIP3    H133761   1.230   0.193  12.570  0.4057  0.5109 -0.5488
 4090TIP3    H233762   1.313   0.066  12.568  0.4087  0.5088 -0.3122
 4091TIP3   OH233763   6.802   2.656   4.923 -0.0062 -0.2862  0.4265
 4091TIP3    H133764   6.763   2.576   4.889 -0.3498 -0.1864  0.5865
 4091TIP3    H233765   6.874   2.627   4.978 -0.7951 -0.5269  1.3521
 4092TIP3   OH233766   6.162   1.895   3.794  0.7211 -0.0112  0.1775
 4092TIP3    H133767   6.143   1.940   3.712  0.6884 -0.3759 -0.0164
 4092TIP3    H233768   6.233   1.945   3.834  0.4340  0.4282  0.1427
 4093TIP3   OH233769   4.950   0.390   2.333 -0.2045 -0.2569 -0.2833
 4093TIP3    H133770   4.911   0.464   2.286  1.1615  0.3817 -0.4475
 4093TIP3    H233771   4.874   0.338   2.361 -1.1186  0.0661 -1.9970
 4094TIP3   OH233772   1.166   2.305  16.518  0.1007  0.5453 -0.1386
 4094TIP3    H133773   1.138   2.365  16.587  1.8362 -0.4058  1.4862
 4094TIP3    H233774   1.261   2.295  16.532  0.0729 -1.6081 -1.1013
 4095TIP3   OH233775   1.426   0.168  11.597 -0.4507 -0.3518  0.7924
 4095TIP3    H133776   1.423   0.072  11.600 -0.2602 -0.3987 -0.0996
 4095TIP3    H233777   1.465   0.188  11.511 -1.0753  0.5303  0.6954
 4096TIP3   OH233778   3.924   5.377  12.453 -0.2191 -0.2653 -0.2807
 4096TIP3    H133779   3.872   5.457  12.449 -0.1013 -0.1586  0.3209
 4096TIP3    H233780   3.902   5.337  12.537 -0.3790 -0.9405 -0.6308
 4097TIP3   OH233781   3.134   4.523   5.153  0.1308 -0.1140 -0.1865
 4097TIP3    H133782   3.067   4.560   5.211  1.1829  0.0926  0.9511
 4097TIP3    H233783   3.168   4.448   5.202  0.9944  0.0217 -0.5704
 4098TIP3   OH233784   0.288   1.567  16.912 -0.1873 -0.0408  0.0869
 4098TIP3    H133785   0.227   1.543  16.982 -0.2736  0.3026  0.1289
 4098TIP3    H233786   0.254   1.523  16.834  0.4448 -1.2175  0.4534
 4099TIP3   OH233787   5.183   5.521  13.802  0.0671  0.0209  0.2227
 4099TIP3    H133788   5.256   5.502  13.743 -1.4106  0.4588 -1.9003
 4099TIP3    H233789   5.165   5.614  13.789 -1.5562 -0.3062 -0.2516
 4100TIP3   OH233790   1.839   1.840  15.469 -0.8782 -0.1065  0.8451
 4100TIP3    H133791   1.802   1.899  15.404 -2.6185 -2.0981 -0.1076
 4100TIP3    H233792   1.901   1.786  15.420 -0.7174 -0.3260  1.2836
 4101TIP3   OH233793   3.499   5.641  14.356 -0.6485 -0.0519  0.0783
 4101TIP3    H133794   3.458   5.599  14.281  0.6046  1.9102 -1.8083
 4101TIP3    H233795   3.589   5.608  14.357 -0.5881  0.1147  0.5589
 4102TIP3   OH233796   0.758   3.322   4.616 -0.1429 -0.0351 -0.3183
 4102TIP3    H133797   0.788   3.406   4.650 -1.2525  0.3579 -0.2475
 4102TIP3    H233798   0.801   3.313   4.531  1.4472 -0.2896  0.4836
 4103TIP3   OH233799   5.222   3.027  15.983 -0.4825 -0.2945 -0.1500
 4103TIP3    H133800   5.312   2.993  15.987 -0.4923 -0.3074 -0.0257
 4103TIP3    H233801   5.204   3.037  15.890 -0.1594  0.2201 -0.1628
 4104TIP3   OH233802   4.100   1.732   5.212  0.1293  0.0448 -0.3039
 4104TIP3    H133803   4.186   1.728   5.253 -0.6120  1.0692  1.4457
 4104TIP3    H233804   4.098   1.656   5.154  1.9581 -0.3594  0.0952
 4105TIP3   OH233805   4.022   3.426   4.126 -0.0249 -0.6908  0.5082
 4105TIP3    H133806   4.065   3.341   4.125 -0.3671 -0.8652  0.1874
 4105TIP3    H233807   4.045   3.464   4.211  1.2648 -0.5033  0.0873
 4106TIP3   OH233808   3.558   1.234  16.308 -0.4066 -0.1038 -0.1585
 4106TIP3    H133809   3.536   1.306  16.367 -0.4016  1.5858 -2.0777
 4106TIP3    H233810   3.644   1.256  16.274  0.2214 -1.7861  0.2411
 4107TIP3   OH233811   2.963   2.894  15.792 -0.0441 -0.2702  0.1065
 4107TIP3    H133812   2.982   2.975  15.839  2.1684  0.6549 -2.1630
 4107TIP3    H233813   2.898   2.919  15.726  0.5789 -0.3548 -0.5446
 4108TIP3   OH233814   4.127   4.718   6.727  0.5061  0.3443 -0.5494
 4108TIP3    H133815   4.174   4.801   6.729 -0.5191  0.9458  0.0020
 4108TIP3    H233816   4.150   4.676   6.810  0.5207  0.3733 -0.5387
 4109TIP3   OH233817   2.126   4.490   3.779 -0.0385  0.3188 -0.0685
 4109TIP3    H133818   2.161   4.560   3.723 -0.4467  2.2837  1.9955
 4109TIP3    H233819   2.052   4.455   3.730  0.5406  0.9029 -1.4196
 4110TIP3   OH233820   1.800   3.982   4.529  0.6349  0.2681  0.4364
 4110TIP3    H133821   1.810   4.056   4.589 -0.6450  0.5826  0.2761
 4110TIP3    H233822   1.714   3.946   4.548 -0.3170  1.0804 -1.9477
 4111TIP3   OH233823   1.452   2.222  13.672 -0.4441 -0.1305  0.7063
 4111TIP3    H133824   1.534   2.230  13.624 -0.4473 -0.5173  0.6323
 4111TIP3    H233825   1.437   2.128  13.678 -1.7084 -0.0346 -0.6617
 4112TIP3   OH233826   3.269   6.502  14.534 -0.0653 -0.2573 -0.2161
 4112TIP3    H133827   3.178   6.532  14.535  0.2581  0.7402  0.3751
 4112TIP3    H233828   3.321   6.582  14.544  0.8309 -0.9508  1.0145
 4113TIP3   OH233829   1.224   2.201   3.197 -0.1776  0.6769 -0.0515
 4113TIP3    H133830   1.291   2.259   3.161 -1.2511  2.4818  0.6716
 4113TIP3    H233831   1.164   2.186   3.125  0.6177 -0.3674 -0.5094
 4114TIP3   OH233832   4.972   4.580   3.456 -0.4002 -0.2170  0.1253
 4114TIP3    H133833   4.964   4.554   3.547  0.0430  0.6627  0.4309
 4114TIP3    H233834   4.903   4.532   3.410 -2.2360  1.1488  1.3250
 4115TIP3   OH233835   2.117   5.256  11.582 -0.2197 -0.3154 -0.1643
 4115TIP3    H133836   2.167   5.335  11.560  0.7415 -0.5496  1.0907
 4115TIP3    H233837   2.183   5.192  11.607 -0.9596 -1.6608 -1.4675
 4116TIP3   OH233838   3.558   3.709   3.434 -0.4377  0.2430  0.1042
 4116TIP3    H133839   3.568   3.619   3.464  1.0616  0.3859  0.1160
 4116TIP3    H233840   3.517   3.755   3.507  2.5226  0.4429  1.7847
 4117TIP3   OH233841   1.419   5.238  11.869  0.2574 -0.4370  0.2147
 4117TIP3    H133842   1.391   5.168  11.928  0.7808 -0.5903  0.2826
 4117TIP3    H233843   1.495   5.277  11.912 -0.3403  0.5145  0.4287
 4118TIP3   OH233844   0.273   4.675   4.869 -0.0779  0.0509 -0.4646
 4118TIP3    H133845   0.319   4.690   4.952  0.9113 -0.2900 -0.9458
 4118TIP3    H233846   0.233   4.760   4.849 -1.2562 -0.1293  0.8998
 4119TIP3   OH233847   0.249   2.644  13.305 -0.4427 -0.2082  0.1585
 4119TIP3    H133848   0.184   2.649  13.375 -1.1758 -0.5053 -0.4842
 4119TIP3    H233849   0.232   2.560  13.262 -1.1101  0.6760 -1.4061
 4120TIP3   OH233850   4.868   1.598  10.396 -0.9792 -0.4596  0.7747
 4120TIP3    H133851   4.881   1.692  10.382  0.1440  0.1108  4.5201
 4120TIP3    H233852   4.773   1.587  10.395 -1.1916  0.9953  1.5231
 4121TIP3   OH233853   1.352   5.575   6.345  0.5758 -0.9371  0.0113
 4121TIP3    H133854   1.433   5.613   6.312  0.2836 -1.4366 -1.3661
 4121TIP3    H233855   1.291   5.582   6.272 -1.5390  1.9574  1.8533
 4122TIP3   OH233856   0.628   2.145   0.262  0.1110  0.2992 -0.1751
 4122TIP3    H133857   0.545   2.184   0.237 -0.7859 -0.9826  0.6444
 4122TIP3    H233858   0.621   2.131   0.356  0.6801 -1.0721 -0.3021
 4123TIP3   OH233859   6.428   5.588   4.276 -0.3859  0.1319  0.0204
 4123TIP3    H133860   6.351   5.545   4.238 -0.6300 -0.6253  1.3475
 4123TIP3    H233861   6.409   5.594   4.369  1.1985 -0.1005  0.3777
 4124TIP3   OH233862   3.388   5.426   1.664 -0.8104 -0.6613  0.3985
 4124TIP3    H133863   3.311   5.373   1.684 -1.3923  0.3564  0.9479
 4124TIP3    H233864   3.382   5.442   1.570 -0.8722 -1.1955  0.3112
 4125TIP3   OH233865   1.413   1.764  16.180 -0.2762  0.0215  0.4358
 4125TIP3    H133866   1.496   1.717  16.178 -0.4916 -0.3493  0.0057
 4125TIP3    H233867   1.432   1.844  16.229  0.9154  1.0168 -1.5266
 4126TIP3   OH233868   3.438   0.965  13.256 -0.2100  0.2179 -0.4416
 4126TIP3    H133869   3.432   1.057  13.282 -0.2151  0.5026 -1.3930
 4126TIP3    H233870   3.420   0.966  13.162 -0.4641 -0.7902 -0.4132
 4127TIP3   OH233871   5.623   5.697  15.560 -0.0477  0.0200  0.2686
 4127TIP3    H133872   5.583   5.651  15.486 -0.5656  1.8809 -0.6696
 4127TIP3    H233873   5.717   5.683  15.549 -0.1795 -0.6120 -0.1109
 4128TIP3   OH233874   5.742   0.618   4.068 -0.2438 -0.2233  0.0667
 4128TIP3    H133875   5.782   0.599   4.153 -0.3736 -0.6546  0.0332
 4128TIP3    H233876   5.809   0.667   4.020  0.7128 -1.9497 -0.4363
 4129TIP3   OH233877   4.733   2.658  12.782  0.5368  0.0650 -0.1009
 4129TIP3    H133878   4.733   2.563  12.784  1.2625  0.0647  0.2220
 4129TIP3    H233879   4.640   2.683  12.789  0.3755 -0.6041  0.1695
 4130TIP3   OH233880   5.985   1.629   1.242  0.7526  0.1944 -0.1134
 4130TIP3    H133881   6.049   1.559   1.252 -0.5588 -0.9936  0.2647
 4130TIP3    H233882   5.970   1.661   1.331 -0.5842 -0.8684  0.0785
 4131TIP3   OH233883   5.120   6.659   3.659  0.3004  0.0894  0.0004
 4131TIP3    H133884   5.187   6.673   3.726 -0.1293  0.5045  0.3466
 4131TIP3    H233885   5.168   6.669   3.576  0.5285  1.1207  0.2441
 4132TIP3   OH233886   1.147   5.887   3.008 -0.1280 -0.4022  0.0195
 4132TIP3    H133887   1.102   5.851   3.085  0.6860 -2.3114 -0.3459
 4132TIP3    H233888   1.214   5.945   3.044  0.1059 -1.1129  0.7499
 4133TIP3   OH233889   3.244   3.534   1.463  0.4855  0.2697  0.3148
 4133TIP3    H133890   3.267   3.617   1.505  0.7676  0.1580  0.3822
 4133TIP3    H233891   3.179   3.495   1.522 -0.3401  0.8704 -0.1938
 4134TIP3   OH233892   2.775   3.265   4.107  0.7973 -0.2980  0.2021
 4134TIP3    H133893   2.758   3.176   4.073 -0.4950 -0.0049  0.0148
 4134TIP3    H233894   2.813   3.312   4.032 -1.8138  0.2744 -0.8706
 4135TIP3   OH233895   4.876   0.292   0.712  0.1174 -0.1678  0.1194
 4135TIP3    H133896   4.903   0.267   0.624 -0.8073 -1.4994  0.1838
 4135TIP3    H233897   4.848   0.383   0.703  1.3234  0.1536 -0.6492
 4136TIP3   OH233898   2.739   2.734   6.046 -0.1682  0.0905 -0.0928
 4136TIP3    H133899   2.661   2.724   6.101  0.6983 -1.7604  0.9194
 4136TIP3    H233900   2.751   2.648   6.006  1.4267  0.2696 -0.0779
 4137TIP3   OH233901   2.182   6.682  11.720  0.0563 -0.5219 -0.3733
 4137TIP3    H133902   2.129   6.762  11.724 -1.0328 -1.1404 -1.8319
 4137TIP3    H233903   2.265   6.710  11.681 -0.2393 -0.0717 -0.6832
 4138TIP3   OH233904   6.207   0.150   0.864 -0.0016 -0.6870 -0.3095
 4138TIP3    H133905   6.297   0.156   0.830  0.3754 -1.4533  0.5196
 4138TIP3    H233906   6.167   0.233   0.838  0.8101 -0.5078 -1.0644
 4139TIP3   OH233907   1.057   3.230  15.746  0.0258  0.1702 -0.6500
 4139TIP3    H133908   1.088   3.165  15.683  0.2994  1.3894 -1.8161
 4139TIP3    H233909   0.968   3.202  15.768  0.4726 -1.1220 -0.3620
 4140TIP3   OH233910   2.548   3.207   5.800  0.4131 -0.1548 -0.0757
 4140TIP3    H133911   2.477   3.234   5.858  2.0527 -0.7255  2.3420
 4140TIP3    H233912   2.505   3.187   5.717 -1.7030  3.4536 -0.0462
 4141TIP3   OH233913   3.395   6.076  12.431 -0.4426  0.1484 -0.2719
 4141TIP3    H133914   3.406   6.098  12.339  0.4192  0.3102 -0.1325
 4141TIP3    H233915   3.327   6.136  12.462  0.4821  1.2814 -0.3877
 4142TIP3   OH233916   3.129   1.939   1.367  0.0617 -0.0011  0.2664
 4142TIP3    H133917   3.132   1.854   1.412  0.1784 -0.2432 -0.1992
 4142TIP3    H233918   3.193   1.932   1.297 -0.6978  0.0784 -0.4620
 4143TIP3   OH233919   3.422   1.628  11.265  0.1778 -0.0589 -0.4858
 4143TIP3    H133920   3.488   1.595  11.204 -0.3043 -1.0652 -0.4918
 4143TIP3    H233921   3.471   1.683  11.326  0.9220 -0.2800 -0.8765
 4144TIP3   OH233922   6.777   6.807  10.365  0.1531  0.4019 -0.0307
 4144TIP3    H133923   6.844   6.751  10.405  0.8654  1.4122  0.2510
 4144TIP3    H233924   6.734   6.751  10.301  0.8203 -0.4682  0.2577
 4145TIP3   OH233925   2.514   6.449  14.422  0.5828  0.1001  0.5859
 4145TIP3    H133926   2.519   6.374  14.482 -0.9208 -0.7242 -0.2524
 4145TIP3    H233927   2.600   6.454  14.382  1.0486 -0.4618  1.4932
 4146TIP3   OH233928   0.643   2.560  14.139 -0.2492  0.3432 -0.3469
 4146TIP3    H133929   0.609   2.618  14.208 -2.3873  1.9021 -2.5746
 4146TIP3    H233930   0.738   2.573  14.143 -0.2209 -0.1104  2.6570
 4147TIP3   OH233931   5.370   1.054   2.105 -0.1140 -0.0990  0.4651
 4147TIP3    H133932   5.461   1.025   2.102  0.4447  1.6108 -0.3493
 4147TIP3    H233933   5.370   1.138   2.059 -1.7269  0.9249  2.1939
 4148TIP3   OH233934   1.548   1.554  12.481 -0.2839 -0.1297 -0.1249
 4148TIP3    H133935   1.629   1.582  12.525 -1.1120  1.3737  0.4943
 4148TIP3    H233936   1.575   1.532  12.392  0.3542  3.5483 -0.9971
 4149TIP3   OH233937   5.033   5.395   2.747 -0.1820  0.8704  0.2449
 4149TIP3    H133938   5.110   5.374   2.696 -0.5590  0.2347 -0.0728
 4149TIP3    H233939   5.051   5.359   2.834 -0.2177  0.5059  0.1037
 4150TIP3   OH233940   4.537   4.047  14.959  0.0205 -0.3969  0.6978
 4150TIP3    H133941   4.497   4.018  14.878 -1.6170 -1.1579  1.7242
 4150TIP3    H233942   4.477   4.115  14.992  0.2501 -0.6367  1.6308
 4151TIP3   OH233943   1.714   5.320   5.739  0.4265 -0.2327 -0.1664
 4151TIP3    H133944   1.695   5.400   5.789 -0.2829 -0.4768 -0.0329
 4151TIP3    H233945   1.707   5.250   5.803  3.0066 -0.2636  0.1685
 4152TIP3   OH233946   4.650   0.340  17.115  0.2904  0.0527  0.2659
 4152TIP3    H133947   4.654   0.411  17.180  1.6651 -0.2795  0.5655
 4152TIP3    H233948   4.564   0.351  17.074 -1.0060 -0.2009  2.6876
 4153TIP3   OH233949   1.127   1.942  14.737 -0.0072  0.3688 -0.2521
 4153TIP3    H133950   1.061   1.994  14.782  0.6452  0.3462  0.7746
 4153TIP3    H233951   1.211   1.979  14.765  0.4297 -0.0586 -0.9553
 4154TIP3   OH233952   4.764   1.649   4.206  0.3874  0.1305 -0.4679
 4154TIP3    H133953   4.843   1.697   4.228  0.5686 -0.4650  0.2062
 4154TIP3    H233954   4.788   1.596   4.130  0.5682  0.1348 -0.4131
 4155TIP3   OH233955   2.199   4.089  14.833 -0.0266  0.0264  0.1382
 4155TIP3    H133956   2.146   4.037  14.894  0.1853  0.9066  1.1146
 4155TIP3    H233957   2.289   4.068  14.857  0.0575  0.4997  0.2426
 4156TIP3   OH233958   1.112   2.168  13.179  0.0375 -0.1443 -0.4015
 4156TIP3    H133959   1.089   2.078  13.205 -2.1529 -0.3064 -2.4961
 4156TIP3    H233960   1.094   2.221  13.257  0.5055 -1.3936  0.5900
 4157TIP3   OH233961   4.238   6.646   1.867  0.3487  0.4759 -0.3774
 4157TIP3    H133962   4.330   6.654   1.840  0.5132 -2.1488 -0.8454
 4157TIP3    H233963   4.242   6.649   1.963  1.0532 -0.3881 -0.3612
 4158TIP3   OH233964   1.735   2.465  16.678 -0.0656  0.0964  0.1078
 4158TIP3    H133965   1.731   2.529  16.607  0.6839 -1.2867 -1.2327
 4158TIP3    H233966   1.828   2.444  16.686 -0.3912 -1.7987 -0.4481
 4159TIP3   OH233967   0.112   0.322   4.701  0.4894 -0.0268  0.4197
 4159TIP3    H133968   0.092   0.327   4.607 -0.8171 -1.5698  0.5869
 4159TIP3    H233969   0.137   0.231   4.716 -0.6229 -0.1395  1.7958
 4160TIP3   OH233970   2.675   3.348  14.906 -0.0940  0.3075 -0.2362
 4160TIP3    H133971   2.673   3.252  14.905 -2.4341  0.3023  0.0938
 4160TIP3    H233972   2.703   3.370  14.995 -0.6583 -0.0826  0.0439
 4161TIP3   OH233973   2.524   0.624   3.841 -0.1061 -0.1023 -0.5137
 4161TIP3    H133974   2.430   0.634   3.856 -0.2444 -0.1811 -1.2873
 4161TIP3    H233975   2.534   0.533   3.814  0.2236 -0.1452 -0.2600
 4162TIP3   OH233976   1.682   2.655  16.934 -0.1166 -0.0428 -0.3954
 4162TIP3    H133977   1.685   2.723  16.866  0.2622 -0.6318 -0.9788
 4162TIP3    H233978   1.640   2.580  16.891 -2.1462  0.3661  0.7454
 4163TIP3   OH233979   4.180   1.244   2.284  0.0431 -0.1059  0.6582
 4163TIP3    H133980   4.189   1.267   2.191 -1.0780  1.3267  0.8512
 4163TIP3    H233981   4.267   1.217   2.311  0.8052  1.1510 -0.4031
 4164TIP3   OH233982   3.838   1.170   4.774 -0.3566  0.2444 -0.0971
 4164TIP3    H133983   3.895   1.169   4.697 -0.2064 -0.6070  0.0178
 4164TIP3    H233984   3.868   1.096   4.827 -1.0834  0.2402  0.3235
 4165TIP3   OH233985   3.158   3.542  14.546 -0.5474 -0.1996  0.1818
 4165TIP3    H133986   3.165   3.493  14.628  0.1593 -1.6641 -0.7125
 4165TIP3    H233987   3.075   3.514  14.508 -1.1162  0.8571  0.6133
 4166TIP3   OH233988   0.462   3.181   5.840 -0.6370  0.3237 -0.3410
 4166TIP3    H133989   0.513   3.100   5.848  1.5039  1.5670 -0.6556
 4166TIP3    H233990   0.523   3.250   5.863 -1.5365  2.0743 -2.8067
 4167TIP3   OH233991   1.607   4.742   6.225 -0.4864  0.5281 -0.3055
 4167TIP3    H133992   1.522   4.729   6.267  0.6071 -1.2812  1.5337
 4167TIP3    H233993   1.593   4.718   6.134 -1.7360 -0.7641  0.1947
 4168TIP3   OH233994   3.746   2.256  16.041  1.0175  0.0297 -0.3822
 4168TIP3    H133995   3.797   2.283  15.965  1.5093  0.2566  0.0275
 4168TIP3    H233996   3.737   2.335  16.094 -0.7042  0.2728 -0.9761
 4169TIP3   OH233997   2.711   1.117  12.682 -0.3294 -0.6534 -0.0150
 4169TIP3    H133998   2.698   1.125  12.587 -0.6769  1.8051  0.1699
 4169TIP3    H233999   2.623   1.129  12.719  0.2525  1.8601  0.7052
 4170TIP3   OH234000   2.388   6.005  12.411  0.1926 -0.0581  0.7555
 4170TIP3    H134001   2.299   6.020  12.378  0.0332  0.3923  1.3639
 4170TIP3    H234002   2.442   5.999  12.333 -0.1694  1.0030  0.4111
 4171TIP3   OH234003   2.552   3.553  17.020 -0.7910  0.3255  0.6991
 4171TIP3    H134004   2.459   3.535  17.007 -0.4177 -1.6839  0.4873
 4171TIP3    H234005   2.564   3.641  16.986 -2.3846  0.1549 -0.4321
 4172TIP3   OH234006   2.126   1.424   1.653 -0.3061  0.1746  0.0243
 4172TIP3    H134007   2.077   1.454   1.730  0.2681 -1.3728  1.0144
 4172TIP3    H234008   2.117   1.497   1.591 -0.5609  1.5820  1.6186
 4173TIP3   OH234009   6.480   4.613   5.503 -0.1949  0.2637 -0.1307
 4173TIP3    H134010   6.521   4.603   5.417 -0.6585 -2.6723 -0.1351
 4173TIP3    H234011   6.544   4.661   5.555  0.5578  1.1487 -1.8100
 4174TIP3   OH234012   4.145   6.413   4.384  0.6072  0.3826  0.0170
 4174TIP3    H134013   4.139   6.509   4.389 -1.0219  0.3366 -0.6734
 4174TIP3    H234014   4.121   6.383   4.472 -0.3534  0.5577 -0.1826
 4175TIP3   OH234015   1.449   1.650  11.916 -0.4432 -0.4124 -0.5669
 4175TIP3    H134016   1.413   1.579  11.969 -0.7818 -0.2968 -0.6410
 4175TIP3    H234017   1.383   1.719  11.920  0.3854  0.3655  0.4797
 4176TIP3   OH234018   2.304   1.946   3.485  0.0544 -0.3738  0.2205
 4176TIP3    H134019   2.379   1.912   3.435  1.2975  0.5266  1.3937
 4176TIP3    H234020   2.246   1.984   3.419  1.9720  1.3959 -0.5635
 4177TIP3   OH234021   0.910   3.162  11.332 -0.0923  0.3300 -0.2128
 4177TIP3    H134022   0.946   3.209  11.407  0.6791  0.0126 -0.3795
 4177TIP3    H234023   0.986   3.143  11.277 -0.6666  0.6920 -1.1540
 4178TIP3   OH234024   6.646   3.078  16.015 -0.0797  0.1720  0.0771
 4178TIP3    H134025   6.563   3.093  16.059 -0.3293  0.0934 -0.3603
 4178TIP3    H234026   6.696   3.158  16.030 -0.2611  0.2433  0.2888
 4179TIP3   OH234027   6.736   0.704  15.899 -0.0142 -0.6920 -0.2560
 4179TIP3    H134028   6.764   0.620  15.936 -0.7400 -1.0107 -0.4046
 4179TIP3    H234029   6.642   0.692  15.880 -0.8738  1.0307  2.3142
 4180TIP3   OH234030   4.743   6.575  12.094  0.1285  0.0625  0.4852
 4180TIP3    H134031   4.759   6.630  12.171  2.0782 -0.4577  0.5111
 4180TIP3    H234032   4.784   6.491  12.116  1.2675  0.0843 -1.3117
 4181TIP3   OH234033   0.164   4.899   5.533  0.3991  0.0503  0.2925
 4181TIP3    H134034   0.153   4.972   5.472  0.1555  0.0485  0.3337
 4181TIP3    H234035   0.091   4.908   5.594  0.5998  0.0070  0.5384
 4182TIP3   OH234036   2.631   4.842  14.907  0.5091  0.3211 -0.2163
 4182TIP3    H134037   2.637   4.938  14.908 -0.3499  0.3802 -0.3502
 4182TIP3    H234038   2.551   4.822  14.955 -0.4640 -0.2188 -1.9933
 4183TIP3   OH234039   6.601   4.321   1.506 -0.4488 -0.3986 -0.5817
 4183TIP3    H134040   6.555   4.402   1.529 -0.9272 -0.6245 -0.7335
 4183TIP3    H234041   6.550   4.251   1.547 -0.6893 -0.7177 -1.3955
 4184TIP3   OH234042   5.083   6.305  14.049  0.0705  0.5291  0.3199
 4184TIP3    H134043   5.046   6.393  14.038  0.3733  0.7578  1.0761
 4184TIP3    H234044   5.176   6.319  14.067  0.1587  0.0442  0.2653
 4185TIP3   OH234045   3.062   0.979   3.229 -0.3965 -0.2780 -0.3356
 4185TIP3    H134046   3.142   0.988   3.177 -0.3713  0.9420 -0.1272
 4185TIP3    H234047   3.066   1.053   3.290 -0.7764 -1.2773  0.9265
 4186TIP3   OH234048   4.591   2.704   3.066 -0.3975  0.3423  0.6351
 4186TIP3    H134049   4.544   2.705   2.983 -0.4883 -0.7479  0.6628
 4186TIP3    H234050   4.638   2.621   3.066  3.2093  2.1961 -0.2816
 4187TIP3   OH234051   0.891   6.220  12.966 -0.1307 -0.3577 -0.4921
 4187TIP3    H134052   0.800   6.191  12.955 -1.4213  2.2061  2.0088
 4187TIP3    H234053   0.911   6.202  13.058  1.2758  0.6958 -0.5630
 4188TIP3   OH234054   2.629   5.550   1.466  0.0759 -0.1620 -0.3310
 4188TIP3    H134055   2.547   5.515   1.430 -0.7670  1.8942 -0.5406
 4188TIP3    H234056   2.606   5.579   1.554  0.9380 -0.7889  0.1138
 4189TIP3   OH234057   4.807   0.922  10.447  0.1086 -1.2416 -0.2395
 4189TIP3    H134058   4.886   0.944  10.497  0.0552  1.3555 -1.1429
 4189TIP3    H234059   4.839   0.890  10.363  0.2030 -1.0583 -0.2731
 4190TIP3   OH234060   6.808   5.533  15.015 -0.1756 -0.1933 -0.0838
 4190TIP3    H134061   6.728   5.557  14.969  0.5268 -0.9168 -1.8024
 4190TIP3    H234062   6.790   5.550  15.107 -2.6516 -1.2832 -0.3027
 4191TIP3   OH234063   3.055   3.950   4.916  0.5182  0.0242 -0.4878
 4191TIP3    H134064   3.062   3.957   4.821  1.1090 -0.1701 -0.4671
 4191TIP3    H234065   3.105   4.025   4.949  1.8251 -0.8717 -0.3271
 4192TIP3   OH234066   0.157   4.048  14.005  0.3598 -0.3882 -0.0233
 4192TIP3    H134067   0.219   4.091  13.946  0.4304 -0.5988 -0.1044
 4192TIP3    H234068   0.091   4.115  14.024  0.3117 -0.3325 -0.3760
 4193TIP3   OH234069   3.107   5.278   1.609  0.8537 -0.2076  0.1222
 4193TIP3    H134070   3.055   5.215   1.659  0.7252 -0.9342 -0.9209
 4193TIP3    H234071   3.075   5.271   1.519  2.4714 -0.3683 -0.4638
 4194TIP3   OH234072   0.761   1.919  15.805 -0.2306 -0.7510 -0.0371
 4194TIP3    H134073   0.694   1.920  15.874  1.0736  0.6456  1.2915
 4194TIP3    H234074   0.800   1.832  15.811 -1.3434 -1.2861 -0.2758
 4195TIP3   OH234075   6.579   3.229   0.135  0.1744 -0.1925 -0.0955
 4195TIP3    H134076   6.558   3.145   0.174 -2.8266 -0.1754 -1.3537
 4195TIP3    H234077   6.554   3.293   0.202 -1.7444 -0.2551 -0.6885
 4196TIP3   OH234078   5.755   2.500  14.656 -0.1206 -0.6340  0.1258
 4196TIP3    H134079   5.713   2.421  14.689 -0.2011 -1.6522 -2.2256
 4196TIP3    H234080   5.847   2.491  14.682 -0.5287 -0.3041  1.8674
 4197TIP3   OH234081   3.202   6.709   4.282  0.3542  0.3074  0.6998
 4197TIP3    H134082   3.199   6.718   4.186 -2.2480 -2.2268  0.3963
 4197TIP3    H234083   3.142   6.777   4.313 -0.0537  0.1044  0.3795
 4198TIP3   OH234084   6.069   3.871  11.693  0.1584 -0.6293  0.4586
 4198TIP3    H134085   6.089   3.955  11.735 -0.6135 -0.2991  0.1843
 4198TIP3    H234086   6.050   3.894  11.602 -0.0405 -1.1037  0.3783
 4199TIP3   OH234087   0.597   4.961   6.916 -0.0063  0.1170  0.1468
 4199TIP3    H134088   0.506   4.990   6.918  0.1201  0.5730 -0.3390
 4199TIP3    H234089   0.620   4.963   6.823  1.1126  2.0022  0.4192
 4200TIP3   OH234090   4.203   4.919   1.920  0.1648  0.1823  0.1235
 4200TIP3    H134091   4.252   4.939   1.840  1.1408  0.3002  0.7324
 4200TIP3    H234092   4.195   5.004   1.964  0.7466 -0.0804  0.7542
 4201TIP3   OH234093   4.039   6.367  13.670  0.1704  0.8050  0.0389
 4201TIP3    H134094   4.074   6.450  13.702  2.0945  0.8422 -1.9222
 4201TIP3    H234095   3.969   6.393  13.610 -0.6244  0.9011  0.9906
 4202TIP3   OH234096   2.064   6.704  14.193 -0.0283 -0.3511 -0.4194
 4202TIP3    H134097   2.055   6.661  14.108 -1.5054 -1.2119  0.1250
 4202TIP3    H234098   2.004   6.778  14.188 -1.8473 -1.6732  0.5861
 4203TIP3   OH234099   5.021   5.804  14.763 -0.1026 -0.1286  0.1725
 4203TIP3    H134100   4.943   5.795  14.708  0.4829 -1.9286 -0.4411
 4203TIP3    H234101   5.091   5.826  14.702  0.5214 -1.9733  0.1576
 4204TIP3   OH234102   0.586   5.130  12.676 -0.1299  0.8935  0.2028
 4204TIP3    H134103   0.505   5.115  12.626  0.5870  0.7319 -0.9415
 4204TIP3    H234104   0.585   5.063  12.744 -1.2182  1.2315  0.5403
 4205TIP3   OH234105   4.467   4.323  12.244  0.1021 -0.0484  0.3897
 4205TIP3    H134106   4.514   4.375  12.178 -0.7105 -0.8820 -0.8936
 4205TIP3    H234107   4.465   4.234  12.207 -0.0253 -0.6281  1.7396
 4206TIP3   OH234108   5.564   3.506  11.314 -0.6783  0.0988 -0.4846
 4206TIP3    H134109   5.545   3.461  11.231 -2.0529 -0.8785  0.3102
 4206TIP3    H234110   5.519   3.590  11.307 -0.2699  0.2800 -0.9694
 4207TIP3   OH234111   2.547   2.041   4.176  0.2389 -1.0375  0.6723
 4207TIP3    H134112   2.640   2.063   4.177  0.1381 -0.3160 -1.2422
 4207TIP3    H234113   2.505   2.114   4.222  0.4001  0.1523 -0.9762
 4208TIP3   OH234114   6.137   1.678  11.434 -0.0007 -0.3507 -0.4058
 4208TIP3    H134115   6.067   1.713  11.379  1.1917  1.1027 -1.0816
 4208TIP3    H234116   6.216   1.684  11.379  0.7398 -1.5324  0.4728
 4209TIP3   OH234117   1.364   4.292  13.007  0.4989 -0.3382  0.2920
 4209TIP3    H134118   1.330   4.331  12.927  0.2733  1.3588  1.1708
 4209TIP3    H234119   1.456   4.274  12.989  0.6789  0.8911 -0.0594
 4210TIP3   OH234120   0.139   5.127   5.343  0.3907 -0.0537 -1.0834
 4210TIP3    H134121   0.093   5.092   5.267  0.8612 -0.9901 -0.9551
 4210TIP3    H234122   0.072   5.133   5.411  0.1040  0.1876 -1.3871
 4211TIP3   OH234123   3.675   4.474   6.496  0.2476  0.2315 -1.1397
 4211TIP3    H134124   3.593   4.427   6.479  0.3858  0.3710 -2.2906
 4211TIP3    H234125   3.665   4.556   6.447  0.1734  1.2555  0.4905
 4212TIP3   OH234126   5.959   6.270  16.181 -0.0918 -0.0611  0.1476
 4212TIP3    H134127   5.881   6.307  16.224  0.1216 -0.0903  0.5627
 4212TIP3    H234128   5.923   6.221  16.107 -0.4863 -0.1967  0.4194
 4213TIP3   OH234129   5.707   3.686   2.204  0.0465  0.2566  0.1187
 4213TIP3    H134130   5.800   3.674   2.183  0.3223  0.6239  1.1041
 4213TIP3    H234131   5.705   3.704   2.298 -0.6971  3.5449 -0.3960
 4214TIP3   OH234132   0.019   3.474   6.108 -0.1878 -0.0544 -0.0561
 4214TIP3    H134133  -0.057   3.527   6.084 -1.1272  0.0455  2.7282
 4214TIP3    H234134  -0.014   3.414   6.175  2.2292  0.2505  1.5609
 4215TIP3   OH234135   0.843   1.000  12.843  0.0288 -0.3800 -0.0188
 4215TIP3    H134136   0.815   0.913  12.815 -0.7302  0.0183 -0.5223
 4215TIP3    H234137   0.937   0.991  12.858 -0.2544 -1.6070  1.1810
 4216TIP3   OH234138   1.350   0.427  11.521 -0.0904 -0.3745  0.2390
 4216TIP3    H134139   1.377   0.335  11.530 -0.2783 -0.3373  1.2938
 4216TIP3    H234140   1.265   0.431  11.567 -0.7361  0.0342 -0.9569
 4217TIP3   OH234141   1.868   1.012   5.654 -0.2036  0.5239  0.5704
 4217TIP3    H134142   1.958   1.042   5.672 -1.0236  2.6126  1.4710
 4217TIP3    H234143   1.841   1.062   5.578 -0.4580 -0.4681 -0.0024
 4218TIP3   OH234144   5.963   6.460  11.617 -0.4797 -0.2685  0.4933
 4218TIP3    H134145   5.983   6.394  11.684 -0.8840 -1.0512 -0.1455
 4218TIP3    H234146   5.876   6.436  11.585  1.3229 -2.5936 -3.3816
 4219TIP3   OH234147   6.582   4.217   5.509  0.3017  0.3186  0.8622
 4219TIP3    H134148   6.590   4.126   5.537 -2.3571 -1.9866 -4.4884
 4219TIP3    H234149   6.493   4.242   5.534  0.9438  1.4811  2.1061
 4220TIP3   OH234150   0.846   0.392   4.940  0.5319  0.1907 -0.2608
 4220TIP3    H134151   0.778   0.412   4.876 -0.7171 -1.3984  0.5084
 4220TIP3    H234152   0.891   0.476   4.954 -0.9966  1.1875 -1.0817
 4221TIP3   OH234153   1.862   1.515   2.595 -0.1486  0.0612 -0.0920
 4221TIP3    H134154   1.815   1.454   2.652  0.5171  0.9971  1.5373
 4221TIP3    H234155   1.874   1.467   2.513 -0.1692 -1.7797  0.9301
 4222TIP3   OH234156   0.165   5.991  14.940 -0.6116  0.0959  0.0532
 4222TIP3    H134157   0.234   5.999  14.874 -0.7989  2.3899  0.0234
 4222TIP3    H234158   0.213   5.990  15.023 -0.3968 -2.3805 -0.0436
 4223TIP3   OH234159   0.796   5.143   5.415  0.3672  0.5082  0.7940
 4223TIP3    H134160   0.736   5.088   5.364  3.7802 -1.4679 -1.4444
 4223TIP3    H234161   0.862   5.082   5.448  2.2211  2.7837  1.5485
 4224TIP3   OH234162   3.050   6.219   3.711  0.4725 -0.2206 -0.5623
 4224TIP3    H134163   3.110   6.189   3.643  1.0336  2.8112 -1.5697
 4224TIP3    H234164   3.104   6.227   3.789 -0.2601 -4.1149  0.5533
 4225TIP3   OH234165   1.779   3.438   2.883 -0.0087 -0.2139  0.0726
 4225TIP3    H134166   1.808   3.508   2.942 -0.7707 -1.2844  1.8153
 4225TIP3    H234167   1.859   3.388   2.864  0.3272  0.4138 -0.2059
 4226TIP3   OH234168   5.236   4.310  16.938 -0.9108  0.5763 -0.1886
 4226TIP3    H134169   5.259   4.255  16.863 -1.4236 -0.2742  0.2528
 4226TIP3    H234170   5.160   4.360  16.909 -0.9489  0.4402 -0.3280
 4227TIP3   OH234171   4.418   0.524  15.139 -0.4526 -0.1419  0.1030
 4227TIP3    H134172   4.346   0.468  15.111 -0.4752  0.3544 -0.9121
 4227TIP3    H234173   4.485   0.513  15.070  0.9546 -1.4864  1.5947
 4228TIP3   OH234174   6.565   1.848   2.784 -0.1993  0.1006  0.2231
 4228TIP3    H134175   6.499   1.819   2.847 -0.1955 -0.7500 -0.1482
 4228TIP3    H234176   6.643   1.865   2.837 -0.5132  0.4680  0.5791
 4229TIP3   OH234177   1.764   5.725   2.604  0.3628  0.2767 -0.2120
 4229TIP3    H134178   1.737   5.763   2.687  2.2166  0.3686  0.4135
 4229TIP3    H234179   1.696   5.662   2.583 -2.4004  3.2199 -0.8612
 4230TIP3   OH234180   0.027   5.012   5.121 -0.5208 -0.2496  0.0259
 4230TIP3    H134181   0.058   5.066   5.048 -1.3618  0.8355  0.4259
 4230TIP3    H234182  -0.061   4.984   5.094 -0.4128 -0.7349  0.1739
 4231TIP3   OH234183   4.189   4.455  11.958  0.3095 -0.4501 -0.0163
 4231TIP3    H134184   4.264   4.504  11.991  0.2319 -0.0552 -0.4090
 4231TIP3    H234185   4.203   4.365  11.988  0.9237 -0.3716 -0.0608
 4232TIP3   OH234186   0.391   4.254  16.063 -0.4015  0.3048  0.1748
 4232TIP3    H134187   0.375   4.345  16.038  0.1899  0.5006  0.4984
 4232TIP3    H234188   0.408   4.209  15.980 -1.3372  0.3432 -0.0524
 4233TIP3   OH234189   5.267   2.763   5.386  0.5723  0.3570 -0.0292
 4233TIP3    H134190   5.337   2.823   5.361  0.6256  0.6747  0.8580
 4233TIP3    H234191   5.215   2.753   5.306  0.1286  2.1703 -0.0136
 4234TIP3   OH234192   5.343   1.178   4.843 -0.0715 -0.6581  0.2328
 4234TIP3    H134193   5.290   1.250   4.810  0.1132 -0.5211  0.2344
 4234TIP3    H234194   5.317   1.103   4.790  0.5747 -0.3308 -0.5560
 4235TIP3   OH234195   6.518   0.473  13.707  0.9391 -0.2638  0.0153
 4235TIP3    H134196   6.544   0.564  13.692  1.3054 -0.1925  1.0025
 4235TIP3    H234197   6.511   0.435  13.620 -0.0436  0.9347 -0.4513
 4236TIP3   OH234198   5.052   6.609   4.631  0.2369  0.0913 -0.1943
 4236TIP3    H134199   5.057   6.611   4.727 -1.8271 -0.0085 -0.0319
 4236TIP3    H234200   5.102   6.531   4.607 -1.5598 -1.5726  1.0822
 4237TIP3   OH234201   0.555   4.638   1.069 -0.6475  0.7976 -0.1588
 4237TIP3    H134202   0.544   4.634   1.164 -1.1924 -0.6826 -0.2579
 4237TIP3    H234203   0.649   4.627   1.055 -0.8256 -1.3734  0.1374
 4238TIP3   OH234204   4.310   2.190  14.894 -0.1864 -0.3472 -0.0948
 4238TIP3    H134205   4.266   2.122  14.946  0.4404 -0.5758  0.1440
 4238TIP3    H234206   4.402   2.181  14.917  0.0692 -0.2935 -1.0818
 4239TIP3   OH234207   5.184   3.517   4.226 -0.3056 -0.4172 -0.0073
 4239TIP3    H134208   5.157   3.427   4.247 -0.9622 -0.5457 -1.2782
 4239TIP3    H234209   5.182   3.520   4.130  1.7565  0.3405 -0.0783
 4240TIP3   OH234210   0.321   3.588   1.312 -0.1310  0.3295 -0.0274
 4240TIP3    H134211   0.365   3.606   1.394  0.8443  0.1000 -0.4871
 4240TIP3    H234212   0.228   3.603   1.330  0.2536  2.1195  0.6002
 4241TIP3   OH234213   4.482   5.625   1.412 -0.0426 -0.1649 -0.1734
 4241TIP3    H134214   4.403   5.604   1.462 -0.4840 -1.4802 -1.3433
 4241TIP3    H234215   4.513   5.540   1.380  0.7923  0.5290 -1.2672
 4242TIP3   OH234216   5.553   3.605   2.611 -0.0515  0.8030  0.5810
 4242TIP3    H134217   5.522   3.518   2.587 -1.1080  1.8345 -2.1779
 4242TIP3    H234218   5.489   3.635   2.676 -1.2770  0.5068 -0.4434
 4243TIP3   OH234219   4.000   6.139  14.476  0.1138  0.7142 -0.0129
 4243TIP3    H134220   3.935   6.098  14.418 -1.2971 -0.2720  2.1251
 4243TIP3    H234221   4.050   6.197  14.419 -1.5028  0.1814 -2.1019
 4244TIP3   OH234222   2.587   6.330   3.517 -0.5145  0.5083 -0.0868
 4244TIP3    H134223   2.582   6.425   3.517 -0.9219  0.4863 -0.0747
 4244TIP3    H234224   2.602   6.307   3.609  0.2076  0.5920 -0.1798
 4245TIP3   OH234225   6.591   1.974  13.308  0.4600 -0.3664  0.3327
 4245TIP3    H134226   6.645   2.039  13.352  1.3262 -1.4890  0.9746
 4245TIP3    H234227   6.564   2.016  13.226  0.9020  0.8239  0.7777
 4246TIP3   OH234228   5.784   1.554   4.230 -0.7559 -0.2434  1.3647
 4246TIP3    H134229   5.729   1.629   4.254 -0.1909  0.1197  1.5568
 4246TIP3    H234230   5.866   1.593   4.199 -0.2876 -0.7843  1.8864
 4247TIP3   OH234231   6.696   5.519   5.561  0.1491 -0.3764 -0.3442
 4247TIP3    H134232   6.700   5.565   5.644 -0.8614 -0.6919 -0.1021
 4247TIP3    H234233   6.768   5.555   5.509  0.6689 -0.0485  0.5922
 4248TIP3   OH234234   3.154   6.624   6.665  0.0884  0.2242  0.2194
 4248TIP3    H134235   3.219   6.594   6.602 -1.8633 -2.0329 -0.8925
 4248TIP3    H234236   3.144   6.718   6.646  0.4544 -0.1349 -2.0448
 4249TIP3   OH234237   0.919   2.983   5.463  0.0829  0.8607  0.3646
 4249TIP3    H134238   0.931   2.964   5.370 -0.8031  1.2736  0.1613
 4249TIP3    H234239   0.922   3.078   5.469 -1.1300  0.8975  0.5692
 4250TIP3   OH234240   1.359   0.467  13.199 -0.4644  0.4361  0.5001
 4250TIP3    H134241   1.283   0.419  13.165  0.4953 -0.6411 -0.1882
 4250TIP3    H234242   1.425   0.458  13.131  0.8498 -0.0818  1.7933
 4251TIP3   OH234243   1.736   4.646  17.004 -0.4020 -0.4854 -0.1303
 4251TIP3    H134244   1.650   4.606  16.989 -0.6172 -0.0168 -0.1464
 4251TIP3    H234245   1.789   4.615  16.931 -0.6183 -0.5965 -0.2429
 4252TIP3   OH234246   5.437   0.762   1.925  0.1042 -0.4120 -0.1985
 4252TIP3    H134247   5.359   0.811   1.953 -0.8577 -1.5134 -0.8823
 4252TIP3    H234248   5.476   0.817   1.857 -0.9763 -0.5878 -0.9775
 4253TIP3   OH234249   0.576   5.421  16.363  0.7430 -0.3441 -0.9526
 4253TIP3    H134250   0.572   5.464  16.278  3.8977 -1.7983 -1.9869
 4253TIP3    H234251   0.661   5.448  16.399  0.3251 -1.3067  0.8762
 4254TIP3   OH234252   5.299   0.124  15.776  0.1415  0.6415  0.1899
 4254TIP3    H134253   5.213   0.137  15.815 -0.3120 -0.6161 -0.3708
 4254TIP3    H234254   5.286   0.060  15.707  0.9896  2.5875 -1.9001
 4255TIP3   OH234255   1.345   1.259  12.582  0.4267 -0.3411  0.3069
 4255TIP3    H134256   1.274   1.295  12.529 -1.0924  0.2849  2.5902
 4255TIP3    H234257   1.421   1.312  12.559 -0.3492  0.3964 -0.6561
 4256TIP3   OH234258   5.321   5.546  14.949  0.1250  0.3913 -0.1231
 4256TIP3    H134259   5.298   5.515  14.861 -0.0100  0.2115 -0.0261
 4256TIP3    H234260   5.375   5.476  14.985  0.3859  0.5767 -0.1541
 4257TIP3   OH234261   2.308   4.914  13.093  0.2021  0.0335  0.3451
 4257TIP3    H134262   2.271   4.894  13.007  0.0563  0.3105  0.3437
 4257TIP3    H234263   2.385   4.857  13.099  0.4594  0.3181 -0.1439
 4258TIP3   OH234264   0.717   4.611  16.065 -0.4326 -0.1319  0.4912
 4258TIP3    H134265   0.635   4.626  16.017 -0.3077  0.4538  0.4559
 4258TIP3    H234266   0.717   4.517  16.082 -0.6756 -0.2938 -0.3137
 4259TIP3   OH234267   0.363   1.267   1.625  0.1929 -0.9019  0.2849
 4259TIP3    H134268   0.317   1.215   1.691 -0.5007 -0.9822 -0.2482
 4259TIP3    H234269   0.450   1.229   1.620  0.1685 -1.0536  0.9756
 4260TIP3   OH234270   6.249   4.428  11.512  0.0612  0.0642  0.1597
 4260TIP3    H134271   6.278   4.339  11.528  2.5215  1.2452  3.3575
 4260TIP3    H234272   6.319   4.468  11.461 -0.5481  0.4643 -0.3857
 4261TIP3   OH234273   0.640   0.167  12.905 -0.3716 -0.8755  0.5836
 4261TIP3    H134274   0.598   0.252  12.916 -0.6321 -0.6811 -1.4931
 4261TIP3    H234275   0.705   0.181  12.837  0.3526 -2.1033  0.9880
 4262TIP3   OH234276   6.621   0.248  15.482  0.1592 -0.3849 -0.0157
 4262TIP3    H134277   6.672   0.169  15.465 -0.4226 -1.3868  2.4475
 4262TIP3    H234278   6.530   0.220  15.478 -0.0554  0.1271  0.9423
 4263TIP3   OH234279   3.814   3.312   3.242 -0.4290  0.8152  0.1760
 4263TIP3    H134280   3.817   3.363   3.160 -0.1506  0.6409  0.0757
 4263TIP3    H234281   3.906   3.304   3.268 -0.3331 -0.7365 -0.4978
 4264TIP3   OH234282   6.243   2.198   4.557  0.2177  0.3278  0.1246
 4264TIP3    H134283   6.155   2.196   4.518 -0.4784 -1.9408  1.5781
 4264TIP3    H234284   6.294   2.255   4.500 -1.7431  0.3122 -1.7690
 4265TIP3   OH234285   5.862   4.289   4.543  0.1944  0.2792  0.4994
 4265TIP3    H134286   5.865   4.228   4.470  1.7623  1.1110 -0.1713
 4265TIP3    H234287   5.946   4.278   4.587  2.3124  4.4747 -1.8503
 4266TIP3   OH234288   3.651   4.519   4.720  0.4705  1.0812  0.1525
 4266TIP3    H134289   3.692   4.433   4.712 -0.7079  0.5942 -1.0766
 4266TIP3    H234290   3.678   4.566   4.641 -0.9245  0.9003 -0.4645
 4267TIP3   OH234291   5.116   0.297  11.815  0.1848  0.0316 -0.1170
 4267TIP3    H134292   5.206   0.322  11.835  0.6661  0.2122 -2.2420
 4267TIP3    H234293   5.067   0.379  11.818  0.5728  0.3271 -1.1260
 4268TIP3   OH234294   3.908   0.285   5.033  0.0059 -0.5942  0.1013
 4268TIP3    H134295   3.908   0.229   4.956  0.8788 -0.7605  0.2125
 4268TIP3    H234296   3.824   0.268   5.075 -0.8136  0.0783 -1.2236
 4269TIP3   OH234297   5.386   3.275  12.478  0.6636 -0.1482  0.5958
 4269TIP3    H134298   5.481   3.285  12.483  0.4370  2.4062  1.6061
 4269TIP3    H234299   5.354   3.364  12.459 -1.4772 -1.1586 -1.0399
 4270TIP3   OH234300   4.891   1.804   0.751  0.2906 -0.2508  0.0136
 4270TIP3    H134301   4.881   1.774   0.660  1.3153 -0.1437 -0.1507
 4270TIP3    H234302   4.986   1.800   0.767  0.3128  1.3406  0.4998
 4271TIP3   OH234303   3.023   6.666  14.142 -0.3682 -0.1995  0.1164
 4271TIP3    H134304   2.996   6.709  14.223 -1.1083 -1.5852  0.6303
 4271TIP3    H234305   2.946   6.616  14.115  0.6190 -1.6242 -0.1693
 4272TIP3   OH234306   5.888   1.592   6.520 -0.1773  1.0137  0.2840
 4272TIP3    H134307   5.957   1.584   6.586  1.1741 -2.0586 -1.2963
 4272TIP3    H234308   5.905   1.676   6.478  1.3678  1.2279  1.2474
 4273TIP3   OH234309   3.972   5.707  10.381  0.5965  0.0833  0.3997
 4273TIP3    H134310   4.040   5.643  10.399 -0.3285 -1.1273 -0.2685
 4273TIP3    H234311   4.017   5.780  10.338  1.8358  0.3774  2.1201
 4274TIP3   OH234312   6.093   6.368   2.491 -0.5422 -0.0305  0.1799
 4274TIP3    H134313   6.102   6.447   2.545  0.3949  0.5731 -0.8217
 4274TIP3    H234314   6.115   6.297   2.551  2.8904  0.7760  0.1246
 4275TIP3   OH234315   3.697   5.799  13.087  0.4037  0.3982 -0.5041
 4275TIP3    H134316   3.719   5.866  13.022  0.4539 -0.1393 -1.0388
 4275TIP3    H234317   3.669   5.723  13.036 -2.4746  0.9263  0.1014
 4276TIP3   OH234318   1.585   0.072   1.452 -0.4132  0.6284  0.2412
 4276TIP3    H134319   1.520   0.039   1.390  1.1874 -1.9544 -0.2138
 4276TIP3    H234320   1.560   0.163   1.467 -0.7989  1.5298 -4.3683
 4277TIP3   OH234321   0.480   2.422  15.299 -0.1713  0.3090  0.8747
 4277TIP3    H134322   0.492   2.339  15.345 -0.2169  1.4429  3.0227
 4277TIP3    H234323   0.524   2.487  15.354  2.1394  1.4207 -2.0031
 4278TIP3   OH234324   3.344   3.714   5.302 -0.2389 -0.2617 -0.3202
 4278TIP3    H134325   3.376   3.765   5.227  0.8071 -1.4801 -0.7326
 4278TIP3    H234326   3.341   3.777   5.374 -0.5366  0.7565 -1.1999
 4279TIP3   OH234327   2.285   0.766   4.555 -0.3069  0.5343 -0.0775
 4279TIP3    H134328   2.347   0.839   4.564  0.0600  0.3441 -0.9613
 4279TIP3    H234329   2.304   0.730   4.469 -0.2850 -0.8012  0.4679
 4280TIP3   OH234330   6.578   6.650  14.832  0.4759  0.2049  0.3093
 4280TIP3    H134331   6.673   6.643  14.843  0.7418 -0.6646 -2.0290
 4280TIP3    H234332   6.562   6.744  14.830  1.3241  0.3683  0.5943
 4281TIP3   OH234333   5.804   0.468  12.596 -0.0155 -0.7093  0.3206
 4281TIP3    H134334   5.840   0.549  12.631  2.9596 -2.2861  1.2626
 4281TIP3    H234335   5.842   0.399  12.649 -2.2956 -2.8057 -0.5470
 4282TIP3   OH234336   3.057   2.075  15.734 -0.5177  0.4513  0.2264
 4282TIP3    H134337   2.990   2.007  15.724 -0.5391  0.6334 -0.9902
 4282TIP3    H234338   3.136   2.035  15.700 -0.5005  0.9895 -0.3710
 4283TIP3   OH234339   3.717   2.014  15.316 -0.0296 -0.4729 -0.1675
 4283TIP3    H134340   3.804   2.053  15.308 -0.2099  0.3643  1.4936
 4283TIP3    H234341   3.735   1.922  15.336  0.5174 -0.1910  0.7374
 4284TIP3   OH234342   4.696   4.211  17.081 -0.1332  0.2880  0.9135
 4284TIP3    H134343   4.768   4.229  17.142 -0.2369 -2.5885  2.0146
 4284TIP3    H234344   4.735   4.222  16.995  1.0878  0.6874  1.4868
 4285TIP3   OH234345   0.528   3.131   2.980  0.5039 -0.2006 -0.0320
 4285TIP3    H134346   0.520   3.061   3.045 -0.5821  0.8776  1.0655
 4285TIP3    H234347   0.570   3.203   3.028  2.8839 -0.4845 -1.5106
 4286TIP3   OH234348   3.848   2.239   1.072  0.2774  0.0625 -0.1879
 4286TIP3    H134349   3.780   2.217   1.136  1.1893 -0.1547  0.7265
 4286TIP3    H234350   3.833   2.179   0.999  0.7231 -1.3728  0.8713
 4287TIP3   OH234351   5.766   2.609   2.075 -0.5908 -0.0014  0.4605
 4287TIP3    H134352   5.674   2.593   2.095 -0.5822 -0.6376  0.0339
 4287TIP3    H234353   5.767   2.690   2.026 -0.8454  0.3895  1.0870
 4288TIP3   OH234354   2.023   3.489  17.039  0.3144  0.0301 -0.0076
 4288TIP3    H134355   1.935   3.458  17.061  0.3893 -0.4919 -0.4235
 4288TIP3    H234356   2.035   3.567  17.093 -0.8877  0.8180 -0.8282
 4289TIP3   OH234357   3.706   6.799   3.106 -0.1954  0.0260 -0.0415
 4289TIP3    H134358   3.649   6.875   3.099 -0.4925 -0.3007 -1.2955
 4289TIP3    H234359   3.651   6.731   3.145 -1.1496 -0.7130 -2.4952
 4290TIP3   OH234360   1.545   2.389   3.583 -0.5687  0.2723 -0.0467
 4290TIP3    H134361   1.483   2.443   3.632 -0.8748  0.0880 -0.2318
 4290TIP3    H234362   1.556   2.435   3.499 -1.8227 -0.6154 -0.7236
 4291TIP3   OH234363   1.823   2.861  15.420 -0.1447 -0.5095 -0.4559
 4291TIP3    H134364   1.742   2.813  15.437 -0.1447 -0.2229  0.4215
 4291TIP3    H234365   1.821   2.879  15.326 -0.2332 -2.0481 -0.7709
 4292TIP3   OH234366   4.846   5.550  12.188 -0.1923  0.2557  0.1674
 4292TIP3    H134367   4.773   5.501  12.151  0.1557 -0.2320  0.1060
 4292TIP3    H234368   4.806   5.619  12.241 -0.6979  0.9152 -1.0476
 4293TIP3   OH234369   4.458   2.116   5.208  0.0264 -0.4852  0.0949
 4293TIP3    H134370   4.475   2.135   5.300  3.0392  0.7913 -0.5769
 4293TIP3    H234371   4.445   2.203   5.168  2.6122 -0.6159 -1.2220
 4294TIP3   OH234372   4.575   0.929  17.115  0.3178  0.2028 -0.0070
 4294TIP3    H134373   4.546   1.020  17.108 -0.1979  0.0913  0.5960
 4294TIP3    H234374   4.634   0.917  17.041 -0.5449  0.6878 -0.7964
 4295TIP3   OH234375   3.614   1.334  11.432  0.5232 -0.3270 -0.2286
 4295TIP3    H134376   3.637   1.272  11.362  1.4826  0.4378 -0.6088
 4295TIP3    H234377   3.519   1.322  11.444  0.7547 -2.2373  0.0837
 4296TIP3   OH234378   4.872   2.223  16.421  0.1751 -0.1613  0.2474
 4296TIP3    H134379   4.779   2.244  16.422  0.4792  1.4417 -0.9076
 4296TIP3    H234380   4.876   2.131  16.396 -1.0976 -0.2979  0.5177
 4297TIP3   OH234381   1.740   6.793   4.373 -0.6141  0.0599  0.3035
 4297TIP3    H134382   1.665   6.734   4.379 -0.2089 -0.7979 -1.8899
 4297TIP3    H234383   1.709   6.876   4.410 -3.4934  0.4540 -2.5560
 4298TIP3   OH234384   1.534   3.432   4.090 -0.1076 -0.0729  0.2294
 4298TIP3    H134385   1.501   3.522   4.094 -1.9109 -0.7097  0.3342
 4298TIP3    H234386   1.534   3.410   3.997  0.5385  0.0889  0.1843
 4299TIP3   OH234387   6.699   1.382   4.420 -0.7785  0.3553 -0.0336
 4299TIP3    H134388   6.721   1.292   4.396 -1.2531  0.6012 -1.5230
 4299TIP3    H234389   6.780   1.418   4.456 -0.3419 -0.4145 -0.2241
 4300TIP3   OH234390   6.167   6.424  10.790 -0.3089 -0.2432  0.7027
 4300TIP3    H134391   6.166   6.368  10.712 -0.4300  0.3297  0.2833
 4300TIP3    H234392   6.076   6.452  10.800 -0.2116  0.0559  0.7686
 4301TIP3   OH234393   4.215   6.788  14.666 -0.9569 -0.6484 -0.1196
 4301TIP3    H134394   4.205   6.877  14.699 -1.4759 -1.2741  1.5278
 4301TIP3    H234395   4.152   6.781  14.595 -2.7334 -0.4239  1.3615
 4302TIP3   OH234396   5.009   0.563  11.837  0.0561 -0.7748 -0.1676
 4302TIP3    H134397   5.082   0.625  11.845 -0.0539 -0.6726  0.0546
 4302TIP3    H234398   4.976   0.554  11.926  0.2751 -1.4011 -0.1482
 4303TIP3   OH234399   4.378   5.277   0.294  0.1467 -0.4490 -0.0154
 4303TIP3    H134400   4.390   5.198   0.347  0.0861  1.3416  2.9127
 4303TIP3    H234401   4.460   5.326   0.305 -0.0655  0.2194 -1.2144
 4304TIP3   OH234402   3.353   1.205  13.949 -0.0188 -0.2238  0.4640
 4304TIP3    H134403   3.379   1.195  13.857 -1.8942  0.1327 -0.1375
 4304TIP3    H234404   3.355   1.116  13.984  1.4739 -0.2776  0.3424
 4305TIP3   OH234405   1.730   0.157   5.861 -0.2848  0.0435 -0.3622
 4305TIP3    H134406   1.789   0.232   5.862 -0.9369  0.5743  0.8845
 4305TIP3    H234407   1.724   0.132   5.769  1.9397 -0.0971 -0.5169
 4306TIP3   OH234408   2.585   2.878  13.116  0.2586  0.2915 -0.4110
 4306TIP3    H134409   2.510   2.936  13.133  0.6090  0.3690  0.9646
 4306TIP3    H234410   2.547   2.803  13.069 -0.5365  0.7245 -0.4712
 4307TIP3   OH234411   1.913   2.544   1.663 -0.3833 -0.7646  0.0705
 4307TIP3    H134412   1.991   2.524   1.715  0.2935 -0.4870 -0.8130
 4307TIP3    H234413   1.841   2.506   1.713  0.2649 -0.7042  1.0934
 4308TIP3   OH234414   4.427   3.133   4.081 -0.3562  1.1745  0.4529
 4308TIP3    H134415   4.491   3.188   4.127  0.4041  0.4246  0.2984
 4308TIP3    H234416   4.463   3.045   4.086  0.7630  1.2857 -3.2036
 4309TIP3   OH234417   0.345   3.451   2.477 -0.1293  0.0279  0.4026
 4309TIP3    H134418   0.315   3.500   2.553  0.6268  0.3223  0.5156
 4309TIP3    H234419   0.409   3.389   2.512  1.6874  1.4535 -0.2214
 4310TIP3   OH234420   2.484   6.027   2.399 -0.6343 -0.2804  0.1849
 4310TIP3    H134421   2.567   5.990   2.431  0.7305 -0.2941 -3.0418
 4310TIP3    H234422   2.421   5.956   2.412  0.6213 -1.5627 -0.3391
 4311TIP3   OH234423   2.305   1.795   1.418 -0.0685 -0.0911 -0.0629
 4311TIP3    H134424   2.246   1.744   1.473  0.2590 -0.9826 -0.5191
 4311TIP3    H234425   2.268   1.791   1.330  0.5799 -0.5465 -0.3282
 4312TIP3   OH234426   4.901   3.019  13.265 -0.1714  0.4776  0.4426
 4312TIP3    H134427   4.872   2.980  13.347  1.7298 -0.2855  0.8168
 4312TIP3    H234428   4.905   3.113  13.282  1.1778  0.2443  1.6067
 4313TIP3   OH234429   5.979   1.328   0.073 -0.2683 -0.2137 -0.1544
 4313TIP3    H134430   6.061   1.287   0.045 -0.4822 -0.6962 -0.0881
 4313TIP3    H234431   5.947   1.271   0.144 -0.3035  0.3652  0.3044
 4314TIP3   OH234432   4.278   2.217   4.117  0.4457 -0.0544 -0.0643
 4314TIP3    H134433   4.245   2.288   4.171  0.3441  0.6183 -0.9951
 4314TIP3    H234434   4.374   2.225   4.121  0.4331  0.1925 -0.2386
 4315TIP3   OH234435   5.282   6.441  13.474 -0.2599  0.2598  0.6787
 4315TIP3    H134436   5.253   6.363  13.427 -0.0575 -0.7228  2.1564
 4315TIP3    H234437   5.354   6.412  13.529  0.3055  1.6487  0.7127
 4316TIP3   OH234438   5.622   3.899  12.140  0.3789  0.3047 -0.4369
 4316TIP3    H134439   5.709   3.920  12.175  0.6087  0.6033 -1.1605
 4316TIP3    H234440   5.565   3.967  12.175  0.5415  0.4061 -0.3664
 4317TIP3   OH234441   6.208   6.525   5.600  0.7226 -0.0935  0.0201
 4317TIP3    H134442   6.197   6.554   5.509  1.6267  0.2371  0.0149
 4317TIP3    H234443   6.300   6.502   5.608  0.1614 -2.6884  0.1219
 4318TIP3   OH234444   0.643   1.989  14.554 -0.2179 -0.6278  0.4605
 4318TIP3    H134445   0.684   2.076  14.556 -0.6329 -0.4192  0.1383
 4318TIP3    H234446   0.592   1.989  14.473  0.5688 -1.5489 -0.0534
 4319TIP3   OH234447   0.214   0.051   4.821  0.3198  0.5248 -0.3908
 4319TIP3    H134448   0.161   0.070   4.898 -0.5530  0.2359 -0.9181
 4319TIP3    H234449   0.191  -0.039   4.797  0.1593  0.8046 -1.3273
 4320TIP3   OH234450   4.339   3.393   5.201 -0.6879 -0.0635  0.1898
 4320TIP3    H134451   4.274   3.346   5.253  0.6358 -0.7839  1.2538
 4320TIP3    H234452   4.404   3.327   5.178 -0.7338  0.4619 -1.5886
 4321TIP3   OH234453   6.738   1.870   0.381  0.2492  0.0124  0.2303
 4321TIP3    H134454   6.659   1.894   0.333  0.8360  1.2761 -0.1610
 4321TIP3    H234455   6.783   1.954   0.396  1.7614 -0.7219 -0.0123
 4322TIP3   OH234456   5.723   4.897   1.090 -0.6895 -0.1030  0.5419
 4322TIP3    H134457   5.749   4.976   1.137 -0.5232 -0.8730  1.7828
 4322TIP3    H234458   5.740   4.917   0.998 -1.8565  1.7586  0.7038
 4323TIP3   OH234459   2.008   2.425  17.125 -0.3239  0.0970  0.2193
 4323TIP3    H134460   2.073   2.451  17.059 -0.6853 -0.6677 -0.4651
 4323TIP3    H234461   1.983   2.336  17.099 -0.8407 -0.0293  1.1147
 4324TIP3   OH234462   0.269   3.019   2.455  0.0415 -0.2419  0.0530
 4324TIP3    H134463   0.362   3.014   2.475  0.2236 -1.4934 -0.9396
 4324TIP3    H234464   0.227   2.960   2.518 -0.3174  1.5227  1.5523
 4325TIP3   OH234465   2.984   0.085  16.903 -0.1580 -0.5877  0.1300
 4325TIP3    H134466   3.049   0.127  16.847 -0.3396  1.2010  1.1953
 4325TIP3    H234467   2.950   0.155  16.959 -1.4101 -1.9078  1.1290
 4326TIP3   OH234468   0.282   6.081   6.328 -0.0133 -0.2362  0.0206
 4326TIP3    H134469   0.220   6.022   6.286 -0.2756  0.7451 -1.0113
 4326TIP3    H234470   0.233   6.122   6.399 -1.2107  1.9372 -1.9290
 4327TIP3   OH234471   1.572   1.497  14.774  0.4257  0.9080 -0.3135
 4327TIP3    H134472   1.512   1.472  14.845  1.2701 -0.2971  0.0211
 4327TIP3    H234473   1.656   1.513  14.818  0.9407  0.2260 -1.0152
 4328TIP3   OH234474   5.323   4.394   5.278  0.3572  0.0818 -0.7371
 4328TIP3    H134475   5.255   4.328   5.288  0.7931 -0.6278 -2.1304
 4328TIP3    H234476   5.363   4.402   5.364 -1.9051  1.0193  0.2975
 4329TIP3   OH234477   1.377   4.160   2.710 -0.5807  0.7526  0.6304
 4329TIP3    H134478   1.389   4.115   2.626 -2.1454 -1.5725  1.5247
 4329TIP3    H234479   1.417   4.246   2.698  0.2373  0.0851 -2.1049
 4330TIP3   OH234480   1.820   3.238   2.239  0.1803  0.7462 -0.4264
 4330TIP3    H134481   1.737   3.262   2.197 -0.4997 -1.6718 -0.6277
 4330TIP3    H234482   1.826   3.143   2.228  1.5962  0.4474  2.1022
 4331TIP3   OH234483   5.915   1.871   1.470  0.0343 -0.7001 -0.0470
 4331TIP3    H134484   5.860   1.848   1.545 -0.5100  2.3022  0.6205
 4331TIP3    H234485   5.995   1.907   1.508 -0.5321  1.5313 -0.7804
 4332TIP3   OH234486   2.688   3.138  14.453 -0.0458 -0.2567 -0.0402
 4332TIP3    H134487   2.651   3.050  14.456 -0.2541 -0.1574  0.3115
 4332TIP3    H234488   2.730   3.143  14.367 -0.3392 -0.5732 -0.2050
 4333TIP3   OH234489   6.063   4.604  15.150 -0.0440 -0.4996 -0.5635
 4333TIP3    H134490   6.144   4.588  15.198 -0.3809 -1.8157 -0.3781
 4333TIP3    H234491   6.008   4.654  15.210 -0.0512 -1.1858  0.0146
 4334TIP3   OH234492   2.378   2.965   0.450 -0.1156 -0.2480 -0.2371
 4334TIP3    H134493   2.393   2.936   0.540 -1.2144 -0.6697 -0.1771
 4334TIP3    H234494   2.455   2.935   0.401  1.2418  1.3126  0.8398
 4335TIP3   OH234495   6.344   0.377  16.292 -0.0653  0.1752 -0.0813
 4335TIP3    H134496   6.416   0.331  16.336  0.0857  0.7181  0.2387
 4335TIP3    H234497   6.278   0.309  16.278  0.9066 -0.5765 -1.3008
 4336TIP3   OH234498   2.686   5.775  14.326  0.2816 -0.0244  0.6569
 4336TIP3    H134499   2.680   5.803  14.234  0.3769 -0.5412  0.4906
 4336TIP3    H234500   2.756   5.710  14.326 -1.6836 -2.2556  0.5306
 4337TIP3   OH234501   1.690   0.520   4.912 -0.6260 -0.4722  0.3271
 4337TIP3    H134502   1.675   0.456   4.982  1.7847 -1.1442  0.3431
 4337TIP3    H234503   1.718   0.467   4.837  1.1768  0.5024  0.2592
 4338TIP3   OH234504   5.526   3.003  15.707 -0.0712 -0.1410 -0.0567
 4338TIP3    H134505   5.446   3.054  15.692 -1.1756 -1.5806  0.5712
 4338TIP3    H234506   5.575   3.010  15.626 -0.3101  1.6584 -0.0842
 4339TIP3   OH234507   6.683   3.797  11.525  0.1687  0.1217 -0.3319
 4339TIP3    H134508   6.602   3.774  11.480 -0.1828  2.8133 -1.3015
 4339TIP3    H234509   6.725   3.714  11.544 -3.3969 -1.4733  1.3801
 4340TIP3   OH234510   0.622   4.407  17.168  0.3731  0.1169  0.2032
 4340TIP3    H134511   0.668   4.420  17.251  1.6791  0.4133 -0.5278
 4340TIP3    H234512   0.582   4.491  17.149  1.4237  0.5372 -0.2284
 4341TIP3   OH234513   2.063   5.763  16.395  0.9337 -0.0123 -0.6586
 4341TIP3    H134514   2.057   5.763  16.299 -0.5570  0.3399 -0.5857
 4341TIP3    H234515   2.149   5.725  16.413  0.4171 -2.0237 -2.0742
 4342TIP3   OH234516   1.788   6.641  11.322 -0.6950 -0.0003 -0.5101
 4342TIP3    H134517   1.716   6.604  11.272 -2.2621 -0.2114  1.7370
 4342TIP3    H234518   1.806   6.726  11.281 -0.4708 -1.0209 -2.6352
 4343TIP3   OH234519   5.824   3.908   5.324  0.3663 -0.2663  0.1627
 4343TIP3    H134520   5.884   3.945   5.259 -0.3312 -0.5995 -0.7005
 4343TIP3    H234521   5.859   3.936   5.408  2.0883 -0.9733 -0.2810
 4344TIP3   OH234522   6.804   4.862  11.784 -0.3013  0.1115 -0.2951
 4344TIP3    H134523   6.846   4.938  11.825 -0.0808  0.0818 -0.4586
 4344TIP3    H234524   6.869   4.832  11.720  0.0900 -0.8956  0.5463
 4345TIP3   OH234525   1.668   1.671  16.206 -0.3070 -0.4051 -0.2426
 4345TIP3    H134526   1.697   1.741  16.148 -1.6534  1.5140  1.2506
 4345TIP3    H234527   1.735   1.667  16.274 -1.4580  1.3417  1.0919
 4346TIP3   OH234528   5.295   5.426  16.840  0.5715  0.0927 -0.0066
 4346TIP3    H134529   5.348   5.489  16.887 -1.0871  0.1983  1.8433
 4346TIP3    H234530   5.301   5.454  16.748  0.6969  2.3455  0.6177
 4347TIP3   OH234531   1.361   2.025   4.942 -0.4416  0.0813  0.0173
 4347TIP3    H134532   1.296   1.986   5.001  0.0319 -2.4114 -0.9951
 4347TIP3    H234533   1.361   1.968   4.865  0.5507  1.9727 -1.4614
 4348TIP3   OH234534   4.755   4.705   4.927 -0.3426 -0.1625 -0.1573
 4348TIP3    H134535   4.684   4.710   4.863 -1.4391 -2.6412  0.7302
 4348TIP3    H234536   4.796   4.792   4.924 -1.3099  0.3125 -3.0386
 4349TIP3   OH234537   4.050   0.291  11.116  0.0110 -0.6970  0.9160
 4349TIP3    H134538   4.052   0.384  11.095  2.2795 -0.7160  0.7691
 4349TIP3    H234539   4.129   0.255  11.075 -0.1356 -2.4342  2.0171
 4350TIP3   OH234540   1.361   3.146   1.845 -0.7157  0.5443  0.7673
 4350TIP3    H134541   1.273   3.114   1.824 -0.6708 -0.0256  1.4224
 4350TIP3    H234542   1.379   3.112   1.932 -0.0984  1.2006  0.9041
 4351TIP3   OH234543   1.026   0.524  16.013  0.3555 -0.1450  0.3226
 4351TIP3    H134544   1.037   0.492  16.102  1.9543  1.1517  0.6246
 4351TIP3    H234545   1.069   0.609  16.012  1.1161 -0.4891 -1.8898
 4352TIP3   OH234546   0.898   5.468  15.900  0.5101 -0.3339  0.3643
 4352TIP3    H134547   0.811   5.445  15.866 -0.4107 -0.1130  2.4309
 4352TIP3    H234548   0.956   5.458  15.825 -1.0728 -1.8501 -0.7449
 4353TIP3   OH234549   0.629   3.783  12.908 -0.4191 -0.1408 -0.7147
 4353TIP3    H134550   0.631   3.705  12.964  1.6773 -0.3561 -1.0030
 4353TIP3    H234551   0.624   3.857  12.970  0.7403 -0.4179 -0.2565
 4354TIP3   OH234552   4.893   4.581  15.283 -0.8474 -0.0943 -0.1000
 4354TIP3    H134553   4.836   4.509  15.255  0.0945 -0.7221 -0.4467
 4354TIP3    H234554   4.970   4.573  15.227 -1.0115  1.6233 -0.6229
 4355TIP3   OH234555   4.984   4.339  13.254  0.3489 -0.6129 -0.2442
 4355TIP3    H134556   5.033   4.403  13.202  1.0168 -1.8449 -1.2042
 4355TIP3    H234557   4.894   4.371  13.254  0.4652 -0.2123 -1.6190
 4356TIP3   OH234558   4.807   3.496   3.482  0.0845  0.5268 -0.3339
 4356TIP3    H134559   4.879   3.461   3.534 -0.6686 -0.4072  0.1263
 4356TIP3    H234560   4.742   3.425   3.482 -1.0100  1.5045 -0.3565
 4357TIP3   OH234561   5.942   3.311   5.366 -0.2034 -0.5286 -0.3907
 4357TIP3    H134562   5.952   3.375   5.295  0.1707 -0.7790 -0.5693
 4357TIP3    H234563   5.871   3.346   5.420 -0.7110 -0.4939 -1.0604
 4358TIP3   OH234564   3.820   2.490   4.803 -0.5508 -0.1696  0.5611
 4358TIP3    H134565   3.912   2.485   4.828 -0.3765 -0.6244 -0.1216
 4358TIP3    H234566   3.772   2.490   4.886 -0.0277 -2.1763  0.9253
 4359TIP3   OH234567   6.086   0.371   3.401  0.3075  0.4891 -0.4160
 4359TIP3    H134568   6.094   0.439   3.335 -2.3729 -0.0320 -1.3950
 4359TIP3    H234569   6.163   0.316   3.388  0.8463  1.5074 -1.7651
 4360TIP3   OH234570   2.731   1.755  10.122  0.2008 -0.2630  0.0415
 4360TIP3    H134571   2.804   1.716  10.170  0.4149  0.6478  0.4564
 4360TIP3    H234572   2.660   1.691  10.131  0.2488 -0.1314  1.5343
 4361TIP3   OH234573   2.308   3.992   3.829  0.9385  0.0578 -0.2477
 4361TIP3    H134574   2.352   3.975   3.912  1.9134  1.2172 -0.4901
 4361TIP3    H234575   2.272   4.080   3.839  1.5899  0.4544 -1.2518
 4362TIP3   OH234576   2.958   2.772   3.014 -0.4679 -0.0018  0.0530
 4362TIP3    H134577   2.956   2.812   2.927  0.3272 -2.9272 -1.4307
 4362TIP3    H234578   3.042   2.727   3.018 -0.6973 -0.3275  2.1643
 4363TIP3   OH234579   4.426   5.329   1.639  0.0141  0.3008  0.6905
 4363TIP3    H134580   4.450   5.327   1.547  0.2470  0.5537  0.7484
 4363TIP3    H234581   4.339   5.369   1.641 -0.8709 -1.4740  0.3835
 4364TIP3   OH234582   0.121   4.473  14.000 -0.0562  0.0725 -0.0017
 4364TIP3    H134583   0.056   4.542  14.010 -1.3540 -0.2342 -4.2859
 4364TIP3    H234584   0.205   4.517  14.010 -0.8447  2.2530 -2.0325
 4365TIP3   OH234585   5.851   4.701  14.516 -0.3971  0.2532  0.6105
 4365TIP3    H134586   5.812   4.735  14.597 -0.2235  2.5949 -0.2090
 4365TIP3    H234587   5.824   4.763  14.449  1.2286 -0.4490 -0.7646
 4366TIP3   OH234588   0.728   6.612  15.066  0.0895  0.2961 -0.4384
 4366TIP3    H134589   0.812   6.636  15.028  0.5311  3.9088  2.2915
 4366TIP3    H234590   0.750   6.559  15.143 -0.2373  0.1424 -0.4461
 4367TIP3   OH234591   6.678   3.997  14.179 -0.2119  0.3046 -0.1558
 4367TIP3    H134592   6.686   4.073  14.121 -1.3299  2.6206  2.4966
 4367TIP3    H234593   6.758   3.998  14.231  0.5346 -1.4263 -1.1702
 4368TIP3   OH234594   1.725   1.592   4.900  0.3045 -0.0375  0.2403
 4368TIP3    H134595   1.738   1.653   4.827  2.2123 -0.7610 -0.1006
 4368TIP3    H234596   1.791   1.616   4.964  0.0291 -0.7309  0.8008
 4369TIP3   OH234597   5.117   6.062  10.506  0.2586 -0.4688 -0.4011
 4369TIP3    H134598   5.115   6.013  10.589  1.0795 -2.1217 -1.3140
 4369TIP3    H234599   5.052   6.019  10.451 -0.9114  1.1690 -0.3790
 4370TIP3   OH234600   2.282   0.911  14.763 -0.1016 -0.6018 -0.0894
 4370TIP3    H134601   2.215   0.844  14.753  0.8624 -1.3063 -3.0140
 4370TIP3    H234602   2.247   0.987  14.717  0.7592 -0.7862 -1.1176
 4371TIP3   OH234603   3.554   2.108  16.779 -0.0990 -0.2033 -0.2810
 4371TIP3    H134604   3.588   2.116  16.690  0.5954  1.1144  0.0671
 4371TIP3    H234605   3.631   2.119  16.835 -0.5666 -0.7545  0.4896
 4372TIP3   OH234606   4.116   5.576  12.503 -0.5574 -0.1331 -0.1329
 4372TIP3    H134607   4.053   5.504  12.498 -0.3188 -0.4006  0.5774
 4372TIP3    H234608   4.196   5.542  12.463 -0.7575  0.0958 -0.7380
 4373TIP3   OH234609   4.103   4.496  12.861  0.2634  0.9662 -0.5260
 4373TIP3    H134610   4.088   4.581  12.819 -0.4836  0.6884 -0.8422
 4373TIP3    H234611   4.176   4.458  12.811  0.7180  1.4811 -0.2748
 4374TIP3   OH234612   0.932   2.963   2.093  0.1076 -0.0063  0.7946
 4374TIP3    H134613   0.989   2.888   2.080 -1.3185 -1.0959  0.5414
 4374TIP3    H234614   0.845   2.925   2.105 -0.7683  1.6319 -0.0235
 4375TIP3   OH234615   1.792   1.813  16.763  0.9333  0.1446 -0.0021
 4375TIP3    H134616   1.790   1.723  16.730  1.1706  1.4172 -4.0136
 4375TIP3    H234617   1.700   1.838  16.773  0.7928  0.1863 -1.2937
 4376TIP3   OH234618   5.042   0.073  11.951 -0.1321 -0.5576 -0.2922
 4376TIP3    H134619   4.949   0.055  11.937 -0.7857  2.0739  0.1664
 4376TIP3    H234620   5.058   0.156  11.905  1.4735  0.0971  1.3082
 4377TIP3   OH234621   0.620   0.617   3.444  0.1089 -0.3482  0.2713
 4377TIP3    H134622   0.571   0.630   3.362  0.9888 -3.1246 -0.8129
 4377TIP3    H234623   0.680   0.692   3.448 -1.6594  1.1727 -0.2560
 4378TIP3   OH234624   1.961   1.620   5.050 -0.0188  0.0705 -0.1944
 4378TIP3    H134625   2.037   1.576   5.090  1.0673  0.4050 -1.7807
 4378TIP3    H234626   1.934   1.684   5.116  2.8082  1.8467 -0.5633
 4379TIP3   OH234627   1.651   1.084  12.816 -0.5720 -0.2902 -0.1179
 4379TIP3    H134628   1.641   1.170  12.856 -0.2748 -0.8383  1.1798
 4379TIP3    H234629   1.685   1.102  12.728 -5.1580  1.2311 -1.9202
 4380TIP3   OH234630   1.638   1.218  14.670  0.0916  0.3942  0.1439
 4380TIP3    H134631   1.616   1.305  14.703  1.1276  1.2248 -1.2616
 4380TIP3    H234632   1.729   1.224  14.643  1.0021 -1.8856  2.3498
 4381TIP3   OH234633   5.420   3.872   4.215  0.1081 -0.1063  0.0015
 4381TIP3    H134634   5.373   3.899   4.135 -0.9442 -0.5514  0.4510
 4381TIP3    H234635   5.375   3.918   4.286 -0.0152 -0.9858  0.5035
 4382TIP3   OH234636   2.319   1.965   5.817  0.5001  0.0939  0.8533
 4382TIP3    H134637   2.300   2.055   5.843  0.0683 -0.1609  1.4342
 4382TIP3    H234638   2.249   1.943   5.755 -0.5008 -0.4654  2.1407
 4383TIP3   OH234639   5.560   6.030  16.348 -0.7277 -0.2972 -0.3911
 4383TIP3    H134640   5.544   5.981  16.267  0.0869 -0.0633 -0.7036
 4383TIP3    H234641   5.651   6.009  16.371 -0.4355  0.8969 -0.4204
 4384TIP3   OH234642   4.793   0.290   6.095 -1.2526  0.3779 -0.0694
 4384TIP3    H134643   4.874   0.288   6.045  0.4719 -3.1242  2.4263
 4384TIP3    H234644   4.804   0.361   6.158 -2.1560  2.7754 -2.4156
 4385TIP3   OH234645   4.083   2.632  12.960 -0.3689 -0.3344  0.2169
 4385TIP3    H134646   4.087   2.724  12.987 -3.0936  0.3929 -1.4481
 4385TIP3    H234647   4.063   2.635  12.867  0.2813 -2.6680 -0.0599
 4386TIP3   OH234648   6.590   3.512  13.598 -0.7888  0.4465 -0.0002
 4386TIP3    H134649   6.557   3.472  13.517 -1.7437  0.4163  0.3901
 4386TIP3    H234650   6.616   3.601  13.572  2.2138 -0.6208 -1.0770
 4387TIP3   OH234651   5.899   4.192   0.785  0.0762  0.5908 -0.4209
 4387TIP3    H134652   5.859   4.260   0.732  0.1803  1.0364  0.0614
 4387TIP3    H234653   5.863   4.110   0.751 -1.6914  0.9907  0.3539
 4388TIP3   OH234654   3.286   0.943  13.031  0.1220  0.3632 -0.0097
 4388TIP3    H134655   3.346   0.932  12.958 -0.9436  1.1398 -1.0400
 4388TIP3    H234656   3.199   0.925  12.995 -0.3545 -0.1075  1.2816
 4389TIP3   OH234657   0.036   1.034   0.137  0.2220 -0.1650 -0.1127
 4389TIP3    H134658  -0.002   0.975   0.072  0.7787 -1.8255  1.0058
 4389TIP3    H234659  -0.038   1.083   0.172 -0.1297  0.5365 -1.7170
 4390TIP3   OH234660   4.816   0.584  14.512  0.3548 -0.1758  0.0627
 4390TIP3    H134661   4.727   0.614  14.534  0.2112 -1.4253  1.3429
 4390TIP3    H234662   4.817   0.492  14.538  1.4229 -0.7431 -1.8060
 4391TIP3   OH234663   6.608   4.414   4.787  0.2677 -0.0178  0.0151
 4391TIP3    H134664   6.690   4.445   4.825  0.8318 -0.8332 -0.4946
 4391TIP3    H234665   6.589   4.474   4.715 -1.0303  1.7978  1.7704
 4392TIP3   OH234666   5.850   6.816  13.816 -0.0786  0.0717  0.1286
 4392TIP3    H134667   5.864   6.745  13.878  0.9413 -0.1232 -0.2924
 4392TIP3    H234668   5.847   6.773  13.731 -0.6484  0.4176 -0.0320
 4393TIP3   OH234669   1.286   5.325  15.798  0.3303 -0.8099 -0.4763
 4393TIP3    H134670   1.240   5.284  15.871 -1.3227 -2.8427 -2.5357
 4393TIP3    H234671   1.366   5.273  15.788  1.5021  0.6135  0.9491
 4394TIP3   OH234672   5.986   5.828  14.136 -0.1310 -0.3361  0.7765
 4394TIP3    H134673   5.904   5.872  14.159  0.8016  0.9556  1.8231
 4394TIP3    H234674   5.991   5.754  14.197 -0.8531 -0.8659  0.2109
 4395TIP3   OH234675   0.165   4.832   6.101 -0.0217 -0.0447  0.1748
 4395TIP3    H134676   0.097   4.899   6.098 -0.1728 -0.1847  0.4193
 4395TIP3    H234677   0.221   4.850   6.025 -0.1557  0.2569  0.1474
 4396TIP3   OH234678   3.483   1.428  11.760  0.4683 -0.1665 -0.4777
 4396TIP3    H134679   3.497   1.448  11.667 -1.2715 -0.3223 -0.8280
 4396TIP3    H234680   3.460   1.512  11.800 -0.8187 -0.4103 -0.6546
 4397TIP3   OH234681   1.833   0.905   3.752  0.1381  0.4278 -0.0746
 4397TIP3    H134682   1.823   0.820   3.796  0.0713 -0.0838 -1.0368
 4397TIP3    H234683   1.851   0.882   3.660  0.9540  1.4496 -0.1863
 4398TIP3   OH234684   3.077   6.515   4.905 -0.2267 -0.4594  0.3293
 4398TIP3    H134685   3.132   6.437   4.895 -2.2906 -2.0690  1.0549
 4398TIP3    H234686   3.050   6.537   4.816  0.7571 -0.2185  0.0695
 4399TIP3   OH234687   3.098   5.996   5.055  0.3682  0.1747  0.1322
 4399TIP3    H134688   3.010   6.014   5.023  0.6458  0.1571 -0.6625
 4399TIP3    H234689   3.098   5.902   5.075  0.8489 -0.3562 -2.0536
 4400TIP3   OH234690   6.355   4.951   3.932 -0.2761 -0.2681  0.1749
 4400TIP3    H134691   6.343   5.040   3.965  0.2985 -0.0424 -0.2054
 4400TIP3    H234692   6.266   4.916   3.925 -0.4642  0.0427  0.9408
 4401TIP3   OH234693   6.816   2.615  15.912  0.3098 -0.3253 -0.3314
 4401TIP3    H134694   6.833   2.696  15.864  1.0955 -0.7301 -0.7439
 4401TIP3    H234695   6.728   2.590  15.885  0.0309  0.4233 -0.1448
 4402TIP3   OH234696   5.656   6.427   1.566  0.3686 -0.0076 -0.3353
 4402TIP3    H134697   5.566   6.428   1.598  1.5659 -0.1843  3.6418
 4402TIP3    H234698   5.667   6.511   1.522 -1.5519  0.2568 -0.3719
 4403TIP3   OH234699   2.851   3.859  14.945 -0.1129  0.5526 -0.4989
 4403TIP3    H134700   2.872   3.906  14.865 -1.0949  1.7021 -0.1067
 4403TIP3    H234701   2.760   3.882  14.963 -1.1360 -2.6032 -1.0345
 4404TIP3   OH234702   0.010   1.440  16.158  0.1038 -0.0520  0.4653
 4404TIP3    H134703   0.093   1.412  16.120  0.0557  0.4180 -0.0054
 4404TIP3    H234704   0.032   1.521  16.205 -0.3284  0.8240 -0.7976
 4405TIP3   OH234705   3.537   4.769  13.647 -0.4129  0.1288  0.3645
 4405TIP3    H134706   3.496   4.785  13.731  1.2415  0.5666  1.1274
 4405TIP3    H234707   3.557   4.856  13.612 -0.6201 -0.0585 -0.2446
 4406TIP3   OH234708   3.101   4.301  10.877 -1.1031 -0.2052 -0.2511
 4406TIP3    H134709   3.010   4.307  10.848 -0.8971  2.1267 -0.6195
 4406TIP3    H234710   3.116   4.383  10.923  0.6031 -0.9095  0.5147
 4407TIP3   OH234711   2.530   0.033  14.656 -0.0920  0.1617  0.5407
 4407TIP3    H134712   2.477   0.051  14.578  1.6206 -0.3233 -0.8052
 4407TIP3    H234713   2.468   0.033  14.728 -1.5160  2.3680 -0.5708
 4408TIP3   OH234714   5.584   5.179   2.080 -0.5140 -0.0779 -0.3047
 4408TIP3    H134715   5.569   5.085   2.069  2.7177 -0.4681 -2.8193
 4408TIP3    H234716   5.517   5.221   2.027 -0.2380 -1.1277 -1.5207
 4409TIP3   OH234717   1.055   3.570   3.669  0.0719  0.0425 -0.0716
 4409TIP3    H134718   0.972   3.555   3.715  0.0176 -1.9497 -0.7228
 4409TIP3    H234719   1.042   3.652   3.622 -0.7738  0.8187  1.4323
 4410TIP3   OH234720   0.186   4.527  16.527  0.2437 -0.6329 -0.1386
 4410TIP3    H134721   0.256   4.580  16.489 -0.0962  0.4848  0.7263
 4410TIP3    H234722   0.230   4.476  16.595  0.4158 -0.7831 -0.3615
 4411TIP3   OH234723   4.340   5.048   1.744 -0.2106 -0.0474 -0.0070
 4411TIP3    H134724   4.380   5.135   1.746  0.6605 -0.4556  0.8601
 4411TIP3    H234725   4.382   5.005   1.670 -1.2412  0.5187 -0.9634
 4412TIP3   OH234726   6.008   5.249  16.019 -1.1735  0.3627 -0.2564
 4412TIP3    H134727   6.039   5.165  15.986 -0.4443  1.7445 -3.4825
 4412TIP3    H234728   6.087   5.301  16.031 -1.7575  1.6857 -1.7898
 4413TIP3   OH234729   5.535   2.820   3.949  0.2906  0.2885  0.3525
 4413TIP3    H134730   5.626   2.813   3.919  0.3327 -0.3416  0.6109
 4413TIP3    H234731   5.540   2.804   4.044 -0.3714 -2.3322  0.0168
 4414TIP3   OH234732   0.257   1.139   1.871 -0.0161 -0.1516  0.2025
 4414TIP3    H134733   0.246   1.047   1.847 -0.3985 -0.1100  0.2109
 4414TIP3    H234734   0.276   1.138   1.964 -1.9303 -0.1207  0.6330
 4415TIP3   OH234735   2.498   6.016   0.330 -0.0369 -0.0070 -0.6145
 4415TIP3    H134736   2.428   6.061   0.377 -0.2856 -1.1751  0.1806
 4415TIP3    H234737   2.558   5.988   0.399  1.2212  0.9516 -1.2864
 4416TIP3   OH234738   3.330   3.441  11.195 -0.4754  0.2190 -0.1649
 4416TIP3    H134739   3.331   3.375  11.126 -0.1169 -1.3013  1.2295
 4416TIP3    H234740   3.384   3.404  11.265  1.2843  2.8229 -0.0174
 4417TIP3   OH234741   3.221   1.041   6.309  0.4253  0.3191 -0.0969
 4417TIP3    H134742   3.284   0.974   6.336  0.5684 -0.1976 -1.6184
 4417TIP3    H234743   3.268   1.124   6.318  1.2708 -0.0451 -1.0020
 4418TIP3   OH234744   5.282   4.131   2.610 -0.4106 -0.0990  0.1575
 4418TIP3    H134745   5.284   4.140   2.515  0.5200 -0.7242  0.1120
 4418TIP3    H234746   5.365   4.167   2.640 -0.3573 -0.6337  0.6701
 4419TIP3   OH234747   1.227   0.760  10.852 -0.0430  0.1528 -0.1468
 4419TIP3    H134748   1.278   0.837  10.824  0.1117  0.3643  0.6909
 4419TIP3    H234749   1.287   0.686  10.842 -0.4332  0.0137 -1.6831
 4420TIP3   OH234750   3.051   3.488  12.420 -0.5326 -0.0366 -0.3398
 4420TIP3    H134751   3.126   3.427  12.420 -1.0450 -0.6784 -0.3447
 4420TIP3    H234752   3.023   3.492  12.329  0.3032  1.2352 -0.5647
 4421TIP3   OH234753   4.078   6.784   1.384  0.0079 -0.0456 -0.4506
 4421TIP3    H134754   4.072   6.879   1.382 -0.6882 -0.0879 -0.7200
 4421TIP3    H234755   4.058   6.760   1.474  1.6028  0.1347 -0.0181
 4422TIP3   OH234756   4.063   4.228   6.563  0.4796  0.4364 -0.1094
 4422TIP3    H134757   4.032   4.138   6.563  0.3505  0.4814  0.2977
 4422TIP3    H234758   4.117   4.234   6.484 -0.1424  0.2229 -0.5618
 4423TIP3   OH234759   6.105   0.072  16.461  0.5851 -1.1333 -0.2475
 4423TIP3    H134760   6.093   0.140  16.528  0.5457 -1.5036  0.1290
 4423TIP3    H234761   6.127   0.120  16.381 -0.3491 -0.6293 -0.2086
 4424TIP3   OH234762   2.663   4.402   2.892 -0.2236  0.9054  0.6088
 4424TIP3    H134763   2.670   4.377   2.800 -2.0372  2.0312  0.0966
 4424TIP3    H234764   2.676   4.321   2.941 -2.4913 -0.4007 -0.8000
 4425TIP3   OH234765   2.237   3.601   2.571 -0.2063  0.0950 -0.7073
 4425TIP3    H134766   2.309   3.571   2.515  1.4735  0.1488  1.2975
 4425TIP3    H234767   2.273   3.677   2.616 -1.4690  0.0177  0.4631
 4426TIP3   OH234768   1.008   0.916  15.528 -0.5010 -0.4478  0.0488
 4426TIP3    H134769   1.039   0.878  15.446 -0.8457 -4.1232  1.4334
 4426TIP3    H234770   1.085   0.918  15.584 -0.6630  0.1885  0.2531
 4427TIP3   OH234771   3.241   5.464   5.624 -0.4880  0.4599 -0.0345
 4427TIP3    H134772   3.302   5.538   5.619 -0.7277  0.6919  0.5069
 4427TIP3    H234773   3.182   5.477   5.549 -1.2801  1.4840  0.7355
 4428TIP3   OH234774   1.436   6.271  14.582 -0.2937  0.6801 -0.4507
 4428TIP3    H134775   1.382   6.267  14.661 -1.5496 -1.9533 -1.3300
 4428TIP3    H234776   1.489   6.191  14.585 -1.0469  0.0268 -2.6992
 4429TIP3   OH234777   5.700   2.642  14.948 -0.2367 -0.5592 -0.4091
 4429TIP3    H134778   5.716   2.549  14.929  2.2985 -0.1737 -0.5604
 4429TIP3    H234779   5.742   2.689  14.876  0.4715  0.7247  0.7869
 4430TIP3   OH234780   4.871   2.787   3.588 -0.4511  0.6125  0.0869
 4430TIP3    H134781   4.822   2.831   3.657  0.4148  1.3115  0.2766
 4430TIP3    H234782   4.955   2.832   3.585 -0.7052  1.0679 -1.9026
 4431TIP3   OH234783   3.882   3.272   2.388 -0.2932  0.3984 -0.1448
 4431TIP3    H134784   3.795   3.276   2.349  0.6941 -0.1969 -2.6094
 4431TIP3    H234785   3.890   3.181   2.419 -0.6860  0.5674  0.4636
 4432TIP3   OH234786   0.289   4.976  13.131  0.0999  0.0613  0.3817
 4432TIP3    H134787   0.249   5.007  13.212  0.8252 -2.2643  1.7155
 4432TIP3    H234788   0.251   4.890  13.117 -0.7890  0.7891 -2.3944
 4433TIP3   OH234789   1.650   5.817   2.847 -0.4701  0.5180  0.2867
 4433TIP3    H134790   1.565   5.861   2.842 -0.1823  1.1784  1.0604
 4433TIP3    H234791   1.707   5.880   2.891  1.3147  1.4678 -2.9957
 4434TIP3   OH234792   0.516   4.943  14.297  0.1180  0.2706  0.3370
 4434TIP3    H134793   0.441   4.917  14.350 -1.1082  3.3774  0.3340
 4434TIP3    H234794   0.577   4.869  14.303 -2.8805 -2.4015  0.3419
 4435TIP3   OH234795   0.077   6.704   5.284 -0.2309  0.8163  0.2940
 4435TIP3    H134796   0.097   6.616   5.250  1.7173  0.9135  1.0663
 4435TIP3    H234797   0.007   6.690   5.348 -1.9633  0.2576 -1.6057
 4436TIP3   OH234798   0.938   1.631   1.277  0.2607 -0.1274 -0.4477
 4436TIP3    H134799   0.854   1.612   1.318  0.6507 -0.7148  0.0947
 4436TIP3    H234800   0.951   1.559   1.215  0.7262 -0.4710  0.0399
 4437TIP3   OH234801   0.747   6.570   4.330 -0.3335  0.2728 -0.3215
 4437TIP3    H134802   0.715   6.482   4.351  0.0521 -0.2256 -1.7247
 4437TIP3    H234803   0.670   6.617   4.299 -0.3517  0.1235 -0.5040
 4438TIP3   OH234804   4.021   2.006  12.661  0.2367  0.6233 -0.2736
 4438TIP3    H134805   4.012   1.932  12.601 -2.6432 -0.6280  1.4980
 4438TIP3    H234806   4.016   2.083  12.604 -0.8938 -0.5175 -1.7974
 4439TIP3   OH234807   6.353   5.274   2.603  0.1100 -0.3710  0.3414
 4439TIP3    H134808   6.386   5.335   2.670  2.3037 -1.1174 -0.0048
 4439TIP3    H234809   6.277   5.232   2.645 -0.3020  1.1988  1.2759
 4440TIP3   OH234810   4.493   3.223   4.850 -0.6357 -0.3753 -0.0522
 4440TIP3    H134811   4.501   3.319   4.857 -1.3252 -0.2289 -1.0624
 4440TIP3    H234812   4.404   3.209   4.820 -0.4443 -1.3394 -0.1933
 4441TIP3   OH234813   1.475   5.503   5.949 -0.6468 -0.3495 -0.8444
 4441TIP3    H134814   1.382   5.486   5.938 -1.4288  2.8523  0.0191
 4441TIP3    H234815   1.497   5.566   5.881  1.1195 -1.5106 -1.4414
 4442TIP3   OH234816   5.694   4.529   1.667  0.1191  0.1838  0.8964
 4442TIP3    H134817   5.781   4.525   1.707  1.1351 -0.1352 -1.2033
 4442TIP3    H234818   5.694   4.611   1.618  0.6005 -1.3208 -1.8388
 4443TIP3   OH234819   3.244   4.937   3.365  0.4594  0.3364  0.1297
 4443TIP3    H134820   3.158   4.898   3.347  0.6356  0.9047 -2.2058
 4443TIP3    H234821   3.302   4.862   3.377 -0.1139 -0.0596  0.4746
 4444TIP3   OH234822   3.355   6.008  13.179  0.2050  0.8251 -0.0794
 4444TIP3    H134823   3.367   6.070  13.107 -0.4260  2.4053  1.0968
 4444TIP3    H234824   3.431   6.023  13.236  0.1527  0.3609  0.1159
 4445TIP3   OH234825   6.701   5.745  11.938  0.2878  0.2868 -0.2188
 4445TIP3    H134826   6.737   5.671  11.889  0.5585  0.1467  0.1963
 4445TIP3    H234827   6.729   5.822  11.888  0.0123  0.1203 -0.6463
 4446TIP3   OH234828   0.695   1.648   0.954  0.2555  0.2343  0.1427
 4446TIP3    H134829   0.650   1.679   1.033  1.6688  1.0054  0.6670
 4446TIP3    H234830   0.774   1.702   0.948 -0.5904  1.3374 -2.7044
 4447TIP3   OH234831   0.330   3.670  16.619  0.5671 -0.0510  0.3305
 4447TIP3    H134832   0.341   3.695  16.527  1.0369 -2.8220 -0.4373
 4447TIP3    H234833   0.235   3.675  16.634  0.3095 -1.0447 -0.8031
 4448TIP3   OH234834   4.772   6.791  11.935  0.0171  0.4014  0.9759
 4448TIP3    H134835   4.740   6.782  11.845 -0.8988 -1.0392  1.4132
 4448TIP3    H234836   4.756   6.705  11.975 -0.0526  1.1645  2.6668
 4449TIP3   OH234837   4.003   4.224  13.990  0.7209 -0.4859  0.0038
 4449TIP3    H134838   3.922   4.274  13.982  2.0413  1.6459 -1.4112
 4449TIP3    H234839   3.984   4.140  13.948 -1.2429 -0.8105  1.4002
 4450TIP3   OH234840   4.025   4.993  11.060  0.0982 -0.1693 -0.0057
 4450TIP3    H134841   3.995   4.902  11.071  0.0222 -0.2467 -0.7699
 4450TIP3    H234842   3.947   5.046  11.075  0.9281  0.1208  4.7115
 4451TIP3   OH234843   1.477   5.141  15.747 -0.0728 -0.0321 -0.1001
 4451TIP3    H134844   1.479   5.066  15.689  0.0957 -0.1363  0.0385
 4451TIP3    H234845   1.499   5.106  15.833 -1.2267 -0.0398  0.2077
 4452TIP3   OH234846   6.438   1.900   1.755  0.2031  0.4853  0.5439
 4452TIP3    H134847   6.507   1.961   1.784  0.4126 -0.4216  2.0832
 4452TIP3    H234848   6.483   1.840   1.696  0.1677  1.3087 -0.3591
 4453TIP3   OH234849   4.251   6.375  14.052  0.2199 -0.1085  0.3570
 4453TIP3    H134850   4.314   6.308  14.078 -0.3406 -0.7621  0.0691
 4453TIP3    H234851   4.287   6.413  13.972 -0.4365 -1.4722 -0.6177
 4454TIP3   OH234852   5.094   1.188  14.632 -0.3340  0.1678  0.1753
 4454TIP3    H134853   5.028   1.253  14.610  0.5028  0.8686 -0.2997
 4454TIP3    H234854   5.064   1.108  14.588 -0.8607  0.4798 -0.0401
 4455TIP3   OH234855   4.321   6.252   6.378  0.1763 -0.3530  0.7520
 4455TIP3    H134856   4.413   6.254   6.353 -0.3715  0.1774 -1.4669
 4455TIP3    H234857   4.283   6.185   6.321 -1.5040  2.1466 -1.2780
 4456TIP3   OH234858   5.475   1.636  15.112  0.5844  0.1634 -0.2787
 4456TIP3    H134859   5.534   1.708  15.092 -0.6000  0.9900 -0.9075
 4456TIP3    H234860   5.531   1.558  15.110  1.9885  1.0800  0.9025
 4457TIP3   OH234861   0.992   3.135   1.180 -0.2219 -0.0078 -0.2266
 4457TIP3    H134862   1.074   3.094   1.207 -0.7624 -2.6544 -2.2040
 4457TIP3    H234863   0.927   3.106   1.244 -0.0769  0.0913 -0.0354
 4458TIP3   OH234864   2.434   5.239  15.234 -0.1333  0.3303 -0.1458
 4458TIP3    H134865   2.483   5.228  15.152  0.1321 -1.3325  0.2014
 4458TIP3    H234866   2.476   5.314  15.277 -0.8601  1.8353 -1.8975
 4459TIP3   OH234867   5.800   4.625   2.324  0.2348 -0.4748  0.2490
 4459TIP3    H134868   5.892   4.624   2.351  0.5645  0.7072 -0.6952
 4459TIP3    H234869   5.798   4.567   2.247  0.8418  1.5904 -1.4413
 4460TIP3   OH234870   2.884   1.213   1.706  0.2037  0.2738  0.2094
 4460TIP3    H134871   2.899   1.118   1.703  0.7626  0.3802 -1.1317
 4460TIP3    H234872   2.948   1.245   1.769  2.4751  0.1216 -1.8713
 4461TIP3   OH234873   4.704   1.269   3.432  0.2252 -0.3364  0.0950
 4461TIP3    H134874   4.678   1.344   3.378  1.4436 -0.5382 -0.8143
 4461TIP3    H234875   4.686   1.193   3.378 -0.4325 -0.6646  0.7775
 4462TIP3   OH234876   5.182   0.907   2.243 -0.0014 -0.4147 -0.1206
 4462TIP3    H134877   5.250   0.958   2.199  1.4739 -0.8148  1.5817
 4462TIP3    H234878   5.225   0.824   2.265 -1.3211 -1.0386  0.2017
 4463TIP3   OH234879   6.208   6.133   2.292  0.2447 -0.0242 -0.5327
 4463TIP3    H134880   6.163   6.212   2.320  1.2095  0.2817  0.2418
 4463TIP3    H234881   6.261   6.107   2.368  1.6362 -0.1444 -1.4884
 4464TIP3   OH234882   1.362   4.644   4.014 -0.2978 -0.0588  0.1032
 4464TIP3    H134883   1.274   4.637   3.978 -0.7269 -0.0175  1.1143
 4464TIP3    H234884   1.406   4.708   3.958 -0.9710  0.0690 -0.2833
 4465TIP3   OH234885   4.500   4.149   5.848 -0.1705  0.4529  1.0456
 4465TIP3    H134886   4.458   4.173   5.930  0.3202 -0.4491  1.5726
 4465TIP3    H234887   4.466   4.062   5.827  0.0244  0.4971  0.5116
 4466TIP3   OH234888   5.271   4.333  13.181  0.2108 -0.4271 -0.2987
 4466TIP3    H134889   5.312   4.257  13.140  1.0109 -0.4981  0.5824
 4466TIP3    H234890   5.294   4.325  13.274 -0.4652  0.4053 -0.0470
 4467TIP3   OH234891   1.296   0.709   0.528  0.0925  0.7222  0.0366
 4467TIP3    H134892   1.347   0.780   0.490  0.8856  0.1721  0.0421
 4467TIP3    H234893   1.233   0.753   0.586  0.4226  1.4271 -0.1277
 4468TIP3   OH234894   5.020   4.970   3.043 -0.0848  0.6411  0.0669
 4468TIP3    H134895   5.089   4.905   3.059  0.3473  1.1592  0.3650
 4468TIP3    H234896   4.987   4.991   3.130 -0.5287  0.5003 -0.0663
 4469TIP3   OH234897   0.893   0.303   1.867  0.1237 -0.1622 -0.0286
 4469TIP3    H134898   0.882   0.305   1.772  1.1087 -0.4803 -0.1595
 4469TIP3    H234899   0.818   0.352   1.901 -0.3245 -0.1831 -0.9592
 4470TIP3   OH234900   2.460   5.740  12.134  0.2773 -0.3998  0.4410
 4470TIP3    H134901   2.372   5.712  12.157  0.4585  0.8007  2.9624
 4470TIP3    H234902   2.503   5.660  12.103 -1.1904 -1.3632  0.7818
 4471TIP3   OH234903   2.940   1.449   0.617 -0.1639  0.0130  0.0555
 4471TIP3    H134904   2.863   1.506   0.620 -0.6742 -0.6093 -0.6817
 4471TIP3    H234905   2.931   1.392   0.693 -0.0964  0.3568  0.3229
 4472TIP3   OH234906   3.554   5.053   4.503 -0.1943  0.4517  0.0651
 4472TIP3    H134907   3.616   5.052   4.577  0.5145  2.0019 -0.4669
 4472TIP3    H234908   3.481   5.105   4.535 -0.7336 -0.4214  0.2898
 4473TIP3   OH234909   2.037   0.732  13.599  0.5265  0.3242  0.0966
 4473TIP3    H134910   1.964   0.674  13.618  2.8589 -3.0418 -0.2025
 4473TIP3    H234911   2.020   0.765  13.511  0.7320 -2.9155 -1.2711
 4474TIP3   OH234912   3.270   1.091   4.400 -0.1634 -0.1065  0.0274
 4474TIP3    H134913   3.221   1.039   4.337  1.7224 -0.2012 -1.4187
 4474TIP3    H234914   3.202   1.134   4.453 -1.7700 -1.1881 -1.0710
 4475TIP3   OH234915   0.760   4.273   0.935  0.6432 -0.1079  0.3982
 4475TIP3    H134916   0.665   4.267   0.942  0.2232 -0.0320 -3.2910
 4475TIP3    H234917   0.788   4.312   1.018 -2.4730 -0.4142  1.7205
 4476TIP3   OH234918   2.546   5.945  15.336 -0.0701  0.3526 -0.0080
 4476TIP3    H134919   2.455   5.919  15.354  0.7436 -1.2340  2.2158
 4476TIP3    H234920   2.577   5.983  15.418  0.5408  3.5102 -1.5322
 4477TIP3   OH234921   0.172   1.165   5.502 -0.0929 -0.8621 -0.2734
 4477TIP3    H134922   0.127   1.210   5.430 -0.4487 -2.0912 -0.8473
 4477TIP3    H234923   0.125   1.192   5.580 -0.3130 -0.2676 -0.6019
 4478TIP3   OH234924   5.018   1.980   3.305  0.9791 -0.1070 -0.1269
 4478TIP3    H134925   4.990   1.895   3.338 -0.2846  0.8995  1.5459
 4478TIP3    H234926   4.946   2.008   3.248 -0.6118  1.5508  2.5089
 4479TIP3   OH234927   2.595   6.405  12.610 -0.3673 -0.0184  0.4551
 4479TIP3    H134928   2.553   6.319  12.615  0.1830 -0.3683 -0.5597
 4479TIP3    H234929   2.689   6.386  12.619  0.2888 -0.1789 -4.0665
 4480TIP3   OH234930   3.574   3.166   3.192  0.4092  0.0622  0.4113
 4480TIP3    H134931   3.669   3.162   3.198  0.4312  1.5706  1.4804
 4480TIP3    H234932   3.549   3.236   3.252 -1.3539 -0.1055 -0.0814
 4481TIP3   OH234933   5.908   5.120  14.485  0.9133  0.2915  0.4591
 4481TIP3    H134934   5.824   5.120  14.438  1.0888  1.3784  0.1000
 4481TIP3    H234935   5.887   5.083  14.571  0.3977 -0.8845 -0.1475
 4482TIP3   OH234936   2.720   6.365  13.111 -0.2876 -0.1677  0.2056
 4482TIP3    H134937   2.767   6.346  13.030  0.7502 -0.8155  0.9300
 4482TIP3    H234938   2.761   6.443  13.146 -0.5096 -0.0815  0.2777
 4483TIP3   OH234939   1.972   5.542  14.358 -0.1565  0.1352  0.0033
 4483TIP3    H134940   1.984   5.447  14.358  0.2801  0.1833  1.0060
 4483TIP3    H234941   1.966   5.565  14.265 -4.1186 -1.3120 -0.2582
 4484TIP3   OH234942   2.596   3.058  16.691 -0.1628 -0.0229 -0.8359
 4484TIP3    H134943   2.524   3.061  16.754  0.1976 -2.4518 -0.2283
 4484TIP3    H234944   2.673   3.086  16.740 -0.4326  1.3225 -1.1412
 4485TIP3   OH234945   3.215   3.459  14.828  0.1237 -0.5578  0.5825
 4485TIP3    H134946   3.271   3.455  14.906 -0.1508  0.2062  0.8271
 4485TIP3    H234947   3.128   3.436  14.860  0.2894 -1.7889  0.1932
 4486TIP3   OH234948   2.883   2.736   5.420 -0.1063 -0.0360  0.0499
 4486TIP3    H134949   2.855   2.771   5.504 -4.7941 -2.1393 -0.3224
 4486TIP3    H234950   2.909   2.646   5.439 -0.0878 -0.1777 -0.6094
 4487TIP3   OH234951   2.272   5.034   6.213 -0.1113 -0.0852  0.1773
 4487TIP3    H134952   2.322   5.004   6.289  0.3513 -0.7871 -0.3906
 4487TIP3    H234953   2.274   5.129   6.219  1.0850 -0.1020  0.3124
 4488TIP3   OH234954   2.712   1.998  16.072  0.2003 -0.2481 -0.6461
 4488TIP3    H134955   2.659   1.940  16.127  1.1511  0.5888  1.2423
 4488TIP3    H234956   2.663   2.004  15.990 -2.0389 -0.4534  0.5862
 4489TIP3   OH234957   6.299   1.576  16.839 -0.6784 -0.2729  0.2778
 4489TIP3    H134958   6.255   1.576  16.924 -0.7270  1.9419  0.3276
 4489TIP3    H234959   6.272   1.494  16.797  0.3503 -2.0346  2.8382
 4490TIP3   OH234960   5.784   6.263  12.209  0.0663 -0.3487  0.1027
 4490TIP3    H134961   5.754   6.193  12.266  1.9782 -1.4529 -0.1630
 4490TIP3    H234962   5.859   6.226  12.163  0.3128  1.4474 -1.0332
 4491TIP3   OH234963   0.402   1.851  11.604 -0.0646 -0.1401  0.0797
 4491TIP3    H134964   0.368   1.887  11.523 -1.0718 -0.2859  0.4174
 4491TIP3    H234965   0.496   1.842  11.589  0.0979  1.7464 -0.3407
 4492TIP3   OH234966   5.152   5.319   6.034  0.2251  0.3314  0.7967
 4492TIP3    H134967   5.152   5.397   6.089 -1.4907  0.6153  0.4650
 4492TIP3    H234968   5.231   5.327   5.981  0.5329  1.3922  1.3859
 4493TIP3   OH234969   2.469   1.025  16.779  0.2329 -0.3214 -0.8040
 4493TIP3    H134970   2.390   0.993  16.737 -0.1045 -0.7211  0.1212
 4493TIP3    H234971   2.447   1.030  16.872  1.2018 -0.1622 -0.5714
 4494TIP3   OH234972   0.092   4.553   6.216  0.5621  0.0402  0.3111
 4494TIP3    H134973   0.060   4.551   6.307  0.0938  0.3708  0.1609
 4494TIP3    H234974   0.123   4.643   6.204  0.8655 -0.0752  0.2227
 4495TIP3   OH234975   4.618   2.872   4.494 -0.4398  0.3084 -0.2705
 4495TIP3    H134976   4.612   2.781   4.464 -1.9380 -1.1533  3.7710
 4495TIP3    H234977   4.531   2.892   4.528  0.8359  1.8151  2.4654
 4496TIP3   OH234978   0.583   1.423   5.524 -0.6824  0.4658  0.0472
 4496TIP3    H134979   0.505   1.478   5.523  0.6036  2.6546  2.9870
 4496TIP3    H234980   0.653   1.482   5.551  1.3519 -2.0716  0.7526
 4497TIP3   OH234981   4.785   3.457   2.152  0.1887 -0.3339  0.0721
 4497TIP3    H134982   4.871   3.473   2.113  0.1500 -2.2301 -0.9274
 4497TIP3    H234983   4.723   3.484   2.084  0.0567 -0.9111 -0.0428
 4498TIP3   OH234984   6.664   2.753   3.565  0.0313 -0.4020 -0.1933
 4498TIP3    H134985   6.759   2.751   3.567  0.0532 -0.5831  2.1585
 4498TIP3    H234986   6.641   2.733   3.475  2.2207  0.3619 -0.9769
 4499TIP3   OH234987   6.078   4.338   2.903  0.2028  0.7389  0.2083
 4499TIP3    H134988   6.083   4.377   2.816 -0.6313 -0.4098 -0.3844
 4499TIP3    H234989   5.984   4.336   2.922  0.3180  0.0881  0.7193
 4500TIP3   OH234990   3.286   4.754  11.911  0.5723  0.7657  0.4682
 4500TIP3    H134991   3.272   4.848  11.927  0.8240  0.6730  1.3014
 4500TIP3    H234992   3.349   4.728  11.978  0.4057 -0.0320  0.3219
 4501TIP3   OH234993   1.120   1.134   1.829 -0.4859 -0.2052 -0.1630
 4501TIP3    H134994   1.051   1.190   1.795  1.2220  1.5411 -0.9357
 4501TIP3    H234995   1.109   1.052   1.781 -0.4219  0.9530 -2.2842
 4502TIP3   OH234996   4.677   3.525  13.080  0.0795  0.0951  0.0050
 4502TIP3    H134997   4.749   3.585  13.100  0.4221 -0.2223 -0.2796
 4502TIP3    H234998   4.707   3.440  13.112 -0.7486  0.2149  1.1940
 4503TIP3   OH234999   2.692   3.018  12.341 -0.4005 -0.3350  0.0477
 4503TIP3    H135000   2.776   3.054  12.372 -0.3782 -0.8840  0.6623
 4503TIP3    H235001   2.677   2.942  12.398 -1.2819 -0.2797 -0.1043
 4504TIP3   OH235002   3.490   3.048  13.096  0.1582  0.2482  0.1177
 4504TIP3    H135003   3.549   3.062  13.022 -0.1085 -1.3765 -0.4591
 4504TIP3    H235004   3.548   3.014  13.165  0.2638  0.8879  0.3426
 4505TIP3   OH235005   1.118   0.519  15.175  0.3034 -0.2202  0.3529
 4505TIP3    H135006   1.040   0.546  15.127  0.0030  0.1614  1.0436
 4505TIP3    H235007   1.088   0.448  15.232  0.6275 -0.5711  0.0943
 4506TIP3   OH235008   4.435   1.553  12.363 -0.8587  0.3240 -0.4707
 4506TIP3    H135009   4.356   1.553  12.417 -0.2194 -0.3759  0.5142
 4506TIP3    H235010   4.448   1.644  12.339 -1.9539  0.4452 -0.6284
 4507TIP3   OH235011   0.825   2.049  15.353  0.1709 -0.2009  0.4041
 4507TIP3    H135012   0.918   2.054  15.372 -0.1457  2.8120  1.7670
 4507TIP3    H235013   0.789   1.991  15.420  0.8884 -0.3408  0.6716
 4508TIP3   OH235014   4.223   2.813  15.183  0.6576 -0.2104 -0.3726
 4508TIP3    H135015   4.243   2.906  15.182 -1.9760  0.4404 -0.8368
 4508TIP3    H235016   4.305   2.770  15.161  1.5977  2.0706 -1.5925
 4509TIP3   OH235017   5.044   2.357  15.639 -0.7540 -0.3329 -0.2160
 4509TIP3    H135018   5.071   2.420  15.573 -0.4731 -1.3969 -1.1378
 4509TIP3    H235019   4.978   2.403  15.691  2.0833  2.0469  1.5416
 4510TIP3   OH235020   0.013   3.615   0.648  0.6600  0.2342 -0.0842
 4510TIP3    H135021  -0.013   3.524   0.631  0.5562  0.2952 -0.2549
 4510TIP3    H235022   0.099   3.622   0.608  1.0133 -0.0102  0.6074
 4511TIP3   OH235023   0.463   1.642  16.197  0.2777  0.4619 -0.0115
 4511TIP3    H135024   0.472   1.583  16.272  0.6407 -1.8539 -1.7638
 4511TIP3    H235025   0.368   1.654  16.187  0.1581 -0.5226 -0.1222
 4512TIP3   OH235026   3.158   6.581   6.240 -0.2000 -0.4590  0.1311
 4512TIP3    H135027   3.246   6.583   6.276 -0.3251 -0.6459  0.4546
 4512TIP3    H235028   3.102   6.555   6.313 -0.7342  1.1720  0.3339
 4513TIP3   OH235029   4.114   3.198  14.579 -0.2062  0.9261 -0.1100
 4513TIP3    H135030   4.144   3.268  14.521 -0.2446  1.0092 -0.0285
 4513TIP3    H235031   4.077   3.243  14.655  0.1427  0.8147  0.1301
 4514TIP3   OH235032   6.514   1.590   2.755 -0.2111 -0.2193 -0.0522
 4514TIP3    H135033   6.538   1.683   2.749  0.2516 -0.1525  2.1089
 4514TIP3    H235034   6.584   1.550   2.806 -0.8458 -1.5878 -0.2167
 4515TIP3   OH235035   1.224   5.858  15.011 -0.3682 -0.0944 -0.1493
 4515TIP3    H135036   1.266   5.944  15.020 -0.2481 -0.3714  2.9061
 4515TIP3    H235037   1.143   5.876  14.963 -0.2627  1.7035  0.2854
 4516TIP3   OH235038   4.528   0.496   2.906  0.2432 -0.9016  0.2940
 4516TIP3    H135039   4.448   0.444   2.921 -1.1222 -0.0017 -2.9503
 4516TIP3    H235040   4.597   0.431   2.892 -0.6123 -1.7944  0.1218
 4517TIP3   OH235041   3.570   6.457  13.715  0.0910 -0.2774  0.1400
 4517TIP3    H135042   3.638   6.501  13.664 -1.0691  3.1905  1.2787
 4517TIP3    H235043   3.488   6.491  13.679 -0.9076 -1.6096  1.0868
 4518TIP3   OH235044   3.885   2.300   3.994  0.3488  0.6856 -0.3233
 4518TIP3    H135045   3.871   2.253   4.076  0.3519 -0.1795 -0.8087
 4518TIP3    H235046   3.857   2.390   4.013 -0.6660  0.2558  0.3142
 4519TIP3   OH235047   4.046   5.338  13.548 -0.0155 -0.9490  0.0548
 4519TIP3    H135048   3.975   5.286  13.510 -1.0816 -0.2653  1.0174
 4519TIP3    H235049   4.029   5.335  13.642  1.7715 -1.4882  0.3977
 4520TIP3   OH235050   0.341   3.429   2.036 -0.1262 -0.2522 -0.2778
 4520TIP3    H135051   0.382   3.495   2.092  0.0428 -0.7898  0.2415
 4520TIP3    H235052   0.389   3.348   2.054 -2.3269 -1.2900  1.5310
 4521TIP3   OH235053   0.244   0.927  12.339  0.2236 -0.3411  0.0613
 4521TIP3    H135054   0.177   0.906  12.404  0.5337  1.7159  1.1267
 4521TIP3    H235055   0.196   0.962  12.264  0.0278  0.1301  0.4021
 4522TIP3   OH235056   4.769   1.208  12.083 -0.0730 -0.3311  0.1153
 4522TIP3    H135057   4.803   1.190  12.170  0.5376 -3.3208 -0.6361
 4522TIP3    H235058   4.825   1.158  12.024 -1.8263 -0.2026 -1.7873
 4523TIP3   OH235059   5.948   1.253  13.306  0.1167  0.2724 -0.0142
 4523TIP3    H135060   5.979   1.165  13.329 -2.3225  0.2111  3.7975
 4523TIP3    H235061   5.972   1.307  13.381 -2.6172  1.7337 -0.0790
 4524TIP3   OH235062   2.232   0.634  13.938 -0.1301 -0.4713  0.2147
 4524TIP3    H135063   2.305   0.572  13.932 -2.2068 -2.9463 -1.1987
 4524TIP3    H235064   2.169   0.591  13.995 -0.6962  1.5017  1.1739
 4525TIP3   OH235065   4.851   1.912   4.519 -0.4638  0.4384 -0.2366
 4525TIP3    H135066   4.796   1.902   4.596 -1.0005  0.7167 -0.5805
 4525TIP3    H235067   4.843   1.829   4.472  1.8867 -0.7683  1.2765
 4526TIP3   OH235068   3.766   5.120   3.732 -0.7401 -0.0940  0.4599
 4526TIP3    H135069   3.796   5.163   3.812  0.9632  0.3175 -0.3445
 4526TIP3    H235070   3.722   5.189   3.682  0.8406  0.4380 -0.2524
 4527TIP3   OH235071   0.039   0.151  13.906  0.1676  0.0077  0.0022
 4527TIP3    H135072   0.068   0.071  13.862  1.1938  0.8146 -0.8367
 4527TIP3    H235073   0.119   0.187  13.945  0.0346  1.4781 -1.0390
 4528TIP3   OH235074   3.028   3.026   6.427 -0.2092 -0.2714 -0.3821
 4528TIP3    H135075   2.972   3.060   6.497  1.0288  1.9898 -0.3711
 4528TIP3    H235076   3.101   2.984   6.472  1.2250  2.2467 -0.1420
 4529TIP3   OH235077   1.061   6.783  14.248 -0.6301  0.0697 -0.6742
 4529TIP3    H135078   1.020   6.849  14.192  1.8984  0.8885 -1.7163
 4529TIP3    H235079   1.059   6.822  14.336 -1.2809  0.4681 -0.8621
 4530TIP3   OH235080   4.332   5.125  13.731 -0.1155 -0.0954 -0.6064
 4530TIP3    H135081   4.244   5.090  13.723 -0.5123  1.0723 -1.6684
 4530TIP3    H235082   4.355   5.112  13.823 -1.4158 -0.3531 -0.2999
 4531TIP3   OH235083   4.338   4.742  10.552 -0.3681  0.4667  0.0700
 4531TIP3    H135084   4.400   4.773  10.617 -1.1222 -0.9718  1.5645
 4531TIP3    H235085   4.375   4.659  10.522 -0.1972  0.9545 -1.1210
 4532TIP3   OH235086   2.290   4.706   5.859 -0.3620  0.2350  0.0444
 4532TIP3    H135087   2.251   4.742   5.779 -1.6362  0.2165  0.6263
 4532TIP3    H235088   2.326   4.782   5.905  0.1212  0.2824 -0.4132
 4533TIP3   OH235089   0.034   2.050  13.585  0.4718  0.0857 -0.3068
 4533TIP3    H135090  -0.019   2.105  13.527  1.0073  2.0903  1.0127
 4533TIP3    H235091   0.106   2.019  13.530  1.2414  2.3476 -0.6480
 4534TIP3   OH235092   6.734   1.777  13.132 -0.3755  1.0692  0.1936
 4534TIP3    H135093   6.714   1.684  13.121  1.6963  0.4948  0.7338
 4534TIP3    H235094   6.659   1.813  13.179 -0.8108 -0.5479  0.7979
 4535TIP3   OH235095   5.550   5.034  15.880 -0.2299 -0.2896  0.3509
 4535TIP3    H135096   5.527   4.958  15.935 -0.4987 -1.0342 -0.7507
 4535TIP3    H235097   5.466   5.075  15.860 -0.0946  0.2304  0.8357
 4536TIP3   OH235098   4.326   4.671   5.601  0.5368 -0.0001  0.5841
 4536TIP3    H135099   4.281   4.587   5.593  0.0271  0.3763 -0.7222
 4536TIP3    H235100   4.411   4.658   5.559 -0.2551  0.6125 -1.3323
 4537TIP3   OH235101   5.223   4.800  12.088  0.1776  0.2699 -0.1231
 4537TIP3    H135102   5.299   4.750  12.119 -0.5104 -1.6034 -1.2934
 4537TIP3    H235103   5.260   4.864  12.027  0.8410 -0.5501 -0.6000
 4538TIP3   OH235104   4.079   0.837   4.664  0.0963  0.0685 -0.0691
 4538TIP3    H135105   3.995   0.798   4.639 -0.8932  1.2532  1.2558
 4538TIP3    H235106   4.145   0.775   4.631 -1.3141 -1.3851 -0.2937
 4539TIP3   OH235107   0.715   4.172  11.138  0.1495  0.1225  0.3415
 4539TIP3    H135108   0.701   4.104  11.073  1.2951 -0.7150  0.9416
 4539TIP3    H235109   0.631   4.178  11.184 -0.6125  0.6008 -1.0633
 4540TIP3   OH235110   3.231   0.794  14.538  0.3633  0.0056  0.5060
 4540TIP3    H135111   3.314   0.810  14.584  0.1988 -1.1113  1.2384
 4540TIP3    H235112   3.185   0.731  14.594 -1.1723  0.9243  0.3291
 4541TIP3   OH235113   5.477   1.082  13.226 -0.2568 -0.4368 -0.0458
 4541TIP3    H135114   5.449   1.096  13.316  2.9052 -2.0039  1.3179
 4541TIP3    H235115   5.440   0.997  13.202  0.0786 -0.6834  0.3089
 4542TIP3   OH235116   1.170   6.740   4.163  0.1990 -0.1732  0.0379
 4542TIP3    H135117   1.207   6.710   4.246  0.7093  0.9320  0.2164
 4542TIP3    H235118   1.237   6.797   4.126 -1.3804  2.1355  0.5271
 4543TIP3   OH235119   5.158   4.945   1.028  0.3428  0.0853 -0.3369
 4543TIP3    H135120   5.082   5.002   1.037 -1.0641 -1.8892  1.3243
 4543TIP3    H235121   5.161   4.922   0.935 -0.1241  1.3981 -0.6989
 4544TIP3   OH235122   4.158   0.714   1.581  0.1237  0.2840 -0.0482
 4544TIP3    H135123   4.206   0.700   1.662 -0.8109 -0.9375  0.3253
 4544TIP3    H235124   4.094   0.782   1.602  0.4755  0.6093 -0.0240
 4545TIP3   OH235125   4.754   5.867  15.942  0.0101  0.0366  0.2558
 4545TIP3    H135126   4.787   5.836  15.858  0.2543  1.4967 -0.2117
 4545TIP3    H235127   4.664   5.834  15.946 -0.7226  1.6803 -1.5575
 4546TIP3   OH235128   2.439   0.803   5.786 -0.2410  0.0424 -0.7306
 4546TIP3    H135129   2.356   0.835   5.820 -1.1737 -2.2565 -0.6880
 4546TIP3    H235130   2.422   0.787   5.693  0.3175  0.0195 -0.8314
 4547TIP3   OH235131   6.202   1.995   3.551 -0.0564 -0.1093  0.0266
 4547TIP3    H135132   6.167   1.924   3.497 -1.0117  0.1792  0.2615
 4547TIP3    H235133   6.294   2.002   3.523 -0.2099 -0.7740 -0.6917
 4548TIP3   OH235134   1.932   4.857   3.459 -0.4898  0.0919 -0.2998
 4548TIP3    H135135   2.000   4.899   3.407  1.0008 -0.5706  1.0291
 4548TIP3    H235136   1.917   4.773   3.415  0.7140 -0.4384  0.2626
 4549TIP3   OH235137   5.936   6.077  15.515 -0.2164 -0.4366 -0.6632
 4549TIP3    H135138   5.868   6.141  15.536 -0.6054 -1.3410  0.9817
 4549TIP3    H235139   5.918   6.053  15.424 -1.0411  0.5893 -0.7964
 4550TIP3   OH235140   3.764   0.920   5.647  0.3443  0.1155  0.2674
 4550TIP3    H135141   3.736   0.909   5.738 -0.7510  0.8258  0.0450
 4550TIP3    H235142   3.733   1.007   5.623  4.7833  2.0330  0.6276
 4551TIP3   OH235143   0.142   5.293  11.554  0.4183  0.8128  0.7352
 4551TIP3    H135144   0.216   5.327  11.604 -0.3211  2.3095  0.8433
 4551TIP3    H235145   0.151   5.333  11.467  0.6801 -0.3646  0.1918
 4552TIP3   OH235146   2.053   1.819   1.907 -0.1359  0.4070  0.6551
 4552TIP3    H135147   2.052   1.806   2.002 -1.5637 -0.2671  0.5752
 4552TIP3    H235148   1.978   1.876   1.890  2.5285  4.2265  0.3167
 4553TIP3   OH235149   2.950   2.496  13.523  0.5609  0.3161  0.4345
 4553TIP3    H135150   2.892   2.498  13.448 -0.6554 -0.7943  1.2939
 4553TIP3    H235151   2.899   2.536  13.594  1.6093  1.1796  0.7195
 4554TIP3   OH235152   0.190   4.020   3.797  0.6744 -0.0134 -0.1422
 4554TIP3    H135153   0.275   4.062   3.788  0.1564  1.2526  0.5868
 4554TIP3    H235154   0.203   3.952   3.863  1.9165 -2.2282 -2.4642
 4555TIP3   OH235155   4.816   2.159   1.642 -0.1710 -0.3934  0.1558
 4555TIP3    H135156   4.752   2.089   1.635  0.4872 -1.1017  0.9640
 4555TIP3    H235157   4.768   2.239   1.619 -1.6253 -0.7455  1.7678
 4556TIP3   OH235158   3.976   2.823  15.021 -0.4280  0.3934 -0.2796
 4556TIP3    H135159   3.907   2.876  15.061  0.2839 -0.1286  1.7473
 4556TIP3    H235160   4.043   2.885  14.995 -0.1776  0.6300  0.8805
 4557TIP3   OH235161   6.271   2.161   2.902  0.3853  0.5714 -0.0406
 4557TIP3    H135162   6.356   2.143   2.862  0.2247  0.1483 -0.1944
 4557TIP3    H235163   6.254   2.253   2.883 -0.4391  0.0123 -2.3788
 4558TIP3   OH235164   3.494   1.345  12.676  0.2048 -0.0961 -0.1436
 4558TIP3    H135165   3.495   1.379  12.766 -0.5783  0.9987 -0.5316
 4558TIP3    H235166   3.422   1.282  12.674 -2.2137  2.5012 -0.8745
 4559TIP3   OH235167   2.366   0.266   2.245 -0.1091  0.6843 -0.5209
 4559TIP3    H135168   2.442   0.242   2.192 -1.2427 -2.1416 -1.0408
 4559TIP3    H235169   2.296   0.283   2.182 -0.8721 -0.4732 -0.0193
 4560TIP3   OH235170   6.515   2.130  14.827 -0.3982  0.1164  0.3015
 4560TIP3    H135171   6.421   2.137  14.840 -0.3011  0.7008  0.7637
 4560TIP3    H235172   6.547   2.086  14.906 -0.2267  0.3716  0.3752
 4561TIP3   OH235173   6.783   3.370  13.362  0.3768 -0.1372 -0.2476
 4561TIP3    H135174   6.789   3.295  13.302  1.2577 -0.2630 -0.0249
 4561TIP3    H235175   6.698   3.409  13.344  0.0533 -0.9925 -0.6085
 4562TIP3   OH235176   3.585   3.658   3.002 -0.4962  0.6765 -0.0121
 4562TIP3    H135177   3.531   3.735   2.987 -1.0492  0.2481 -0.2717
 4562TIP3    H235178   3.667   3.692   3.038  0.0370  1.5419 -1.9518
 4563TIP3   OH235179   3.403   0.922   1.212 -0.3300 -0.4546  0.0230
 4563TIP3    H135180   3.478   0.934   1.153 -0.2950 -0.6744  0.0235
 4563TIP3    H235181   3.389   1.009   1.250 -0.3944 -0.2923 -0.3607
 4564TIP3   OH235182   3.202   4.338  14.360 -0.2473 -0.2953 -0.4575
 4564TIP3    H135183   3.162   4.320  14.445  1.9775  1.5319  1.1060
 4564TIP3    H235184   3.294   4.315  14.372  0.1712  0.3215 -2.2565
 4565TIP3   OH235185   5.237   3.404  13.159 -0.2851  0.1055  0.1372
 4565TIP3    H135186   5.231   3.310  13.176  0.6074 -0.0226 -0.1857
 4565TIP3    H235187   5.249   3.410  13.064  0.0206  0.5262  0.2002
 4566TIP3   OH235188   2.334   2.653  17.139  0.0989 -0.2902 -0.4426
 4566TIP3    H135189   2.302   2.741  17.160 -0.0012 -0.8132  1.8362
 4566TIP3    H235190   2.276   2.624  17.068 -0.1159  1.3056 -0.9735
 4567TIP3   OH235191   5.522   4.844   4.096  0.1844 -0.3264 -0.3775
 4567TIP3    H135192   5.516   4.932   4.060  0.8188  0.1845  0.7204
 4567TIP3    H235193   5.612   4.816   4.079  0.4810 -0.0951  0.7207
 4568TIP3   OH235194   3.594   6.455  12.988  0.1590 -0.0752 -0.0702
 4568TIP3    H135195   3.555   6.532  13.029 -1.4123 -1.4215  1.0852
 4568TIP3    H235196   3.619   6.485  12.900  2.0188  2.4347  1.1737
 4569TIP3   OH235197   4.547   2.941  13.225 -0.3471  0.1409  0.0339
 4569TIP3    H135198   4.590   2.898  13.151 -1.2698  0.8753 -0.9656
 4569TIP3    H235199   4.563   3.035  13.210  0.2946  0.2566  1.3140
 4570TIP3   OH235200   4.244   1.266  15.135  0.3535 -0.6242 -0.5401
 4570TIP3    H135201   4.170   1.219  15.173  1.5964 -0.8127  1.8063
 4570TIP3    H235202   4.205   1.345  15.097 -1.0867 -0.8713  0.3398
 4571TIP3   OH235203   4.903   0.613  13.395  0.4073  0.2487  0.3423
 4571TIP3    H135204   4.884   0.704  13.371  0.2585 -0.2934 -1.8169
 4571TIP3    H235205   4.816   0.572  13.400  0.5295 -0.3264 -1.3348
 4572TIP3   OH235206   0.832   5.791   4.357  0.0628  0.1831 -0.1596
 4572TIP3    H135207   0.758   5.845   4.384  0.2963  0.9689 -1.0489
 4572TIP3    H235208   0.889   5.787   4.434 -1.0144 -0.6482  0.6130
 4573TIP3   OH235209   3.550   0.839  11.490  0.3199 -0.4979  1.1185
 4573TIP3    H135210   3.626   0.800  11.533  0.1787  0.4872  2.3241
 4573TIP3    H235211   3.531   0.917  11.541 -0.9439 -0.2219  0.2798
 4574TIP3   OH235212   1.183   6.413   1.177  0.1340 -0.0349 -0.0356
 4574TIP3    H135213   1.257   6.467   1.148 -0.4812 -0.0102 -1.6930
 4574TIP3    H235214   1.205   6.324   1.149 -1.5661  0.3588 -3.0387
 4575TIP3   OH235215   6.134   6.246   4.442 -0.3133  0.0284  0.2126
 4575TIP3    H135216   6.219   6.241   4.487  0.3378  1.4796 -0.7488
 4575TIP3    H235217   6.120   6.340   4.429 -1.8512 -0.2153 -0.0802
 4576TIP3   OH235218   2.600   5.508  13.991  0.7077 -0.0897  0.2113
 4576TIP3    H135219   2.559   5.561  14.059 -1.3277 -1.4680  0.1222
 4576TIP3    H235220   2.693   5.509  14.013  0.2346  0.3384  2.4123
 4577TIP3   OH235221   4.804   6.368   2.920  0.3582 -0.0819  0.0170
 4577TIP3    H135222   4.841   6.300   2.976  1.1520  0.6265  0.3707
 4577TIP3    H235223   4.874   6.433   2.912  0.3650 -0.2841 -2.0086
 4578TIP3   OH235224   6.114   4.388  12.082  0.0089  0.2024  0.3191
 4578TIP3    H135225   6.057   4.454  12.122  0.2019  0.9473 -0.5959
 4578TIP3    H235226   6.180   4.439  12.036  2.1011 -0.6307  2.2145
 4579TIP3   OH235227   4.017   0.273  11.841 -0.2732  0.2108 -0.4481
 4579TIP3    H135228   4.071   0.301  11.766  1.0806  1.2626  0.8634
 4579TIP3    H235229   4.081   0.249  11.908 -1.4696 -0.2147  0.5631
 4580TIP3   OH235230   0.764   0.119   3.434 -0.5423  0.0648  0.6133
 4580TIP3    H135231   0.725   0.143   3.518  0.1800 -1.5110  1.4417
 4580TIP3    H235232   0.693   0.132   3.370 -1.4864  0.1313  1.6456
 4581TIP3   OH235233   1.337   4.866  16.256  0.1609 -0.3700 -0.1995
 4581TIP3    H135234   1.280   4.820  16.195 -1.3029  0.0151  0.8281
 4581TIP3    H235235   1.410   4.896  16.202 -0.6153 -0.8472 -1.5668
 4582TIP3   OH235236   6.211   2.206  15.537  0.3160 -0.6043  0.5021
 4582TIP3    H135237   6.198   2.247  15.451 -1.3581 -1.8896  0.0893
 4582TIP3    H235238   6.126   2.212  15.580  1.1602  0.1060  2.1549
 4583TIP3   OH235239   2.348   4.980  15.251 -0.4859 -1.1187  0.3427
 4583TIP3    H135240   2.265   4.938  15.230 -0.9862 -0.0494  0.1387
 4583TIP3    H235241   2.346   5.063  15.204 -0.3572  0.0136  2.2401
 4584TIP3   OH235242   5.342   6.327  12.056 -0.2948 -0.4405  0.1255
 4584TIP3    H135243   5.250   6.314  12.032 -0.3770 -1.1198  0.7637
 4584TIP3    H235244   5.368   6.245  12.098  0.7028 -0.3748 -0.3331
 4585TIP3   OH235245   2.642   3.903   0.693  0.4963 -0.0528 -0.3002
 4585TIP3    H135246   2.559   3.913   0.647 -0.2471 -0.3424  0.9631
 4585TIP3    H235247   2.703   3.875   0.625  0.2990  2.8920 -1.8829
 4586TIP3   OH235248   5.140   5.135  16.450  0.1198 -0.6401  0.0575
 4586TIP3    H135249   5.120   5.219  16.407  3.0609 -0.2740 -0.8042
 4586TIP3    H235250   5.065   5.080  16.430  0.1326  0.3626 -3.4284
 4587TIP3   OH235251   5.981   1.927   1.907  0.1335  0.5209 -0.2261
 4587TIP3    H135252   5.945   2.014   1.889 -0.4000  0.3979  0.2013
 4587TIP3    H235253   5.985   1.884   1.821  1.8352  1.4803 -0.6631
 4588TIP3   OH235254   3.740   6.127  15.842 -0.2758  0.2359  0.3535
 4588TIP3    H135255   3.728   6.058  15.908 -0.8442 -0.0013  0.0042
 4588TIP3    H235256   3.661   6.181  15.849  0.0690  0.7365  0.4744
 4589TIP3   OH235257   5.031   3.474  17.173 -0.3285  0.5392 -0.1127
 4589TIP3    H135258   4.949   3.523  17.184 -0.6161  0.0638 -0.1362
 4589TIP3    H235259   5.042   3.469  17.078  0.5927  2.0283 -0.1272
 4590TIP3   OH235260   5.725   0.125  11.072  0.3785 -0.0319 -0.7752
 4590TIP3    H135261   5.683   0.050  11.029  0.4873 -0.1505 -0.6768
 4590TIP3    H235262   5.818   0.106  11.067  0.3460 -1.0236  1.2372
 4591TIP3   OH235263   2.654   5.707   3.133 -0.2069 -0.0921  0.3989
 4591TIP3    H135264   2.599   5.678   3.205 -1.1021 -0.2915 -0.3480
 4591TIP3    H235265   2.633   5.800   3.123  2.1437  0.7613  2.3331
 4592TIP3   OH235266   1.595   2.742  15.496  0.0492 -0.1133  0.3266
 4592TIP3    H135267   1.596   2.656  15.538 -0.8928 -0.3559 -0.1112
 4592TIP3    H235268   1.510   2.746  15.452  0.6201  0.5125 -0.7575
 4593TIP3   OH235269   5.999   3.644   5.697 -1.0187  0.5989 -0.0395
 4593TIP3    H135270   6.036   3.619   5.782 -1.3625 -1.1442 -0.3659
 4593TIP3    H235271   6.075   3.664   5.643 -0.7541  0.7082  0.3614
 4594TIP3   OH235272   0.410   4.447  11.393  0.4104  0.0249 -0.3241
 4594TIP3    H135273   0.490   4.421  11.347  0.4326 -0.4193 -0.0407
 4594TIP3    H235274   0.349   4.376  11.377  0.2510  0.1082 -0.0887
 4595TIP3   OH235275   2.940   5.019  11.606  0.3031  0.7325  0.2937
 4595TIP3    H135276   2.900   5.059  11.683  0.4412 -0.3705  0.9732
 4595TIP3    H235277   3.032   5.045  11.611  0.3154  0.6501  0.5190
 4596TIP3   OH235278   4.021   4.649  12.627 -0.3417  0.2440 -0.1014
 4596TIP3    H135279   4.081   4.613  12.562 -0.8104  2.0771 -1.6698
 4596TIP3    H235280   3.935   4.643  12.585 -0.9070 -0.1073  1.0913
 4597TIP3   OH235281   3.115   1.593  13.628 -0.2848  0.3304 -0.2924
 4597TIP3    H135282   3.084   1.511  13.588 -0.8618  0.0931  0.5982
 4597TIP3    H235283   3.194   1.567  13.676 -0.2880  0.3638 -0.2700
 4598TIP3   OH235284   4.006   6.650   4.152 -0.2035 -0.3333  0.0219
 4598TIP3    H135285   4.063   6.700   4.210  0.8587 -0.2396 -1.0745
 4598TIP3    H235286   4.020   6.689   4.065 -0.9542 -1.1663 -0.4904
 4599TIP3   OH235287   6.564   5.491  13.006  1.0347 -0.4415 -0.7809
 4599TIP3    H135288   6.526   5.494  12.918  0.2864 -0.5835 -0.4760
 4599TIP3    H235289   6.489   5.507  13.064  1.3400 -1.2687 -0.1411
 4600TIP3   OH235290   5.120   2.591  17.122  0.1342  0.2600 -0.1863
 4600TIP3    H135291   5.036   2.548  17.136 -1.0543  3.0487  2.3108
 4600TIP3    H235292   5.118   2.617  17.030 -0.1096 -2.6894 -1.1118
 4601TIP3   OH235293   5.055   1.534   0.452 -0.0250  0.3289 -0.0478
 4601TIP3    H135294   4.970   1.573   0.471 -0.0252  0.1945  0.2397
 4601TIP3    H235295   5.095   1.593   0.388 -0.8675 -0.2857 -1.1854
 4602TIP3   OH235296   4.989   2.087   2.558  0.0180 -0.1500  0.1517
 4602TIP3    H135297   5.063   2.036   2.591 -0.3535 -0.2204  0.8926
 4602TIP3    H235298   5.008   2.177   2.585  2.3403  0.8528 -3.9318
 4603TIP3   OH235299   2.319   4.121   3.156 -0.2938 -0.3485  0.0446
 4603TIP3    H135300   2.347   4.049   3.099 -0.8583 -1.1704  0.7789
 4603TIP3    H235301   2.401   4.155   3.192  0.1182  0.4971 -1.5771
 4604TIP3   OH235302   3.509   6.297   5.984  0.0819 -0.2588 -0.0168
 4604TIP3    H135303   3.476   6.358   5.918  0.8839 -3.0083 -3.2593
 4604TIP3    H235304   3.603   6.314   5.988  0.1017 -0.3918  0.1006
 4605TIP3   OH235305   5.141   2.809  11.353  0.3827 -0.3923 -0.2695
 4605TIP3    H135306   5.151   2.714  11.347 -1.6061 -0.5439 -2.4441
 4605TIP3    H235307   5.046   2.824  11.350  0.6797  1.7106 -1.6190
 4606TIP3   OH235308   1.340   5.759   5.599  0.1699 -0.2735 -0.2914
 4606TIP3    H135309   1.289   5.700   5.654  2.0915 -1.0575  0.7853
 4606TIP3    H235310   1.322   5.731   5.509  0.2258 -1.8308  0.1569
 4607TIP3   OH235311   0.782   3.156  13.742  0.1853 -1.0546 -0.2904
 4607TIP3    H135312   0.849   3.204  13.693 -0.5864  0.4708  0.0990
 4607TIP3    H235313   0.803   3.172  13.834 -0.8279 -0.3496 -0.1634
 4608TIP3   OH235314   3.414   2.147   5.190  0.5572  0.0659  0.1345
 4608TIP3    H135315   3.330   2.149   5.235 -1.3864 -1.4055 -3.0831
 4608TIP3    H235316   3.421   2.057   5.155  4.2926 -0.4033  1.5943
 4609TIP3   OH235317   4.032   6.429   2.817 -0.1303 -0.1290  0.3544
 4609TIP3    H135318   4.049   6.335   2.817 -0.8237 -0.2814 -1.1047
 4609TIP3    H235319   3.957   6.440   2.876 -0.1992 -0.5184  0.3413
 4610TIP3   OH235320   6.778   3.647   5.313 -0.4053  0.1316  0.0220
 4610TIP3    H135321   6.692   3.650   5.355 -0.7138  1.7348 -0.6607
 4610TIP3    H235322   6.816   3.564   5.343 -1.3537  0.3334  1.9598
 4611TIP3   OH235323   4.207   0.946   2.823  0.2024  0.3974  0.1529
 4611TIP3    H135324   4.208   1.041   2.831 -2.2943  0.6741 -1.4941
 4611TIP3    H235325   4.267   0.927   2.751  0.3950  0.7558  0.2177
 4612TIP3   OH235326   6.378   6.505  11.647 -0.7284 -0.1605  0.1404
 4612TIP3    H135327   6.451   6.558  11.616 -1.6534  1.8691  1.2313
 4612TIP3    H235328   6.342   6.465  11.568  0.5426  0.1147 -0.6011
 4613TIP3   OH235329   5.901   0.277  16.853  0.2391 -0.0635  0.0675
 4613TIP3    H135330   5.943   0.217  16.915  1.0002  0.9400  0.5657
 4613TIP3    H235331   5.887   0.357  16.904 -1.8004 -0.1745 -0.2571
 4614TIP3   OH235332   6.727   5.411   0.826  0.3166  0.6997  0.2540
 4614TIP3    H135333   6.713   5.323   0.793 -3.0507  1.3191 -0.3825
 4614TIP3    H235334   6.742   5.464   0.748 -0.2549  1.0418  0.3630
 4615TIP3   OH235335   1.464   0.486  15.031 -0.2434  0.2949  0.3162
 4615TIP3    H135336   1.515   0.516  14.955  1.0709 -0.6027  0.8072
 4615TIP3    H235337   1.528   0.440  15.085 -1.3031  0.3647  1.6632
 4616TIP3   OH235338   4.433   0.841  11.359  0.3574 -0.1465 -0.1699
 4616TIP3    H135339   4.398   0.827  11.447 -0.3739 -1.1225 -0.5920
 4616TIP3    H235340   4.500   0.908  11.370 -0.5645  0.6288  0.9279
 4617TIP3   OH235341   4.365   0.032   3.359 -0.2189  0.4210 -0.8882
 4617TIP3    H135342   4.314  -0.047   3.377  1.6438 -0.4837  0.7956
 4617TIP3    H235343   4.414   0.012   3.279 -0.4788  0.2371 -0.9986
 4618TIP3   OH235344   3.337   2.611  11.089  0.0987  0.6916  0.2866
 4618TIP3    H135345   3.302   2.686  11.137 -2.4500 -0.6126  0.6363
 4618TIP3    H235346   3.294   2.616  11.004  0.9468  0.3571 -0.1629
 4619TIP3   OH235347   2.864   1.058   0.131 -0.0496 -0.1950  0.1762
 4619TIP3    H135348   2.939   0.999   0.138 -0.9211 -1.6844 -1.9738
 4619TIP3    H235349   2.800   1.024   0.193 -0.1899 -0.9725 -0.3842
 4620TIP3   OH235350   1.422   2.498  14.120  0.3893  0.7851  0.5447
 4620TIP3    H135351   1.374   2.455  14.049 -0.2405  1.3476  0.6193
 4620TIP3    H235352   1.397   2.449  14.199 -1.5596  2.2071  0.8662
 4621TIP3   OH235353   6.406   0.743  12.328  0.3453 -0.6290 -0.4238
 4621TIP3    H135354   6.446   0.672  12.378  0.3859 -0.2788  0.0473
 4621TIP3    H235355   6.357   0.699  12.258 -2.3560 -1.3563  1.7313
 4622TIP3   OH235356   3.155   2.519  11.790 -0.7874 -0.1420 -0.0393
 4622TIP3    H135357   3.160   2.612  11.815  0.6278 -0.2559  0.2148
 4622TIP3    H235358   3.143   2.473  11.873  2.5334 -0.4204  0.4408
 4623TIP3   OH235359   3.776   5.252  14.662 -0.1151 -0.1325 -0.7784
 4623TIP3    H135360   3.739   5.330  14.702 -1.3538 -1.1827  0.2193
 4623TIP3    H235361   3.870   5.258  14.679 -0.1736  1.2050 -0.8644
 4624TIP3   OH235362   5.735   0.291  13.475  0.4898  0.3292 -0.2848
 4624TIP3    H135363   5.664   0.228  13.486 -0.2341  1.3346  1.3104
 4624TIP3    H235364   5.728   0.321  13.385 -2.3156  1.7062  0.2738
 4625TIP3   OH235365   3.280   5.765  12.606  0.6000  0.5191 -0.0197
 4625TIP3    H135366   3.365   5.772  12.649  0.4912  1.4720  0.0565
 4625TIP3    H235367   3.301   5.745  12.515  0.9095  0.8120 -0.0142
 4626TIP3   OH235368   2.574   0.865  12.011  0.2428  0.3575  0.4192
 4626TIP3    H135369   2.578   0.951  11.969 -1.4428 -0.5176 -1.7256
 4626TIP3    H235370   2.558   0.804  11.939  0.2586 -1.6278  2.0132
 4627TIP3   OH235371   5.013   5.543   2.998  0.2617  0.0768  0.3012
 4627TIP3    H135372   5.078   5.600   3.039  0.7977  1.6085 -2.4042
 4627TIP3    H235373   5.049   5.455   3.006  1.4460  0.6091  1.0478
 4628TIP3   OH235374   3.066   0.037  16.193  0.5540 -0.2858 -0.4785
 4628TIP3    H135375   3.050   0.121  16.235  1.7886  0.0911 -0.7184
 4628TIP3    H235376   3.112   0.059  16.112  2.0077 -1.2296  0.0394
 4629TIP3   OH235377   1.102   1.843  15.769  0.0439  0.2048 -0.1826
 4629TIP3    H135378   1.185   1.878  15.801  0.1890 -0.2199 -0.0893
 4629TIP3    H235379   1.051   1.826  15.849  0.0494  0.0242 -0.2166
 4630TIP3   OH235380   2.982   0.126   3.608 -0.2265  0.6879 -0.2117
 4630TIP3    H135381   3.039   0.084   3.543 -0.9120 -0.8872  0.1522
 4630TIP3    H235382   3.039   0.144   3.682 -0.4054 -2.4827  0.8675
 4631TIP3   OH235383   1.798   5.168  17.065  0.2977 -0.0603 -0.4346
 4631TIP3    H135384   1.881   5.152  17.110  1.1106 -1.6046 -2.3675
 4631TIP3    H235385   1.792   5.099  16.999 -2.8207 -0.3330 -0.0191
 4632TIP3   OH235386   0.112   2.295  17.007 -0.4886 -0.2767 -0.0559
 4632TIP3    H135387   0.078   2.216  16.966  0.5321 -0.3019 -0.8697
 4632TIP3    H235388   0.090   2.366  16.946  1.8832 -0.4420 -1.1753
 4633TIP3   OH235389   0.997   6.172   2.217  0.7105 -0.3851  0.4295
 4633TIP3    H135390   1.049   6.170   2.137 -0.2638  1.0271 -0.2755
 4633TIP3    H235391   1.043   6.113   2.277  3.6299  1.4152  0.1806
 4634TIP3   OH235392   5.629   4.383  11.844 -0.1109  0.7150  0.4596
 4634TIP3    H135393   5.703   4.435  11.874 -0.3954  1.5048 -0.1769
 4634TIP3    H235394   5.640   4.298  11.887  1.5614  0.5716 -0.1954
 4635TIP3   OH235395   6.249   1.123   5.059 -1.0660 -0.0617 -0.3716
 4635TIP3    H135396   6.318   1.174   5.102 -0.3634 -0.6353 -0.7963
 4635TIP3    H235397   6.230   1.171   4.979 -0.5802 -0.3182 -0.6490
 4636TIP3   OH235398   0.775   4.360  10.922 -0.0237 -0.3304 -0.0312
 4636TIP3    H135399   0.758   4.282  10.974 -1.3877  1.1698  1.9145
 4636TIP3    H235400   0.785   4.430  10.986  0.8160  1.1678 -1.7195
 4637TIP3   OH235401   6.436   3.317   4.286  0.6006  0.3040  0.1412
 4637TIP3    H135402   6.460   3.363   4.367  0.3519  1.1633 -0.2624
 4637TIP3    H235403   6.479   3.232   4.294  0.3100  0.2478  1.3230
 4638TIP3   OH235404   0.644   6.143  12.617 -0.0423 -0.3813 -0.7827
 4638TIP3    H135405   0.631   6.231  12.651 -1.1168 -1.1326  0.9034
 4638TIP3    H235406   0.738   6.136  12.602  0.1822  0.7277  0.0214
 4639TIP3   OH235407   3.880   4.508   1.327  0.2668 -0.6166 -0.2068
 4639TIP3    H135408   3.877   4.445   1.400  1.6096 -1.5026 -0.8794
 4639TIP3    H235409   3.833   4.464   1.256  0.3901 -0.4596 -0.3857
 4640TIP3   OH235410   3.587   0.879   3.180 -0.3360  0.9845  0.3657
 4640TIP3    H135411   3.501   0.865   3.142 -0.1297 -0.3904  0.3621
 4640TIP3    H235412   3.648   0.839   3.118  0.2759  1.5507  0.5834
 4641TIP3   OH235413   6.588   1.311  12.845 -0.2648 -0.2001  0.0471
 4641TIP3    H135414   6.577   1.363  12.766 -0.0106  0.1951  0.2704
 4641TIP3    H235415   6.682   1.316  12.864 -0.7281  2.5553  2.2903
 4642TIP3   OH235416   2.637   1.357   0.596  0.0859  0.4476 -0.2641
 4642TIP3    H135417   2.667   1.266   0.605 -0.1959  0.4842  1.6576
 4642TIP3    H235418   2.557   1.360   0.649 -1.9418  0.9937 -3.1065
 4643TIP3   OH235419   3.045   5.661  16.039  0.4186 -0.4764 -0.0605
 4643TIP3    H135420   3.004   5.711  16.110 -2.9039 -0.9967 -1.4232
 4643TIP3    H235421   3.055   5.723  15.968 -1.4788 -1.1328 -0.9483
 4644TIP3   OH235422   6.141   0.993  12.857 -0.0113  0.5939  0.1412
 4644TIP3    H135423   6.160   0.913  12.907 -0.6331  0.1682 -0.2890
 4644TIP3    H235424   6.221   1.008  12.806  0.2133  0.4007  0.4307
 4645TIP3   OH235425   0.362   5.092  14.081 -0.5773 -0.0768  0.1227
 4645TIP3    H135426   0.428   5.088  14.012 -1.5978  1.9182 -1.0607
 4645TIP3    H235427   0.402   5.046  14.154  1.4281 -0.4158 -1.0867
 4646TIP3   OH235428   2.868   3.458  13.128  0.1511  0.1064 -0.1703
 4646TIP3    H135429   2.943   3.401  13.111  0.1379 -0.1788  0.6983
 4646TIP3    H235430   2.816   3.453  13.048  0.9216  0.1025 -0.6875
 4647TIP3   OH235431   1.898   1.184  13.997 -0.4848  0.0173  0.3805
 4647TIP3    H135432   1.911   1.152  13.907  0.9342 -1.3935  1.0443
 4647TIP3    H235433   1.981   1.224  14.021 -0.5960 -0.2911  1.3219
 4648TIP3   OH235434   6.653   0.866   0.449  0.5390 -0.2091 -0.2637
 4648TIP3    H135435   6.614   0.953   0.453  1.6478  0.3262 -0.8310
 4648TIP3    H235436   6.677   0.853   0.358 -0.2770 -1.4273 -0.3363
 4649TIP3   OH235437   1.682   1.430  13.833  0.1698 -0.3256 -0.2599
 4649TIP3    H135438   1.760   1.467  13.874 -1.2603  0.4778  1.9355
 4649TIP3    H235439   1.609   1.472  13.879 -1.5732 -1.0279 -2.2402
 4650TIP3   OH235440   3.564   6.354   2.463  0.2923 -0.2525  0.6318
 4650TIP3    H135441   3.660   6.345   2.464  0.4718  0.2286 -2.4234
 4650TIP3    H235442   3.549   6.447   2.448 -0.6877 -0.2745  1.4239
 4651TIP3   OH235443   3.318   2.220  14.318 -0.2033  0.0121  0.1050
 4651TIP3    H135444   3.383   2.282  14.284  0.3948 -0.9182 -0.4666
 4651TIP3    H235445   3.246   2.276  14.347  0.7074  1.0533  0.4762
 4652TIP3   OH235446   4.145   0.522  11.305 -0.9872  0.5044 -0.1143
 4652TIP3    H135447   4.213   0.478  11.254 -0.5909 -0.3328  1.0857
 4652TIP3    H235448   4.088   0.563  11.240  0.8534  1.5405 -1.1610
 4653TIP3   OH235449   3.864   3.432  13.743 -0.2536  0.1440  0.5794
 4653TIP3    H135450   3.769   3.433  13.728 -0.1380  1.3286 -0.2065
 4653TIP3    H235451   3.896   3.509  13.696  1.1041 -0.2433  0.8432
 4654TIP3   OH235452   4.416   2.485   2.014  0.5971 -0.5909  0.1181
 4654TIP3    H135453   4.442   2.567   2.055  0.0378 -0.0589 -0.5674
 4654TIP3    H235454   4.372   2.511   1.934  0.8286 -1.5857 -0.3445
 4655TIP3   OH235455   1.532   3.349   5.158 -0.3757 -0.6021  0.2324
 4655TIP3    H135456   1.536   3.298   5.078  0.0853 -2.1058  1.1808
 4655TIP3    H235457   1.439   3.364   5.172 -0.4174  0.7804 -1.2214
 4656TIP3   OH235458   1.671   2.141  13.501 -0.0808 -0.1255  0.5702
 4656TIP3    H135459   1.640   2.201  13.434  1.3448  0.9162  0.8226
 4656TIP3    H235460   1.648   2.054  13.467 -0.9842  0.4678 -0.4070
 4657TIP3   OH235461   2.551   1.762  10.964  0.3769  0.0714  0.5298
 4657TIP3    H135462   2.585   1.697  10.903  2.1936 -0.4647  2.0028
 4657TIP3    H235463   2.585   1.845  10.931 -1.0183  0.1773 -0.7296
 4658TIP3   OH235464   5.676   5.273   0.872  0.2970  0.3400 -0.4507
 4658TIP3    H135465   5.643   5.350   0.825  1.1959  1.0363  0.0364
 4658TIP3    H235466   5.622   5.201   0.840 -2.8027  1.6347  1.3926
 4659TIP3   OH235467   3.317   6.291   2.215 -0.4631 -0.2529  0.5094
 4659TIP3    H135468   3.298   6.337   2.296  1.1435  0.4790  0.5112
 4659TIP3    H235469   3.280   6.347   2.146  0.1267  0.2648  0.6094
 4660TIP3   OH235470   0.063   0.406  13.785 -0.1965  0.8584  0.2758
 4660TIP3    H135471   0.143   0.407  13.733 -0.1822  0.6498  0.2942
 4660TIP3    H235472   0.032   0.315  13.782  0.1571  0.6940  1.1694
 4661TIP3   OH235473   0.624   4.080  16.692  0.3603 -0.1568 -0.0003
 4661TIP3    H135474   0.707   4.048  16.728 -0.2846 -0.3790  1.3426
 4661TIP3    H235475   0.636   4.074  16.597  1.8073 -0.3546  0.1648
 4662TIP3   OH235476   6.795   6.251   5.366 -0.2846 -0.5084  0.2297
 4662TIP3    H135477   6.736   6.311   5.321 -0.9062 -1.3753 -0.1356
 4662TIP3    H235478   6.740   6.206   5.430  0.1799 -0.6719  0.5254
 4663TIP3   OH235479   5.594   1.390   4.911 -0.3403  0.2349  0.3560
 4663TIP3    H135480   5.532   1.320   4.891  0.9276 -0.6418 -0.6132
 4663TIP3    H235481   5.574   1.459   4.847 -0.3665 -0.0141  0.0940
 4664TIP3   OH235482   5.230   5.776  16.953  0.7377 -0.3929  0.4609
 4664TIP3    H135483   5.150   5.737  16.919  0.1548  0.1936  1.1112
 4664TIP3    H235484   5.273   5.816  16.877 -0.7612  1.2978  0.4283
 4665TIP3   OH235485   0.201   0.440  10.607  0.1805 -0.3956 -0.8954
 4665TIP3    H135486   0.264   0.489  10.659 -0.7698  0.1870 -0.2729
 4665TIP3    H235487   0.141   0.506  10.573 -1.4060 -1.1144  0.3567
 4666TIP3   OH235488   2.908   3.050  14.121  0.4974  0.1650 -0.3502
 4666TIP3    H135489   2.925   3.078  14.032  1.0093 -0.3019 -0.4005
 4666TIP3    H235490   2.812   3.049  14.128  0.4565  0.2046 -0.8872
 4667TIP3   OH235491   3.848   0.785  13.817  0.1422 -0.2295 -0.0751
 4667TIP3    H135492   3.922   0.757  13.763  0.7635  0.3797  0.4531
 4667TIP3    H235493   3.802   0.849  13.763  0.0907 -0.4811 -0.3342
 4668TIP3   OH235494   4.467   5.369  15.951  0.2032  0.2567  0.3541
 4668TIP3    H135495   4.424   5.392  16.034  1.3607  0.5072  0.9086
 4668TIP3    H235496   4.425   5.424  15.886 -0.7578  0.0237  0.7596
 4669TIP3   OH235497   3.437   1.998   1.194  0.7683 -0.2426  0.3795
 4669TIP3    H135498   3.377   1.942   1.143  2.5415 -1.0094 -0.9712
 4669TIP3    H235499   3.442   2.079   1.143  2.2102 -0.8464 -0.4767
 4670TIP3   OH235500   0.088   1.965  16.425 -0.4717  0.2575  0.0585
 4670TIP3    H135501   0.025   1.909  16.470 -0.1463  0.9035  1.3884
 4670TIP3    H235502   0.169   1.915  16.426 -0.8087 -0.3374 -1.1470
 4671TIP3   OH235503   2.759   4.132  15.497  0.3081 -0.0795 -0.1833
 4671TIP3    H135504   2.844   4.167  15.471  0.5121 -0.4563 -0.0324
 4671TIP3    H235505   2.778   4.079  15.575 -0.1981  0.5527  0.3798
 4672TIP3   OH235506   6.480   3.134  14.132 -0.5031 -0.4906 -0.0419
 4672TIP3    H135507   6.565   3.135  14.176  0.0693 -0.0515 -1.1151
 4672TIP3    H235508   6.431   3.065  14.175  0.6277 -1.1760  0.1830
 4673TIP3   OH235509   3.178   2.358   2.976  0.0223  0.3847  0.2292
 4673TIP3    H135510   3.253   2.390   2.925 -1.7439  2.1252 -1.4782
 4673TIP3    H235511   3.179   2.263   2.964  1.5403  0.4516 -0.3356
 4674TIP3   OH235512   2.944   2.295  15.997  0.3032 -0.1890  0.8743
 4674TIP3    H135513   2.919   2.262  15.911 -1.4624 -0.7118  1.5373
 4674TIP3    H235514   2.980   2.382  15.980  0.3844 -0.4602 -0.4307
 4675TIP3   OH235515   4.185   1.794  11.219  0.0253 -0.8102 -0.0855
 4675TIP3    H135516   4.113   1.774  11.160  0.5764 -1.1106 -0.6615
 4675TIP3    H235517   4.192   1.717  11.275  0.9086 -1.4499 -1.0557
 4676TIP3   OH235518   0.371   4.214  17.014 -0.4845 -0.0494  0.1859
 4676TIP3    H135519   0.412   4.296  16.986  2.6180 -0.3451  3.1416
 4676TIP3    H235520   0.343   4.231  17.104 -0.9006 -1.8531  0.4437
 4677TIP3   OH235521   3.997   6.089  15.397  0.4533 -0.1064  0.0360
 4677TIP3    H135522   3.915   6.039  15.395  0.7979 -0.6829 -0.6869
 4677TIP3    H235523   3.992   6.145  15.319  1.4220 -1.3220 -0.9493
 4678TIP3   OH235524   3.302   1.140   0.053  0.3502 -0.0105  0.4980
 4678TIP3    H135525   3.256   1.067   0.093 -0.9615  1.2422  1.3480
 4678TIP3    H235526   3.258   1.154  -0.031  0.7845 -0.3517  0.2055
 4679TIP3   OH235527   3.682   2.722  11.168  0.0368 -0.3500 -0.6969
 4679TIP3    H135528   3.760   2.777  11.177 -1.3392  1.5056  0.6714
 4679TIP3    H235529   3.613   2.782  11.138 -0.9160 -1.9198 -1.8452
 4680TIP3   OH235530   4.963   2.541   1.015  0.4632  0.1217  0.4497
 4680TIP3    H135531   4.991   2.600   0.944 -1.6845 -1.0497 -1.4859
 4680TIP3    H235532   5.042   2.493   1.038  1.0417 -0.1820 -1.9019
 4681TIP3   OH235533   1.349   5.850   1.203 -0.4081  0.3574  0.4434
 4681TIP3    H135534   1.378   5.785   1.139 -0.6245 -0.6433  1.3438
 4681TIP3    H235535   1.261   5.823   1.227 -0.4120  0.8543  1.0123
 4682TIP3   OH235536   1.008   1.707   1.685  0.5359  0.0395  0.9742
 4682TIP3    H135537   1.034   1.616   1.673 -0.3895 -0.1893  0.6345
 4682TIP3    H235538   0.915   1.703   1.710  0.5710  0.8717  1.2822
 4683TIP3   OH235539   2.546   4.946   4.228  0.0170 -0.9314 -0.4932
 4683TIP3    H135540   2.620   4.933   4.286  0.1117  2.1114  0.2361
 4683TIP3    H235541   2.469   4.928   4.282 -0.0644  4.3599  1.8000
 4684TIP3   OH235542   2.537   2.006  16.402  0.1006 -0.4679  0.1105
 4684TIP3    H135543   2.567   1.921  16.370  1.1710 -0.4747  1.1096
 4684TIP3    H235544   2.452   1.988  16.441  0.6592 -1.2309  0.9935
 4685TIP3   OH235545   5.239   3.166  15.014  0.0335 -0.5372  0.4933
 4685TIP3    H135546   5.174   3.227  15.050  0.0616  0.2081 -0.6830
 4685TIP3    H235547   5.321   3.215  15.015 -0.0799 -0.2835 -1.1080
 4686TIP3   OH235548   6.627   1.683   5.038  0.5506 -0.4606  0.0539
 4686TIP3    H135549   6.602   1.591   5.047  1.3540 -0.7173 -0.2847
 4686TIP3    H235550   6.667   1.690   4.951 -2.9967  1.0473 -1.6653
 4687TIP3   OH235551   4.860   1.652   4.856 -0.0053  0.3938 -0.0251
 4687TIP3    H135552   4.799   1.580   4.842 -1.2400  0.5504  3.5396
 4687TIP3    H235553   4.808   1.731   4.839  0.5364  0.5218 -1.1980
 4688TIP3   OH235554   1.572   3.337   5.642  0.3983 -0.0195 -0.1734
 4688TIP3    H135555   1.578   3.276   5.716  1.1656  0.6214  0.3072
 4688TIP3    H235556   1.656   3.382   5.641 -0.8903  2.6479  0.9230
 4689TIP3   OH235557   0.280   0.311   1.780 -0.0304 -0.3503 -0.0967
 4689TIP3    H135558   0.212   0.362   1.824  0.7854  0.3932  0.3277
 4689TIP3    H235559   0.270   0.331   1.687 -0.0855  0.1279  0.0138
 4690TIP3   OH235560   6.373   5.554  11.193  0.4228 -0.4452  0.1561
 4690TIP3    H135561   6.345   5.531  11.104 -0.2677  2.8685 -0.6154
 4690TIP3    H235562   6.468   5.550  11.190  0.3786 -1.8570 -0.2238
 4691TIP3   OH235563   5.716   5.552  12.114 -0.1492  0.3818 -0.3834
 4691TIP3    H135564   5.647   5.487  12.130  1.1430 -0.7219  0.9008
 4691TIP3    H235565   5.717   5.562  12.019 -2.8829  1.3792 -0.4246
 4692TIP3   OH235566   5.558   1.550  14.666  0.2613 -0.1412  0.0761
 4692TIP3    H135567   5.571   1.583  14.755 -1.3494  2.7473 -0.6120
 4692TIP3    H235568   5.468   1.516  14.667  0.4728 -0.7145 -0.2906
 4693TIP3   OH235569   6.353   2.505   5.680  0.1765 -0.3369 -0.3775
 4693TIP3    H135570   6.274   2.501   5.626 -0.1907 -2.6584  0.2098
 4693TIP3    H235571   6.422   2.471   5.624 -0.1356 -2.4119  0.4102
 4694TIP3   OH235572   2.747   5.546  12.899  0.2984 -0.4797  0.1328
 4694TIP3    H135573   2.810   5.506  12.840  0.1661 -1.0277  0.3599
 4694TIP3    H235574   2.678   5.481  12.910 -0.8686  0.5120 -0.9595
 4695TIP3   OH235575   1.237   2.844   5.115  0.2560  0.3198 -0.1791
 4695TIP3    H135576   1.323   2.882   5.135  0.5575 -0.7855  0.7794
 4695TIP3    H235577   1.236   2.834   5.020  2.3937 -2.2295 -0.0626
 4696TIP3   OH235578   2.242   0.992   3.721 -0.8810  0.2341 -0.4900
 4696TIP3    H135579   2.244   0.946   3.637 -1.1557  0.5227 -0.6544
 4696TIP3    H235580   2.168   1.053   3.713 -0.6859  0.5114 -0.1717
 4697TIP3   OH235581   6.643   6.622  15.569  0.2287  0.4647  0.2514
 4697TIP3    H135582   6.664   6.553  15.631  0.2993  0.1147 -0.1603
 4697TIP3    H235583   6.719   6.627  15.511 -0.4001 -0.1529 -0.6491
 4698TIP3   OH235584   5.649   5.015  12.007 -0.2278  0.5599  0.1812
 4698TIP3    H135585   5.705   5.083  12.045  1.2129  0.7761 -2.1479
 4698TIP3    H235586   5.649   4.945  12.072  1.9799  0.9586  0.7046
 4699TIP3   OH235587   4.875   3.688   4.678 -0.2560 -0.5359 -0.5347
 4699TIP3    H135588   4.783   3.706   4.656 -0.3839 -1.0861 -0.4643
 4699TIP3    H235589   4.894   3.605   4.635  0.5082  0.0494 -1.3674
 4700TIP3   OH235590   5.717   2.371   4.393 -0.3877 -0.3288  0.2958
 4700TIP3    H135591   5.705   2.429   4.468  2.4315  0.2510  0.3981
 4700TIP3    H235592   5.700   2.426   4.317 -1.0055 -0.2959  0.4530
 4701TIP3   OH235593   0.339   0.566  12.294  0.4310 -0.4881 -0.6905
 4701TIP3    H135594   0.329   0.474  12.320  0.4266 -0.1958  0.4140
 4701TIP3    H235595   0.425   0.570  12.253 -0.8391 -1.5961 -3.7408
 4702TIP3   OH235596   3.992   3.401   4.881 -0.3688 -0.0364  0.2340
 4702TIP3    H135597   4.073   3.382   4.834  0.6718 -0.5486  2.1179
 4702TIP3    H235598   3.923   3.389   4.816  1.0684  0.7077 -1.4984
 4703TIP3   OH235599   3.151   0.426  13.032  0.3827  0.3192 -0.2245
 4703TIP3    H135600   3.206   0.496  12.996 -2.9677  1.4119 -3.9371
 4703TIP3    H235601   3.158   0.355  12.969 -2.0689  0.3897 -0.6803
 4704TIP3   OH235602   6.075   2.376   6.361  0.3955 -0.5256  0.2483
 4704TIP3    H135603   6.095   2.469   6.370 -0.3937 -0.2375 -0.7261
 4704TIP3    H235604   6.018   2.356   6.435 -0.1927  0.0152 -0.0455
 4705TIP3   OH235605   1.682   1.827   2.815 -0.0578 -0.4165  0.6383
 4705TIP3    H135606   1.726   1.897   2.767  1.1214  0.0545  2.3167
 4705TIP3    H235607   1.691   1.851   2.907  0.1385 -2.6248  1.2645
 4706TIP3   OH235608   0.950   0.726  15.737 -0.2453  0.2454 -0.4434
 4706TIP3    H135609   0.971   0.663  15.668  1.2434  2.0979 -1.7836
 4706TIP3    H235610   0.916   0.802  15.690 -1.0744  0.8311  1.0464
 4707TIP3   OH235611   4.076   2.736   5.767  0.1733 -0.0133  0.3292
 4707TIP3    H135612   4.064   2.768   5.677 -0.0775  2.7660  1.2474
 4707TIP3    H235613   4.043   2.807   5.822  1.2043 -1.2229  2.6501
 4708TIP3   OH235614   1.835   2.018   3.496 -0.2906  0.1832  0.6005
 4708TIP3    H135615   1.859   2.080   3.427 -0.2682 -2.1016 -1.6156
 4708TIP3    H235616   1.753   2.052   3.532 -0.6270  1.1543 -0.9767
 4709TIP3   OH235617   0.536   0.522  16.038 -0.1750  0.3364 -0.2649
 4709TIP3    H135618   0.533   0.438  15.992  0.0336 -0.6793  1.4831
 4709TIP3    H235619   0.445   0.539  16.062 -0.4355  1.3600 -1.8144
 4710TIP3   OH235620   6.533   2.699  12.565  0.2952 -0.2932  0.2883
 4710TIP3    H135621   6.507   2.790  12.558  0.4265 -0.3207 -0.5664
 4710TIP3    H235622   6.600   2.687  12.498 -1.5829 -1.6716 -1.4853
 4711TIP3   OH235623   5.121   0.437  14.938 -0.1889 -0.2451  0.3385
 4711TIP3    H135624   5.138   0.511  14.879  1.1597 -1.6137 -1.1209
 4711TIP3    H235625   5.026   0.433  14.945 -0.3272  0.8991 -0.5247
 4712TIP3   OH235626   6.457   2.402   5.177 -0.0872  0.5620 -0.0026
 4712TIP3    H135627   6.428   2.359   5.097  0.0032 -1.0045  0.7743
 4712TIP3    H235628   6.385   2.390   5.239 -0.4773  2.4171 -0.0351
 4713TIP3   OH235629   3.065   0.047   3.331  0.1032  0.0954  0.0820
 4713TIP3    H135630   3.056   0.119   3.268  2.1768  0.5181  0.1754
 4713TIP3    H235631   3.103  -0.024   3.280 -0.4962 -0.4056  0.3319
 4714TIP3   OH235632   6.018   2.442   3.801 -0.8998 -0.0651  0.5254
 4714TIP3    H135633   6.098   2.492   3.817 -1.6118  1.6783 -0.9960
 4714TIP3    H235634   6.043   2.351   3.819  0.9741  0.5860  1.5501
 4715TIP3   OH235635   3.488   4.199   2.006 -0.5298  0.0575  0.2171
 4715TIP3    H135636   3.513   4.107   2.000  0.1298  0.2499  0.0139
 4715TIP3    H235637   3.543   4.235   2.074  0.1574  0.6118 -0.6106
 4716TIP3   OH235638   5.443   1.236   0.355  0.3248  0.3848  0.1594
 4716TIP3    H135639   5.444   1.327   0.325  1.3406  0.2357 -0.2760
 4716TIP3    H235640   5.439   1.242   0.450 -1.6327  0.8661  0.1034
 4717TIP3   OH235641   1.332   0.516  14.489 -0.5966 -0.2874 -0.4381
 4717TIP3    H135642   1.411   0.563  14.463 -0.2954  0.2499  1.3320
 4717TIP3    H235643   1.352   0.424  14.471  0.2905 -0.1201 -0.3577
 4718TIP3   OH235644   5.729   1.797   4.558  0.0711 -0.4061  0.0355
 4718TIP3    H135645   5.728   1.875   4.502  0.7060  1.5464  2.5840
 4718TIP3    H235646   5.821   1.774   4.567 -0.0032 -0.5323  0.5048
 4719TIP3   OH235647   0.530   4.897  13.655  0.1231  0.2208  0.2820
 4719TIP3    H135648   0.525   4.935  13.567 -0.9554 -0.3617  0.0721
 4719TIP3    H235649   0.622   4.871  13.665 -0.0571 -1.2813 -1.3793
 4720TIP3   OH235650   1.124   2.442   0.787 -0.1135 -0.6049 -0.3044
 4720TIP3    H135651   1.161   2.523   0.819 -0.3118  0.6789 -3.0112
 4720TIP3    H235652   1.055   2.420   0.850  0.2179  1.0933  0.7009
 4721TIP3   OH235653   2.370   3.762   2.024  0.1132  0.5170  0.5375
 4721TIP3    H135654   2.333   3.745   2.111  0.4721  1.9930  1.0043
 4721TIP3    H235655   2.369   3.857   2.016 -0.2476  0.3980 -1.2403
 4722TIP3   OH235656   1.790   0.644  13.960 -0.1331  0.4551 -0.4604
 4722TIP3    H135657   1.868   0.699  13.962 -0.4509  0.9374 -0.8622
 4722TIP3    H235658   1.751   0.653  14.047 -0.4353  1.2567 -0.6655
 4723TIP3   OH235659   6.773   6.097  12.961 -0.5873 -0.3396 -0.3297
 4723TIP3    H135660   6.760   6.024  13.022  2.4717  0.0283  0.9565
 4723TIP3    H235661   6.845   6.069  12.904 -0.6374  0.9294 -1.0690
 4724TIP3   OH235662   4.818   3.501   0.188  0.1595  0.2523  0.1760
 4724TIP3    H135663   4.882   3.572   0.191  0.1421  0.3292 -0.9115
 4724TIP3    H235664   4.774   3.511   0.103 -0.6872 -0.3274  0.5281
 4725TIP3   OH235665   6.413   3.630   4.420  0.0094 -0.1178 -0.0498
 4725TIP3    H135666   6.390   3.584   4.500 -0.4117 -2.0208 -1.2076
 4725TIP3    H235667   6.496   3.673   4.440  0.1655 -0.9787  1.2477
 4726TIP3   OH235668   2.011   2.969  14.636  0.8048 -0.3025 -0.4487
 4726TIP3    H135669   1.958   2.911  14.690  2.3778 -0.4874  0.9709
 4726TIP3    H235670   2.058   3.024  14.698  0.1297  1.8617 -1.7171
 4727TIP3   OH235671   0.007   5.970   0.914 -0.2366 -0.5569  0.2662
 4727TIP3    H135672   0.061   6.039   0.877  0.5878 -1.5228 -0.3991
 4727TIP3    H235673  -0.072   5.968   0.860  1.0488 -2.0997 -1.6702
 4728TIP3   OH235674   6.238   2.609  12.806  0.0633 -0.0110  0.1291
 4728TIP3    H135675   6.317   2.564  12.837 -0.4807 -0.6853  0.5794
 4728TIP3    H235676   6.166   2.565  12.852 -0.4546  1.8585  1.1943
 4729TIP3   OH235677   5.484   0.896  12.547  0.0806 -0.1299 -0.1351
 4729TIP3    H135678   5.448   0.960  12.608  0.0372 -0.5799  0.3253
 4729TIP3    H235679   5.423   0.821  12.553  1.3517 -1.1184  1.0455
 4730TIP3   OH235680   0.203   0.585  15.547  0.5047 -0.1040  0.1709
 4730TIP3    H135681   0.227   0.523  15.616 -0.9391  0.3053  1.0836
 4730TIP3    H235682   0.148   0.650  15.592 -0.6244  0.0701 -1.3990
 4731TIP3   OH235683   2.533   1.291  17.215 -0.0896 -0.4153 -0.9301
 4731TIP3    H135684   2.591   1.300  17.291 -1.0321 -0.1360 -0.2237
 4731TIP3    H235685   2.592   1.281  17.141  0.8558 -0.7314 -0.1568
 4732TIP3   OH235686   5.469   3.331  15.606 -0.0980  0.7370 -0.2414
 4732TIP3    H135687   5.455   3.372  15.521 -0.3398  2.7645  0.7039
 4732TIP3    H235688   5.559   3.354  15.629  0.3702 -0.8216 -0.4492
 4733TIP3   OH235689   2.114   4.553   3.469  0.4041  0.2468 -0.5231
 4733TIP3    H135690   2.043   4.493   3.446 -0.6841  1.1126  0.4581
 4733TIP3    H235691   2.160   4.568   3.387 -0.6573 -0.2079 -1.2246
 4734TIP3   OH235692   5.144   6.680  13.500  0.4785  0.5458  0.1505
 4734TIP3    H135693   5.121   6.662  13.591  2.0210  1.4926  0.7573
 4734TIP3    H235694   5.169   6.595  13.464 -0.1281  0.1727  0.5953
 4735TIP3   OH235695   4.513   5.340  13.306 -0.4594  0.0779 -0.0112
 4735TIP3    H135696   4.417   5.341  13.304 -0.5683 -0.5373  2.0145
 4735TIP3    H235697   4.539   5.403  13.239 -2.3413  2.3908  1.2586
 4736TIP3   OH235698   1.237   2.877  16.778 -0.3216 -0.0784 -0.1202
 4736TIP3    H135699   1.305   2.862  16.844  0.2710 -1.7465 -1.0531
 4736TIP3    H235700   1.283   2.914  16.704 -0.5481 -0.4698 -0.4650
 4737TIP3   OH235701   6.082   2.281  12.194 -0.4095  0.3274  0.3370
 4737TIP3    H135702   6.123   2.248  12.114 -0.3481 -2.7603  1.5224
 4737TIP3    H235703   6.050   2.368  12.171  2.4683  0.8931 -2.0643
 4738TIP3   OH235704   5.745   3.371   2.884  0.0053 -0.1511 -0.4565
 4738TIP3    H135705   5.749   3.314   2.961 -1.0707  1.7908  1.1020
 4738TIP3    H235706   5.686   3.326   2.824 -0.5148 -0.8579  0.5661
 4739TIP3   OH235707   0.452   2.474   0.458  0.3510 -0.6689  0.6307
 4739TIP3    H135708   0.435   2.532   0.533  0.7689  0.1734  0.0829
 4739TIP3    H235709   0.543   2.489   0.435  0.7515 -2.2354  1.0395
 4740TIP3   OH235710   5.585   1.377  14.439  0.7664  0.1451 -0.0254
 4740TIP3    H135711   5.551   1.427  14.513  1.4262 -0.3302  0.6081
 4740TIP3    H235712   5.600   1.289  14.474  1.5225  0.0363 -0.5984
 4741TIP3   OH235713   6.765   0.824   2.387  0.2457  0.8105  0.4533
 4741TIP3    H135714   6.826   0.898   2.394 -0.8741  2.1497 -2.2622
 4741TIP3    H235715   6.683   0.858   2.422 -0.9226  1.8783 -2.8707
 4742TIP3   OH235716   0.719   0.861   3.026  0.5295  0.3477 -0.6206
 4742TIP3    H135717   0.712   0.815   2.943 -1.2400 -1.6877  0.5252
 4742TIP3    H235718   0.754   0.795   3.087 -0.6762  0.9176  0.7615
 4743TIP3   OH235719   4.145   1.298  13.269  0.4068 -0.3496  0.1831
 4743TIP3    H135720   4.209   1.273  13.202  0.5411 -3.4422  1.3192
 4743TIP3    H235721   4.196   1.348  13.333  0.8560  0.2732 -0.6338
 4744TIP3   OH235722   4.051   1.324   4.850  0.0943  0.5228 -0.3368
 4744TIP3    H135723   3.970   1.312   4.800  0.3543  0.8073 -0.8258
 4744TIP3    H235724   4.099   1.242   4.838 -0.5996 -0.0956  0.8598
 4745TIP3   OH235725   1.706   4.101   1.599  0.9189 -0.1950  0.4010
 4745TIP3    H135726   1.713   4.122   1.693 -0.8946 -0.9979  0.7550
 4745TIP3    H235727   1.652   4.171   1.563 -0.3092 -1.0922  0.4399
 4746TIP3   OH235728   3.064   6.250  13.723  0.3988  0.0777  0.8230
 4746TIP3    H135729   3.021   6.219  13.802 -0.3061  0.4375  0.5889
 4746TIP3    H235730   2.993   6.266  13.661  0.9182  0.0747  0.2127
 4747TIP3   OH235731   1.167   5.607  12.681  0.2887  0.0147  0.0377
 4747TIP3    H135732   1.083   5.570  12.708  0.6554 -0.6624  0.2605
 4747TIP3    H235733   1.219   5.611  12.761  0.2025  1.1762  0.0537
 4748TIP3   OH235734   5.053   1.409   5.973 -0.3702 -0.8134 -0.1652
 4748TIP3    H135735   5.018   1.472   6.036  0.6782 -0.9747  0.5951
 4748TIP3    H235736   5.038   1.451   5.888  0.8331  0.7670  0.3513
 4749TIP3   OH235737   4.211   5.393   1.148  0.6654  0.4164  0.1385
 4749TIP3    H135738   4.236   5.338   1.074 -2.2107 -2.0344  0.7894
 4749TIP3    H235739   4.280   5.378   1.213  0.2210 -2.2030  0.1152
 4750TIP3   OH235740   0.936   3.714  14.095  0.6791  0.0260 -0.2609
 4750TIP3    H135741   0.993   3.687  14.024  0.0634  0.5583 -0.9700
 4750TIP3    H235742   0.939   3.640  14.157  0.4913 -0.8584 -1.2749
 4751TIP3   OH235743   3.104   3.106   0.866  0.1715 -0.1213  0.0058
 4751TIP3    H135744   3.150   3.029   0.834  0.0685 -0.3881  0.4807
 4751TIP3    H235745   3.105   3.096   0.962  0.3336  0.5698  0.0756
 4752TIP3   OH235746   0.821   4.384   2.626  0.0714 -0.4818 -0.4958
 4752TIP3    H135747   0.778   4.401   2.543  1.5608  2.0842 -0.8471
 4752TIP3    H235748   0.915   4.390   2.606  0.4700  1.5822  1.5218
 4753TIP3   OH235749   5.995   3.845  16.533 -0.3171 -0.3699 -0.3033
 4753TIP3    H135750   5.929   3.785  16.570  1.6930 -1.9266  0.9490
 4753TIP3    H235751   6.065   3.788  16.502  1.3852  1.2930  0.2775
 4754TIP3   OH235752   1.981   2.896  16.277  0.3469  0.0144 -0.5226
 4754TIP3    H135753   2.058   2.914  16.223  1.2866 -0.2755  0.6796
 4754TIP3    H235754   1.943   2.982  16.294  2.2962  0.5664  1.5623
 4755TIP3   OH235755   2.670   4.314  13.444 -0.2572  0.5222  0.0906
 4755TIP3    H135756   2.685   4.402  13.478  1.7043  0.7253 -1.1635
 4755TIP3    H235757   2.756   4.273  13.445 -0.9151 -0.9353 -0.6015
 4756TIP3   OH235758   3.462   4.210  16.344  0.4911  0.0988 -0.3916
 4756TIP3    H135759   3.483   4.265  16.420  0.9382 -1.0441  0.3350
 4756TIP3    H235760   3.374   4.237  16.319 -1.0211 -1.6547  2.5199
 4757TIP3   OH235761   4.791   1.046   1.609  0.3941 -0.5846  0.6595
 4757TIP3    H135762   4.769   1.074   1.520 -0.6395 -3.2370 -0.0182
 4757TIP3    H235763   4.837   0.963   1.598  1.4503 -0.3166  2.5757
 4758TIP3   OH235764   5.739   2.704  15.232  0.4878 -0.7053  0.8252
 4758TIP3    H135765   5.644   2.698  15.244  0.3022 -0.2555 -0.2166
 4758TIP3    H235766   5.759   2.638  15.166  0.2345  1.7443 -1.9242
 4759TIP3   OH235767   1.413   0.034   4.033 -0.2087 -0.1517  0.2719
 4759TIP3    H135768   1.440  -0.057   4.045 -0.4501 -0.2196  0.3049
 4759TIP3    H235769   1.495   0.083   4.030  0.0856 -0.6616 -2.2489
 4760TIP3   OH235770   0.646   1.618   5.855  0.2636  0.0280 -0.0325
 4760TIP3    H135771   0.679   1.628   5.945  0.8479 -1.1516 -0.1004
 4760TIP3    H235772   0.722   1.589   5.805 -0.7144 -2.3039 -0.2903
 4761TIP3   OH235773   3.941   5.483  14.588  0.9100  0.3041 -0.1505
 4761TIP3    H135774   3.873   5.490  14.655  0.1518  2.0349 -1.0404
 4761TIP3    H235775   3.944   5.570  14.547  1.6502 -0.5564 -2.0623
 4762TIP3   OH235776   0.744   4.228  11.655  0.0937 -0.0061  0.1549
 4762TIP3    H135777   0.744   4.195  11.565  0.3833 -0.0042  0.1541
 4762TIP3    H235778   0.756   4.151  11.710 -2.1443 -0.3047  0.3116
 4763TIP3   OH235779   5.451   5.830  14.340  0.1223 -0.4540 -0.3380
 4763TIP3    H135780   5.537   5.823  14.297  0.1296 -1.3983 -0.1901
 4763TIP3    H235781   5.437   5.744  14.380 -0.3535  0.0706  0.6745
 4764TIP3   OH235782   1.311   1.117   2.830  0.5568 -0.0676  0.1512
 4764TIP3    H135783   1.345   1.156   2.750 -0.9747 -0.4156 -0.7107
 4764TIP3    H235784   1.325   1.185   2.897  0.2586  0.9548 -0.7830
 4765TIP3   OH235785   4.513   3.169  14.284  0.3560  0.2798 -0.5182
 4765TIP3    H135786   4.493   3.085  14.326 -1.5920  0.7933 -0.3100
 4765TIP3    H235787   4.604   3.161  14.256  0.1463 -1.9994 -0.7274
 4766TIP3   OH235788   4.454   3.624   3.228 -0.1468  0.5451 -0.1936
 4766TIP3    H135789   4.544   3.656   3.217  0.1969  0.2821  1.6454
 4766TIP3    H235790   4.451   3.543   3.178  0.4612  0.8381 -0.7213
 4767TIP3   OH235791   1.632   6.708   5.183 -0.1055 -0.1880  0.1032
 4767TIP3    H135792   1.593   6.784   5.228  1.8764  2.2473 -1.9804
 4767TIP3    H235793   1.571   6.636   5.201 -2.9293  2.2087  0.9710
 4768TIP3   OH235794   6.799   0.594   5.277 -0.3930 -0.2925  0.1398
 4768TIP3    H135795   6.714   0.568   5.311 -0.7520  1.3968  0.6470
 4768TIP3    H235796   6.838   0.513   5.244 -0.9486 -1.6119  2.5369
 4769TIP3   OH235797   5.614   2.519  10.879 -0.0991  0.3936  0.0654
 4769TIP3    H135798   5.599   2.548  10.789  0.7691  1.3091  0.2021
 4769TIP3    H235799   5.666   2.440  10.871 -0.6533  0.0563 -0.2546
 4770TIP3   OH235800   6.653   2.629   6.045 -0.0543 -0.1931 -0.5389
 4770TIP3    H135801   6.683   2.714   6.077 -0.1875  0.2554 -1.5681
 4770TIP3    H235802   6.574   2.610   6.095  0.1269  0.1560 -0.1165
 4771TIP3   OH235803   2.891   4.275   4.755 -0.6003  0.2106 -0.2539
 4771TIP3    H135804   2.842   4.231   4.825  0.3122  0.2358  0.4247
 4771TIP3    H235805   2.962   4.214   4.734 -1.7228 -0.4830 -2.2505
 4772TIP3   OH235806   0.130   6.299  11.510 -0.1440 -0.1179  0.6749
 4772TIP3    H135807   0.123   6.315  11.604  0.9873 -2.0900  1.1459
 4772TIP3    H235808   0.098   6.209  11.499 -0.7774  0.2682 -0.9186
 4773TIP3   OH235809   5.027   3.657  12.881 -0.2122  0.8042 -0.2095
 4773TIP3    H135810   4.990   3.643  12.794 -1.4248  0.1335  0.3856
 4773TIP3    H235811   5.064   3.572  12.905 -0.9365  0.6552  0.4026
 4774TIP3   OH235812   3.898   5.676  15.439 -0.2342  0.2113  0.5243
 4774TIP3    H135813   3.888   5.595  15.490 -0.6316 -0.7377 -0.9873
 4774TIP3    H235814   3.830   5.670  15.372 -1.0268  2.3728  1.0612
 4775TIP3   OH235815   3.792   1.958   4.782 -0.6471  0.0785  0.3007
 4775TIP3    H135816   3.834   2.020   4.722  1.3311 -0.3043  1.1941
 4775TIP3    H235817   3.812   1.993   4.869  1.5827 -2.3453  0.8824
 4776TIP3   OH235818   0.844   6.719  14.525  0.4952  0.0534 -0.1883
 4776TIP3    H135819   0.928   6.765  14.527  0.7885 -0.4732 -0.1563
 4776TIP3    H235820   0.799   6.747  14.605  0.6277  0.3569 -0.2176
 4777TIP3   OH235821   6.541   5.083  13.226  0.7991  0.4447 -0.3698
 4777TIP3    H135822   6.454   5.118  13.205  1.8076  2.5609 -1.2933
 4777TIP3    H235823   6.571   5.045  13.143  1.0785  0.4404 -0.2658
 4778TIP3   OH235824   2.876   1.712   0.334 -0.0541  0.3950  0.4311
 4778TIP3    H135825   2.938   1.753   0.274  0.5837  3.0403  2.7151
 4778TIP3    H235826   2.793   1.756   0.315  0.2122  1.4530  1.5867
 4779TIP3   OH235827   3.145   4.228   4.952  0.2793  0.4596 -0.2982
 4779TIP3    H135828   3.209   4.240   4.883 -0.9652  0.7899 -1.4502
 4779TIP3    H235829   3.160   4.302   5.012 -0.6133  2.0285 -1.8908
 4780TIP3   OH235830   0.077   2.042   5.986  0.2408 -0.5548 -0.2774
 4780TIP3    H135831   0.129   2.029   6.065  2.0259  3.7141 -0.4775
 4780TIP3    H235832   0.001   2.093   6.015  0.5455  0.4401 -1.1436
 4781TIP3   OH235833   0.158   5.070  17.144 -0.4196  0.6341 -0.5142
 4781TIP3    H135834   0.099   5.051  17.218  0.3693  0.8497  0.1861
 4781TIP3    H235835   0.159   4.989  17.093 -2.3062  1.0272 -1.2589
 4782TIP3   OH235836   5.355   0.815   3.989 -0.5293 -0.0124 -0.3055
 4782TIP3    H135837   5.265   0.789   3.967 -0.5396 -0.5241  0.3166
 4782TIP3    H235838   5.368   0.782   4.078  0.4871 -0.4821 -0.6225
 4783TIP3   OH235839   2.844   1.966   3.424 -0.3991  0.1936  0.3893
 4783TIP3    H135840   2.791   1.935   3.498  0.9042  1.3530  1.8796
 4783TIP3    H235841   2.928   1.920   3.434 -0.9879 -1.5126 -1.8504
 4784TIP3   OH235842   3.984   6.213  10.543  0.3280 -0.5079 -0.2891
 4784TIP3    H135843   3.973   6.120  10.563  1.0529 -0.4172  0.5878
 4784TIP3    H235844   3.925   6.228  10.469 -0.0455 -1.5859 -0.2370
 4785TIP3   OH235845   1.263   4.137   0.117  0.3418 -0.1256  0.0395
 4785TIP3    H135846   1.306   4.056   0.089  1.2350  0.7585 -1.2597
 4785TIP3    H235847   1.331   4.184   0.166  1.0017  1.3425 -2.1312
 4786TIP3   OH235848   6.722   0.031  12.817 -0.2603 -0.4857 -0.2832
 4786TIP3    H135849   6.799  -0.019  12.842 -0.0097  0.1831  0.3090
 4786TIP3    H235850   6.655  -0.036  12.798  0.4055 -1.0595 -0.6589
 4787TIP3   OH235851   5.157   5.651   5.718  0.2164  0.3082 -0.7008
 4787TIP3    H135852   5.215   5.623   5.789  1.6891  0.8312 -1.6521
 4787TIP3    H235853   5.074   5.672   5.762  0.1790 -2.0015  0.5035
 4788TIP3   OH235854   4.797   0.565  15.642  0.5667  0.2214 -0.1308
 4788TIP3    H135855   4.758   0.643  15.604 -1.6733  0.1536  1.7948
 4788TIP3    H235856   4.781   0.496  15.577 -0.8870  0.6146 -0.2331
 4789TIP3   OH235857   4.638   3.091   0.275  0.2627 -0.2520  0.3445
 4789TIP3    H135858   4.659   3.127   0.361  2.0851 -0.3219 -0.0437
 4789TIP3    H235859   4.659   3.160   0.213 -0.1876 -0.5181 -0.1163
 4790TIP3   OH235860   4.802   1.518  15.820 -0.8146 -0.2154  0.2438
 4790TIP3    H135861   4.878   1.500  15.764 -0.2412  2.1987  0.1232
 4790TIP3    H235862   4.830   1.491  15.908 -0.2933 -0.5040 -0.0046
 4791TIP3   OH235863   3.055   1.319   6.318 -0.1427  0.5342  0.2325
 4791TIP3    H135864   2.996   1.246   6.337 -2.3250  2.0584 -0.3356
 4791TIP3    H235865   3.040   1.337   6.225 -0.1894  2.1463  0.5375
 4792TIP3   OH235866   4.440   0.553   2.639 -0.2663  0.2736 -0.3687
 4792TIP3    H135867   4.525   0.577   2.604 -0.6688  0.7503 -1.0480
 4792TIP3    H235868   4.453   0.548   2.733  1.0494 -1.8701 -0.6049
 4793TIP3   OH235869   1.230   5.612  11.343 -0.4866  0.0452  1.0171
 4793TIP3    H135870   1.218   5.625  11.437  0.6031 -0.5402  1.2502
 4793TIP3    H235871   1.264   5.696  11.312 -0.1720  0.0179  1.2798
 4794TIP3   OH235872   4.534   4.820   3.953 -0.3123 -0.3451 -0.0237
 4794TIP3    H135873   4.610   4.840   4.009 -1.1891  0.1442  1.0356
 4794TIP3    H235874   4.559   4.853   3.867 -0.0895  1.7254  0.7555
 4795TIP3   OH235875   4.757   3.248  14.809 -0.1749 -0.0501 -0.3010
 4795TIP3    H135876   4.799   3.279  14.728  0.4288 -0.0399  0.0078
 4795TIP3    H235877   4.819   3.186  14.845 -0.2821  0.2060  0.3352
 4796TIP3   OH235878   6.112   4.475  16.027 -0.1840  0.0504 -0.7004
 4796TIP3    H135879   6.051   4.502  15.959 -1.0162  0.8929  0.3263
 4796TIP3    H235880   6.195   4.461  15.982 -1.2555 -1.7431 -2.2296
 4797TIP3   OH235881   4.638   5.902   0.948 -0.3709 -0.1215 -0.0033
 4797TIP3    H135882   4.631   5.941   0.861 -2.0020  1.7815  0.8772
 4797TIP3    H235883   4.558   5.851   0.958 -0.5330  0.2338  0.5972
 4798TIP3   OH235884   2.408   0.772  15.677 -0.1918  0.0317 -0.4441
 4798TIP3    H135885   2.411   0.676  15.681 -1.4906  0.0231  1.6402
 4798TIP3    H235886   2.468   0.795  15.606  2.7694 -2.1433  1.1320
 4799TIP3   OH235887   3.092   4.457  11.231 -0.0549 -0.4321 -0.3333
 4799TIP3    H135888   3.063   4.482  11.144 -1.0087 -1.8555 -0.4700
 4799TIP3    H235889   3.161   4.520  11.253  0.8430 -0.5854 -2.4653
 4800TIP3   OH235890   1.719   3.270  16.565 -0.4763  0.0575  0.0024
 4800TIP3    H135891   1.773   3.318  16.628  0.0979  0.5425 -0.8425
 4800TIP3    H235892   1.767   3.274  16.483 -1.0872 -0.7956 -0.4224
 4801TIP3   OH235893   5.555   2.469   4.106 -0.2480  0.2297 -0.3609
 4801TIP3    H135894   5.646   2.496   4.115 -0.9544  2.4017  1.0457
 4801TIP3    H235895   5.540   2.462   4.012  1.2032  0.4024 -0.6178
 4802TIP3   OH235896   2.669   3.615   2.226 -0.7616  0.3841  0.1081
 4802TIP3    H135897   2.619   3.573   2.157  0.1139 -1.0482  0.2991
 4802TIP3    H235898   2.748   3.562   2.235 -0.3162  1.1977  1.4275
 4803TIP3   OH235899   6.749   1.012  14.918  0.2519 -0.1663  0.2328
 4803TIP3    H135900   6.695   1.090  14.907  0.1754 -0.2349  0.1100
 4803TIP3    H235901   6.723   0.955  14.846 -0.2836 -0.6488  0.7993
 4804TIP3   OH235902   3.165   3.549   0.270  0.6930  0.1072  0.0828
 4804TIP3    H135903   3.260   3.562   0.280  0.7937 -1.4430  1.5587
 4804TIP3    H235904   3.156   3.487   0.198  0.8956 -0.6082  0.6573
 4805TIP3   OH235905   3.851   0.904   3.879  0.3144 -0.2365  0.1399
 4805TIP3    H135906   3.770   0.953   3.868  0.5155  0.5615  1.9830
 4805TIP3    H235907   3.862   0.857   3.795 -3.0698 -1.9492  0.4779
 4806TIP3   OH235908   6.086   1.100  10.640  0.1139  0.5985 -0.1951
 4806TIP3    H135909   6.028   1.159  10.687 -0.0503 -0.3480  0.8255
 4806TIP3    H235910   6.149   1.071  10.706  2.5273  2.4812 -1.4870
 4807TIP3   OH235911   3.851   2.905  12.489  0.1080 -0.2148  0.1360
 4807TIP3    H135912   3.801   2.940  12.562  0.0609  0.8224 -0.3829
 4807TIP3    H235913   3.830   2.811  12.488 -0.9014 -0.0012  0.6407
 4808TIP3   OH235914   2.727   1.394   3.079 -0.1950 -0.6273  0.3728
 4808TIP3    H135915   2.664   1.466   3.081 -0.7858 -1.1300 -0.0231
 4808TIP3    H235916   2.769   1.397   3.165  0.3595  0.6930  0.0740
 4809TIP3   OH235917   4.142   4.016   5.501 -0.1966 -0.7269 -0.0480
 4809TIP3    H135918   4.126   3.929   5.538 -1.2029 -0.6658 -0.3222
 4809TIP3    H235919   4.231   4.011   5.467 -0.7092 -2.0995 -1.3065
 4810TIP3   OH235920   6.199   3.250  15.121 -0.1391 -0.4856 -0.2632
 4810TIP3    H135921   6.277   3.194  15.125 -0.3494 -0.8496 -1.1020
 4810TIP3    H235922   6.229   3.330  15.078 -0.1008 -0.4176 -0.1075
 4811TIP3   OH235923   3.056   6.704  13.067 -0.3409  0.3683 -0.4493
 4811TIP3    H135924   2.991   6.739  13.128  1.1213  3.0155 -0.2661
 4811TIP3    H235925   3.047   6.759  12.989  0.2036 -0.6915 -1.2866
 4812TIP3   OH235926   4.787   1.075  16.284 -0.3169 -0.2152  0.3076
 4812TIP3    H135927   4.727   1.103  16.353 -0.9044 -0.3864 -0.1253
 4812TIP3    H235928   4.833   1.155  16.259 -2.3770  0.5862 -1.3019
 4813TIP3   OH235929   3.651   4.940   3.537  0.4222  0.1881 -0.0218
 4813TIP3    H135930   3.568   4.987   3.545  0.2536  0.0307 -0.7709
 4813TIP3    H235931   3.704   4.972   3.610  0.0748  1.0559 -0.1367
 4814TIP3   OH235932   5.093   5.261   3.020  0.0208  0.1502  0.3795
 4814TIP3    H135933   5.189   5.261   3.016 -0.0014 -0.5047 -0.9397
 4814TIP3    H235934   5.070   5.168   3.013 -0.7389  0.4454 -1.8982
 4815TIP3   OH235935   4.087   4.848   3.549  0.5198 -0.5687  0.0269
 4815TIP3    H135936   4.162   4.789   3.561 -0.5620 -2.1838 -0.8616
 4815TIP3    H235937   4.127   4.934   3.532  2.1318 -0.6675  2.7422
 4816TIP3   OH235938   5.590   5.662  16.806 -0.7695 -0.2106  0.1500
 4816TIP3    H135939   5.613   5.744  16.764 -0.1878 -0.2711  0.3503
 4816TIP3    H235940   5.667   5.606  16.795 -1.2122 -0.7756 -0.1086
 4817TIP3   OH235941   2.132   5.938  15.289 -0.2254  0.0786 -0.1343
 4817TIP3    H135942   2.157   5.930  15.197 -1.0846 -1.5761 -0.2483
 4817TIP3    H235943   2.047   5.896  15.295 -0.9211  1.5705  1.1408
 4818TIP3   OH235944   1.746   3.307  13.739  0.1801 -0.4228  0.8117
 4818TIP3    H135945   1.771   3.289  13.648 -0.4575  1.1259  0.2954
 4818TIP3    H235946   1.822   3.278  13.790  0.9346 -0.4814 -0.2960
 4819TIP3   OH235947   4.841   3.960   0.845 -0.8499 -0.6697  0.3985
 4819TIP3    H135948   4.903   3.894   0.876  1.1115  0.3669 -1.1330
 4819TIP3    H235949   4.820   3.933   0.755 -1.1627  0.0215  0.2586
 4820TIP3   OH235950   5.909   0.802  13.818 -0.2399  0.0197 -0.2313
 4820TIP3    H135951   5.977   0.775  13.879 -0.0254 -2.1307 -1.3358
 4820TIP3    H235952   5.925   0.895  13.803  2.1486 -0.3236 -0.0819
 4821TIP3   OH235953   1.463   1.554  11.667 -0.5918 -0.3403  0.4205
 4821TIP3    H135954   1.410   1.613  11.614 -1.5522 -2.2991 -0.9292
 4821TIP3    H235955   1.457   1.589  11.756 -2.3701  0.7366 -0.0815
 4822TIP3   OH235956   0.636   1.894  11.895  0.4733  0.5786  0.2022
 4822TIP3    H135957   0.566   1.830  11.905  0.3226  0.9512  1.9158
 4822TIP3    H235958   0.658   1.892  11.802 -0.2111 -1.2237  0.0386
 4823TIP3   OH235959   0.573   4.824  16.339 -0.1434  0.2632  0.2916
 4823TIP3    H135960   0.636   4.821  16.411  1.5282  0.6266 -1.0962
 4823TIP3    H235961   0.501   4.878  16.373  0.7792  0.7594  1.5563
 4824TIP3   OH235962   4.932   3.754   1.548 -0.2240 -0.5857 -0.5496
 4824TIP3    H135963   5.012   3.722   1.590 -0.4509  2.4146  2.6144
 4824TIP3    H235964   4.961   3.782   1.461  1.7958 -1.0519 -0.0967
 4825TIP3   OH235965   1.583   5.072  15.020  0.1354 -0.4756  0.8347
 4825TIP3    H135966   1.491   5.094  15.016  0.2071 -0.2905 -0.1656
 4825TIP3    H235967   1.590   5.006  15.089 -0.6400 -0.0404  1.3302
 4826TIP3   OH235968   2.694   4.054  11.138  0.3288  0.4436 -0.0401
 4826TIP3    H135969   2.621   4.033  11.196  0.1809 -1.4837 -0.8480
 4826TIP3    H235970   2.654   4.104  11.066  0.2039  1.2636  0.5857
 4827TIP3   OH235971   1.131   0.866   1.969 -0.1801  0.0208  0.5609
 4827TIP3    H135972   1.064   0.867   1.901  0.1585 -0.8458  0.1994
 4827TIP3    H235973   1.103   0.933   2.031 -1.9022 -0.9464  0.9057
 4828TIP3   OH235974   1.602   4.120   0.293  0.0564 -0.2462  0.2458
 4828TIP3    H135975   1.696   4.139   0.298  0.6127 -1.6490 -2.7686
 4828TIP3    H235976   1.594   4.029   0.321 -0.5071  0.0450  1.0508
 4829TIP3   OH235977   3.725   4.378   4.054  0.0225 -0.9628 -0.0742
 4829TIP3    H135978   3.706   4.285   4.044 -0.3248 -0.9506  0.4296
 4829TIP3    H235979   3.681   4.420   3.979  0.3042 -1.2121 -0.3843
 4830TIP3   OH235980   1.068   6.248  13.182 -0.0962  0.7272 -0.0498
 4830TIP3    H135981   1.123   6.273  13.107 -0.2455  1.4951  0.0881
 4830TIP3    H235982   1.082   6.154  13.191  0.9277  0.8477 -0.2339
 4831TIP3   OH235983   3.371   3.299   0.148 -0.3583  0.6112  0.6882
 4831TIP3    H135984   3.434   3.226   0.150  0.1238  0.9762 -0.3194
 4831TIP3    H235985   3.409   3.365   0.206 -0.5586  0.2549  1.2335
 4832TIP3   OH235986   1.235   0.991  13.653 -1.0109  0.0777  0.3688
 4832TIP3    H135987   1.330   0.995  13.660 -0.9690 -0.9347  0.5800
 4832TIP3    H235988   1.203   1.028  13.735 -0.8018  0.5183  0.2521
 4833TIP3   OH235989   1.487   4.661  16.429  0.0191 -0.0539 -0.0818
 4833TIP3    H135990   1.393   4.642  16.424  0.4248 -1.8724 -1.7563
 4833TIP3    H235991   1.509   4.697  16.343  0.7313  1.2178  0.5994
 4834TIP3   OH235992   3.262   4.042  11.497 -0.3758 -0.3333 -0.3599
 4834TIP3    H135993   3.184   4.097  11.505 -0.6680 -0.6185 -1.1017
 4834TIP3    H235994   3.326   4.080  11.557 -0.3227  1.2464 -1.3556
 4835TIP3   OH235995   6.800   1.487  15.302 -0.5687 -0.0069 -0.1960
 4835TIP3    H135996   6.719   1.441  15.323 -0.6188  0.4095  0.5399
 4835TIP3    H235997   6.829   1.525  15.385  1.0770 -1.2377 -0.1592
 4836TIP3   OH235998   2.355   4.584  11.735 -0.5248 -0.2108 -1.1144
 4836TIP3    H135999   2.396   4.670  11.734  0.0092 -0.4509 -2.8056
 4836TIP3    H236000   2.261   4.602  11.745 -0.1620  0.3660  2.0526
 4837TIP3   OH236001   4.688   5.809  11.150 -0.0061 -0.0571  0.6162
 4837TIP3    H136002   4.691   5.900  11.119  2.0560  0.3128  1.7510
 4837TIP3    H236003   4.607   5.804  11.201 -0.9139  0.6824 -0.6604
 4838TIP3   OH236004   1.079   0.728  11.271 -0.2080  0.0447 -0.3899
 4838TIP3    H136005   1.067   0.641  11.310 -0.1235  0.2163  0.0264
 4838TIP3    H236006   1.173   0.738  11.263 -0.0038  1.3190  2.4436
 4839TIP3   OH236007   3.591   5.926  16.517 -0.4424 -0.1126 -0.1713
 4839TIP3    H136008   3.549   5.978  16.585  0.2734 -0.2213  0.3708
 4839TIP3    H236009   3.685   5.938  16.532 -0.2161 -2.2637  0.5728
 4840TIP3   OH236010   5.066   3.551   1.113 -0.0496  0.1539  0.0945
 4840TIP3    H136011   5.154   3.525   1.139 -0.8941 -3.0091  0.2355
 4840TIP3    H236012   5.024   3.580   1.194  0.8270  1.7617  0.0096
 4841TIP3   OH236013   1.459   3.061  14.713 -0.2215  0.0326 -0.1049
 4841TIP3    H136014   1.470   3.053  14.618  0.4614 -2.9270  0.1073
 4841TIP3    H236015   1.469   3.154  14.732  0.1468  0.6225 -2.8548
 4842TIP3   OH236016   5.970   5.469   5.106  0.1708 -0.6125 -0.3063
 4842TIP3    H136017   5.882   5.455   5.142  0.2636  0.0855  0.2139
 4842TIP3    H236018   6.023   5.400   5.148 -0.3532 -1.8224 -1.5581
 4843TIP3   OH236019   4.773   4.519   0.774  0.2134  0.2958 -0.0814
 4843TIP3    H136020   4.806   4.592   0.721  2.5341 -0.6379 -0.0498
 4843TIP3    H236021   4.714   4.471   0.716 -0.4610  1.5313 -0.4598
 4844TIP3   OH236022   2.499   3.598  15.922 -0.1406  0.2964  0.4419
 4844TIP3    H136023   2.498   3.694  15.912 -0.6161  0.5194  2.2882
 4844TIP3    H236024   2.464   3.583  16.009 -0.1840 -1.5948  0.1321
 4845TIP3   OH236025   5.070   2.904   6.274  0.1030  0.1063 -0.0351
 4845TIP3    H136026   5.077   2.814   6.305 -2.8336  0.0110  0.6359
 4845TIP3    H236027   5.100   2.958   6.347  1.1950 -0.2528 -0.1901
 4846TIP3   OH236028   6.639   5.109   1.172 -0.3933  0.3838  0.1656
 4846TIP3    H136029   6.670   5.061   1.095  0.9494 -0.9578  1.4645
 4846TIP3    H236030   6.621   5.040   1.236 -1.3357  1.4855  1.1144
 4847TIP3   OH236031   3.590   5.550  12.989  0.1374 -0.1877 -0.5890
 4847TIP3    H136032   3.538   5.477  12.954 -0.6349  1.8730 -4.3493
 4847TIP3    H236033   3.525   5.611  13.024  0.5691 -0.2215  0.2842
 4848TIP3   OH236034   3.245   0.258  11.544 -0.3036 -0.2023 -0.0978
 4848TIP3    H136035   3.282   0.298  11.623 -2.7786  1.4896  0.3295
 4848TIP3    H236036   3.289   0.303  11.472 -0.5105  0.7594  0.3619
 4849TIP3   OH236037   5.568   3.148   0.885  0.0245 -0.0220 -0.6855
 4849TIP3    H136038   5.623   3.130   0.808  1.3769  0.3862  0.1384
 4849TIP3    H236039   5.596   3.083   0.950  0.5510  1.0752  0.2215
 4850TIP3   OH236040   5.798   2.921   2.949  0.2357 -0.4557  0.5114
 4850TIP3    H136041   5.760   2.851   2.895  0.8849 -0.8971  0.6173
 4850TIP3    H236042   5.783   2.892   3.039 -1.0111  0.3689  0.5950
 4851TIP3   OH236043   1.452   6.147  13.702  0.2283  0.2545  0.3447
 4851TIP3    H136044   1.482   6.173  13.789  1.2814 -0.5985  0.2693
 4851TIP3    H236045   1.451   6.228  13.651  1.7228  0.4603  0.5827
 4852TIP3   OH236046   4.161   1.782  11.573  0.3535 -0.4429  0.8574
 4852TIP3    H136047   4.182   1.730  11.495 -3.2384  0.9682 -1.3036
 4852TIP3    H236048   4.145   1.718  11.641 -0.6865 -2.0625 -0.8136
 4853TIP3   OH236049   1.211   5.074   5.405 -0.4821  0.4278  0.9968
 4853TIP3    H136050   1.265   4.995   5.404  0.0636  0.7522 -1.6070
 4853TIP3    H236051   1.259   5.136   5.350 -1.7438  2.0039  1.6123
 4854TIP3   OH236052   2.842   6.206  12.895  0.2254 -0.4784  0.4353
 4854TIP3    H136053   2.808   6.118  12.912 -0.4889 -0.4128 -0.5644
 4854TIP3    H236054   2.773   6.249  12.845  1.0252  0.2941 -0.0240
 4855TIP3   OH236055   0.863   2.402  15.674  0.2828  0.0883 -0.3060
 4855TIP3    H136056   0.905   2.316  15.681 -1.0555 -0.4178  2.7251
 4855TIP3    H236057   0.777   2.383  15.636 -0.7034 -0.2675  1.9453
 4856TIP3   OH236058   5.999   3.223  11.694 -0.3229  0.3569 -0.1699
 4856TIP3    H136059   6.071   3.286  11.689  1.2783 -1.2895  0.6672
 4856TIP3    H236060   5.992   3.188  11.605 -0.0138  0.4732 -0.2422
 4857TIP3   OH236061   3.034   1.796   2.348 -0.0964  0.0747  0.1867
 4857TIP3    H136062   3.091   1.794   2.424  1.1254  0.1385 -0.7033
 4857TIP3    H236063   2.946   1.809   2.384  0.5504  0.9276  1.5268
 4858TIP3   OH236064   4.834   5.716   6.506  0.0132 -0.2150 -0.5019
 4858TIP3    H136065   4.777   5.668   6.566  0.5582  0.2954  0.4582
 4858TIP3    H236066   4.788   5.798   6.490  0.9965  0.7530  1.2947
 4859TIP3   OH236067   3.247   2.864   3.033  0.1371 -0.1457 -0.3413
 4859TIP3    H136068   3.233   2.769   3.027  1.4213 -0.3044 -1.2851
 4859TIP3    H236069   3.256   2.881   3.126 -2.7463 -0.5172  0.0934
 4860TIP3   OH236070   5.137   0.342  10.614  0.4641 -0.5553 -0.4548
 4860TIP3    H136071   5.073   0.323  10.683  0.1944  1.1200 -0.1970
 4860TIP3    H236072   5.203   0.274  10.623  0.0411 -0.8170  0.9675
 4861TIP3   OH236073   5.330   6.295  16.397  0.1059  0.1297  0.0732
 4861TIP3    H136074   5.237   6.304  16.417 -0.6587 -1.6005 -2.2126
 4861TIP3    H236075   5.342   6.201  16.378  1.9426  0.5486 -1.2169
 4862TIP3   OH236076   4.460   2.565   6.195 -0.7488 -0.3897 -0.1696
 4862TIP3    H136077   4.411   2.483   6.210  0.5530 -1.0103  0.9841
 4862TIP3    H236078   4.533   2.539   6.139  0.0746 -0.2121  0.7816
 4863TIP3   OH236079   1.352   3.074   5.690 -0.1425 -0.9457 -0.6503
 4863TIP3    H136080   1.277   3.132   5.673 -1.6002 -2.6390 -0.3344
 4863TIP3    H236081   1.406   3.081   5.612  0.1735  1.4428 -0.2874
 4864TIP3   OH236082   2.295   0.039  13.103  0.0495 -0.0085  0.4440
 4864TIP3    H136083   2.338   0.072  13.183  0.7693 -0.5276  0.2793
 4864TIP3    H236084   2.218  -0.007  13.135 -1.6832  2.7689  0.6355
 4865TIP3   OH236085   1.848   2.760  11.644 -0.4093  0.0270 -0.0391
 4865TIP3    H136086   1.837   2.847  11.683 -0.7249  0.6622 -1.5031
 4865TIP3    H236087   1.935   2.762  11.605 -0.4796 -0.2632 -0.2111
 4866TIP3   OH236088   1.327   6.183  15.669  0.0223  0.1168  0.4800
 4866TIP3    H136089   1.378   6.143  15.740  1.2279  0.7706  0.0083
 4866TIP3    H236090   1.243   6.205  15.710 -0.2714 -1.8291  1.0377
 4867TIP3   OH236091   1.363   3.195   4.534  0.1782  0.1261 -0.2171
 4867TIP3    H136092   1.302   3.136   4.578  1.0694  0.9416  2.2625
 4867TIP3    H236093   1.445   3.146   4.531  0.4329  0.5287  0.1313
 4868TIP3   OH236094   1.012   2.931   5.218  0.1094 -0.0997 -0.2960
 4868TIP3    H136095   1.085   2.875   5.191 -0.1938  0.2865 -2.0402
 4868TIP3    H236096   1.018   3.008   5.161 -0.9635  0.4772  0.3369
 4869TIP3   OH236097   6.227   1.127   0.501 -0.1223 -0.1312 -0.4416
 4869TIP3    H136098   6.316   1.091   0.495 -0.8224 -1.9752 -0.3629
 4869TIP3    H236099   6.185   1.076   0.570 -1.2317  0.7566 -0.4383
 4870TIP3   OH236100   5.753   3.313  12.488  0.3540  0.1894 -0.1255
 4870TIP3    H136101   5.844   3.306  12.514  1.0262 -0.0599 -2.2999
 4870TIP3    H236102   5.752   3.383  12.423 -0.2929 -2.0158 -2.6813
 4871TIP3   OH236103   5.243   2.497  15.065 -0.1756  0.3648  0.3092
 4871TIP3    H136104   5.312   2.476  15.128  2.7534  1.3221 -2.3138
 4871TIP3    H236105   5.237   2.420  15.009 -0.7871  0.5450  0.1204
 4872TIP3   OH236106   5.658   6.482  13.862  0.1526 -0.4232 -0.1192
 4872TIP3    H136107   5.632   6.553  13.804  1.6613  0.5093  0.2829
 4872TIP3    H236108   5.729   6.438  13.815 -1.2201 -2.1539 -0.6755
 4873TIP3   OH236109   2.396   1.937   2.417 -0.4279  0.2022  0.1073
 4873TIP3    H136110   2.385   1.955   2.323 -0.9601 -1.0603 -0.0962
 4873TIP3    H236111   2.319   1.885   2.440 -1.9305  2.9830  1.9810
 4874TIP3   OH236112   3.975   2.248  11.674  0.2030  0.5191  0.2614
 4874TIP3    H136113   3.986   2.171  11.730 -0.4180 -1.1140 -1.7299
 4874TIP3    H236114   3.971   2.322  11.735  1.9258 -0.8714  2.1913
 4875TIP3   OH236115   5.079   3.084  11.568 -0.6905 -0.2744 -0.2183
 4875TIP3    H136116   5.085   3.167  11.521  0.1893 -0.2950 -0.1568
 4875TIP3    H236117   5.170   3.059  11.583 -0.9595 -0.6039  0.9041
 4876TIP3   OH236118   0.506   4.041   5.529  0.5107  0.1453  0.3657
 4876TIP3    H136119   0.500   3.999   5.615  1.8125  1.2417  1.0241
 4876TIP3    H236120   0.527   3.970   5.469 -0.7322 -0.6953  0.8733
 4877TIP3   OH236121   3.911   5.419  16.559  0.1079  0.3602  0.5374
 4877TIP3    H136122   3.885   5.465  16.480 -0.9664  0.3677  0.8788
 4877TIP3    H236123   3.893   5.480  16.630 -0.6573 -0.3060  0.9329
 4878TIP3   OH236124   3.133   6.805  12.789 -0.1368  0.2075 -0.2791
 4878TIP3    H136125   3.205   6.753  12.823  0.2737  0.1238 -1.2611
 4878TIP3    H236126   3.165   6.841  12.706 -0.8322  1.0612 -0.1978
 4879TIP3   OH236127   6.292   5.625  12.986 -0.3943  0.5871  0.0823
 4879TIP3    H136128   6.210   5.575  12.988 -0.7853  1.1321 -1.2043
 4879TIP3    H236129   6.304   5.648  12.894  2.2636 -1.1714 -0.0996
 4880TIP3   OH236130   5.107   5.773   1.762 -0.0506  0.5314  0.3685
 4880TIP3    H136131   5.043   5.803   1.826 -1.8798 -0.1269 -1.0493
 4880TIP3    H236132   5.070   5.691   1.728  1.8596 -0.1981 -0.0879
 4881TIP3   OH236133   4.059   1.346   6.578  0.1363 -0.0269  0.2604
 4881TIP3    H136134   4.032   1.408   6.511 -3.0578  2.1186  3.2345
 4881TIP3    H236135   4.152   1.366   6.594  0.5695  0.3586 -2.3557
 4882TIP3   OH236136   0.366   0.078   6.327 -0.2226  0.3749  0.0839
 4882TIP3    H136137   0.422   0.002   6.315  1.9097  0.9103  4.5952
 4882TIP3    H236138   0.419   0.152   6.297 -0.9043  0.4368 -1.0249
 4883TIP3   OH236139   6.249   3.476  13.337 -0.2447  0.1712  0.3179
 4883TIP3    H136140   6.342   3.456  13.348 -0.4221 -0.7938  0.0711
 4883TIP3    H236141   6.216   3.485  13.427  0.1857  1.0115  0.3988
 4884TIP3   OH236142   3.560   3.860  12.224  0.1299  0.0729  0.2079
 4884TIP3    H136143   3.634   3.910  12.259  0.3065 -0.0049 -0.0520
 4884TIP3    H236144   3.599   3.780  12.189  0.3415  1.2954 -2.6082
 4885TIP3   OH236145   4.504   4.943  17.205 -0.3184 -0.5541 -0.2980
 4885TIP3    H136146   4.557   4.865  17.222  1.3320  0.6717  0.4046
 4885TIP3    H236147   4.558   4.997  17.147 -0.6469  0.8842  0.6996
 4886TIP3   OH236148   6.209   5.640  16.856 -0.1802 -0.0559  0.1897
 4886TIP3    H136149   6.211   5.693  16.777 -0.9799 -0.1711  0.0770
 4886TIP3    H236150   6.236   5.699  16.926 -1.9669  0.8005  0.2095
 4887TIP3   OH236151   1.600   2.101   4.317  0.2018 -0.1022 -0.2212
 4887TIP3    H136152   1.621   2.191   4.291  2.2710 -0.3581  0.3846
 4887TIP3    H236153   1.523   2.110   4.373 -0.3768  1.1455 -1.1836
 4888TIP3   OH236154   5.151   6.779   6.335  0.3915  0.1198 -0.3916
 4888TIP3    H136155   5.157   6.859   6.283  0.9992  0.9030  0.8294
 4888TIP3    H236156   5.229   6.729   6.311 -0.1268 -0.2555 -1.3545
 4889TIP3   OH236157   3.252   0.906  13.706 -0.2223 -0.0376  0.6139
 4889TIP3    H136158   3.217   0.870  13.787 -0.2725 -1.2011  0.0925
 4889TIP3    H236159   3.222   0.846  13.638 -0.0280  0.8205 -0.2460
 4890TIP3   OH236160   3.344   1.563   4.607 -0.2504 -0.2020  0.3279
 4890TIP3    H136161   3.431   1.538   4.576 -0.5636  2.3368 -3.3347
 4890TIP3    H236162   3.359   1.636   4.666  0.1465 -0.0843  0.0847
 4891TIP3   OH236163   6.558   2.587  11.839 -0.8010  0.3469 -0.3030
 4891TIP3    H136164   6.465   2.596  11.859 -0.8135 -3.3117  2.3750
 4891TIP3    H236165   6.601   2.591  11.925  1.4945  1.1930 -1.4121
 4892TIP3   OH236166   5.454   6.528  13.218  0.0983  0.0651  0.1313
 4892TIP3    H136167   5.402   6.486  13.286  2.3170  0.5592  2.2644
 4892TIP3    H236168   5.450   6.466  13.144 -1.7375 -0.8644  0.9361
 4893TIP3   OH236169   2.145   4.313   3.037 -0.3932  0.2155  0.3147
 4893TIP3    H136170   2.123   4.263   2.959 -0.7774  0.3052  0.3644
 4893TIP3    H236171   2.218   4.266   3.076 -1.1258 -0.6506  0.6823
 4894TIP3   OH236172   5.473   4.208   5.084 -0.4749  0.0309 -0.0754
 4894TIP3    H136173   5.385   4.246   5.085 -0.4365  0.1364 -0.3978
 4894TIP3    H236174   5.490   4.182   5.175  0.5145  3.1250  0.7519
 4895TIP3   OH236175   4.677   0.614   2.283 -0.6268  0.1789  0.0886
 4895TIP3    H136176   4.757   0.664   2.267 -0.3636 -0.8950 -2.6539
 4895TIP3    H236177   4.679   0.594   2.376  2.6253 -0.2907  0.0367
 4896TIP3   OH236178   1.038   3.467  14.654  0.6010  0.2549 -0.1414
 4896TIP3    H136179   1.080   3.477  14.569  0.6712 -0.1552 -0.1557
 4896TIP3    H236180   1.002   3.554  14.673 -2.3468 -0.3709 -2.1278
 4897TIP3   OH236181   1.503   2.992  11.318  0.3162  0.1063 -0.0008
 4897TIP3    H136182   1.479   3.078  11.284  1.5861  0.2408 -0.6088
 4897TIP3    H236183   1.496   3.000  11.413 -1.8435  0.1652 -0.1064
 4898TIP3   OH236184   3.972   3.311   5.892 -0.8596 -0.0565  0.2321
 4898TIP3    H136185   3.934   3.391   5.930 -0.8846  0.7327 -1.3697
 4898TIP3    H236186   3.937   3.240   5.946 -2.4665  0.8661  0.4676
 4899TIP3   OH236187   2.013   4.939   6.175 -0.2548  0.2276  0.3827
 4899TIP3    H136188   2.103   4.961   6.196 -0.2195  0.3786  0.0838
 4899TIP3    H236189   2.018   4.899   6.088 -0.3938 -0.3850  0.6505
 4900TIP3   OH236190   5.959   3.060  16.024 -0.5787 -0.2736  0.2064
 4900TIP3    H136191   5.947   2.969  15.995 -1.9321 -0.3790  1.0476
 4900TIP3    H236192   5.890   3.109  15.980 -0.0396  0.2984 -0.0086
 4901TIP3   OH236193   3.885   1.815   6.364  0.2247 -0.8157 -0.1864
 4901TIP3    H136194   3.965   1.792   6.316 -0.5208 -2.4112 -0.7414
 4901TIP3    H236195   3.819   1.753   6.332 -1.4024  0.8130 -0.1440
 4902TIP3   OH236196   2.125   3.999  10.762  0.0766  0.3034  0.5556
 4902TIP3    H136197   2.210   4.036  10.783  0.3586  0.6442 -1.0526
 4902TIP3    H236198   2.142   3.939  10.689 -1.1216  0.7760 -0.1377
 4903TIP3   OH236199   1.902   5.128  11.466  0.2825  0.4299 -0.3531
 4903TIP3    H136200   1.928   5.037  11.453 -0.1975  0.0434  1.2121
 4903TIP3    H236201   1.979   5.171  11.502  0.1365  0.3607  0.0399
 4904TIP3   OH236202   5.987   5.619   2.117 -0.1155  0.0409 -0.0830
 4904TIP3    H136203   5.988   5.616   2.021 -3.3703  0.3518 -0.2307
 4904TIP3    H236204   5.963   5.530   2.143  0.3014  0.0788  0.4518
 4905TIP3   OH236205   1.460   2.809  15.821 -0.3052 -0.5173 -0.6983
 4905TIP3    H136206   1.434   2.898  15.799  0.5169  0.0746  0.6082
 4905TIP3    H236207   1.556   2.811  15.820 -0.1042 -0.1611  3.5805
 4906TIP3   OH236208   6.203   5.147  15.118 -0.3254  0.5581  0.0130
 4906TIP3    H136209   6.173   5.222  15.169  1.2838  0.1152  1.7258
 4906TIP3    H236210   6.222   5.079  15.183 -1.8257 -1.4368 -1.4781
 4907TIP3   OH236211   5.819   0.315  12.852  0.2126  0.1627  0.2949
 4907TIP3    H136212   5.749   0.362  12.897 -1.9244 -3.6363  1.4023
 4907TIP3    H236213   5.869   0.274  12.922 -0.0509 -1.7877 -0.6079
 4908TIP3   OH236214   5.285   0.856  14.904 -0.1804 -0.1244 -0.1234
 4908TIP3    H136215   5.239   0.930  14.865  0.9099  0.3708 -0.5079
 4908TIP3    H236216   5.215   0.794  14.925 -1.0566  0.7416 -0.3588
 4909TIP3   OH236217   5.908   6.273  11.831  0.3703 -0.0869  0.2545
 4909TIP3    H136218   5.953   6.216  11.894 -0.1126 -0.2488  0.4529
 4909TIP3    H236219   5.827   6.299  11.876 -0.6741 -1.3461 -0.8231
 4910TIP3   OH236220   4.971   0.162   1.407  0.5182 -0.1731  0.4638
 4910TIP3    H136221   5.004   0.080   1.370  0.9032 -0.6686  1.8438
 4910TIP3    H236222   5.049   0.217   1.416  0.1314  0.7308 -1.3239
 4911TIP3   OH236223   5.292   5.139  13.616 -0.2295  0.7784 -0.6772
 4911TIP3    H136224   5.350   5.087  13.561  1.1304 -3.6989  4.2280
 4911TIP3    H236225   5.206   5.099  13.605  0.5728 -2.1330  2.1021
 4912TIP3   OH236226   2.195   1.083   2.272 -0.0901 -0.6747  0.5846
 4912TIP3    H136227   2.274   1.046   2.231 -1.0000 -3.4221  1.0961
 4912TIP3    H236228   2.136   1.100   2.199  1.2029  2.3944  0.0772
 4913TIP3   OH236229   6.363   1.510   0.300 -0.4936 -0.2261  0.2786
 4913TIP3    H136230   6.272   1.490   0.277 -0.4844 -0.1257  0.1533
 4913TIP3    H236231   6.376   1.467   0.384 -0.3540 -1.0810 -0.1697
 4914TIP3   OH236232   2.878   3.830  17.093  0.5822 -0.2957 -0.3086
 4914TIP3    H136233   2.924   3.763  17.143  1.1049 -0.8245 -1.4518
 4914TIP3    H236234   2.927   3.911  17.111  0.1529 -0.2672  0.8082
 4915TIP3   OH236235   3.407   6.315  12.563  0.0042 -0.2689  0.7892
 4915TIP3    H136236   3.439   6.264  12.638  1.7187  2.8863  2.4177
 4915TIP3    H236237   3.484   6.327  12.508 -1.5502 -3.9812 -2.6784
 4916TIP3   OH236238   2.041   4.427  15.157 -0.1616  0.0374  0.4335
 4916TIP3    H136239   2.025   4.393  15.069 -0.4780  0.1456  0.4496
 4916TIP3    H236240   2.008   4.359  15.216  0.2947 -0.1554  0.4745
 4917TIP3   OH236241   4.486   6.495  12.200  0.1695  0.1516  0.5900
 4917TIP3    H136242   4.554   6.558  12.225  0.6595 -0.2027  0.1865
 4917TIP3    H236243   4.492   6.490  12.104  1.0440 -1.4680  0.6856
 4918TIP3   OH236244   1.842   5.695  15.945 -0.2364  0.0610  0.4148
 4918TIP3    H136245   1.755   5.670  15.914  0.3995 -0.8055 -0.7311
 4918TIP3    H236246   1.859   5.637  16.019 -1.6759  2.0032  2.3916
 4919TIP3   OH236247   3.719   5.317   0.485  0.3014 -0.2763 -0.6319
 4919TIP3    H136248   3.712   5.332   0.579  2.3385  0.8718 -0.5919
 4919TIP3    H236249   3.641   5.359   0.448  0.7586  1.5689  0.3661
 4920TIP3   OH236250   0.444   4.486   4.167 -0.1542 -0.3503  0.2580
 4920TIP3    H136251   0.380   4.531   4.223 -1.1353 -0.1021 -1.0249
 4920TIP3    H236252   0.413   4.501   4.078  0.5434 -1.9903 -0.3054
 4921TIP3   OH236253   5.098   6.073   2.145 -0.5549 -0.4809  0.0667
 4921TIP3    H136254   5.125   6.159   2.176 -0.6687 -0.8192  1.1481
 4921TIP3    H236255   5.127   6.070   2.054  1.8233 -0.2906  0.7517
 4922TIP3   OH236256   3.730   3.359  13.283  0.0214 -0.0511  0.0843
 4922TIP3    H136257   3.769   3.437  13.323  0.7869 -0.3916  0.0319
 4922TIP3    H236258   3.733   3.375  13.189 -2.7582  1.2100  0.1220
 4923TIP3   OH236259   1.991   2.296  13.270 -0.0554 -0.1420 -0.1526
 4923TIP3    H136260   1.999   2.320  13.362 -0.6751 -0.0238 -0.1242
 4923TIP3    H236261   1.951   2.373  13.229  0.5003 -0.0749 -0.5774
 4924TIP3   OH236262   6.254   3.827   5.144  0.2115  0.0281 -0.4590
 4924TIP3    H136263   6.204   3.754   5.107  0.0766 -0.5865  0.8936
 4924TIP3    H236264   6.226   3.903   5.093 -1.4589 -0.4565 -0.3248
 4925TIP3   OH236265   0.159   1.639  14.282  0.7519  0.4104  0.0057
 4925TIP3    H136266   0.195   1.578  14.217  2.1747  0.4073  0.7596
 4925TIP3    H236267   0.120   1.709  14.229  0.4722 -0.3754 -0.8597
 4926TIP3   OH236268   0.180   1.501  11.858  0.5066 -0.2444  0.1532
 4926TIP3    H136269   0.131   1.583  11.865  2.1854  0.7694  0.6629
 4926TIP3    H236270   0.219   1.503  11.771  0.0500 -0.8207 -0.0724
 4927TIP3   OH236271   5.081   5.894  14.154 -0.7633  0.4048  0.3589
 4927TIP3    H136272   5.093   5.812  14.106 -0.8097  0.3403  0.4581
 4927TIP3    H236273   5.002   5.933  14.115 -0.6305  0.4951  0.1803
 4928TIP3   OH236274   4.823   0.166  15.229  0.2803  0.3687  0.0900
 4928TIP3    H136275   4.906   0.195  15.190  0.5497  0.6688  0.8723
 4928TIP3    H236276   4.803   0.084  15.184 -0.0724  1.3253 -1.5744
 4929TIP3   OH236277   5.132   4.199  16.096  0.2338  0.3894 -0.1096
 4929TIP3    H136278   5.155   4.110  16.121  0.1280  0.6382  0.9255
 4929TIP3    H236279   5.108   4.242  16.179  2.1843  1.9387 -0.2550
 4930TIP3   OH236280   4.882   0.032   5.137  0.1098 -0.0736  0.4754
 4930TIP3    H136281   4.816  -0.037   5.146  1.5747 -2.0411 -2.3612
 4930TIP3    H236282   4.965  -0.015   5.128  1.3702  2.1455 -0.2768
 4931TIP3   OH236283   3.784   2.044   1.270 -0.1899  0.4050 -0.2580
 4931TIP3    H136284   3.786   1.962   1.221 -0.4779  0.4066 -0.2702
 4931TIP3    H236285   3.730   2.025   1.346 -1.3838  0.9639 -0.9445
 4932TIP3   OH236286   1.570   1.203  11.409 -0.3372 -0.4856  0.2662
 4932TIP3    H136287   1.574   1.212  11.314 -2.4438  0.0010  0.1671
 4932TIP3    H236288   1.596   1.288  11.443  0.2001 -0.5902  0.1130
 4933TIP3   OH236289   6.081   4.674  11.454  0.4437 -0.0856  0.3116
 4933TIP3    H136290   6.121   4.587  11.449  3.8801  1.3714 -0.0748
 4933TIP3    H236291   6.143   4.732  11.410 -1.2406  2.7676  1.4171
 4934TIP3   OH236292   6.521   4.952  16.493 -0.6969 -0.1848 -0.0914
 4934TIP3    H136293   6.616   4.945  16.502 -0.6303 -1.1391 -1.1544
 4934TIP3    H236294   6.505   4.935  16.400 -1.8448  0.8134 -0.0937
 4935TIP3   OH236295   4.729   2.661  15.523 -0.5348  0.3970  0.6434
 4935TIP3    H136296   4.657   2.719  15.497  0.0034  1.0569  0.6128
 4935TIP3    H236297   4.686   2.591  15.571 -1.0788  1.5656  1.9478
 4936TIP3   OH236298   3.233   1.218  16.469  0.6985  0.1571 -0.5439
 4936TIP3    H136299   3.164   1.281  16.488  0.0339 -0.4465 -0.9356
 4936TIP3    H236300   3.278   1.206  16.553 -1.4368 -1.5647  0.4528
 4937TIP3   OH236301   4.067   1.755  13.808 -0.2365  0.1397  0.4022
 4937TIP3    H136302   4.026   1.672  13.834  1.3211 -0.8320 -0.1078
 4937TIP3    H236303   4.150   1.757  13.855 -0.6916  1.9266  1.1858
 4938TIP3   OH236304   3.059   6.524  12.513  0.6118  0.2558  0.2625
 4938TIP3    H136305   3.115   6.491  12.444 -0.7805  1.1698 -1.3745
 4938TIP3    H236306   3.071   6.463  12.586  0.1483 -2.2984 -1.6650
 4939TIP3   OH236307   0.616   1.133   1.354 -0.1069 -0.7585 -0.0799
 4939TIP3    H136308   0.521   1.129   1.349 -0.0945 -2.9039  0.1744
 4939TIP3    H236309   0.646   1.079   1.281  0.9325  0.0322 -0.2608
 4940TIP3   OH236310   6.399   5.033   0.426  0.0153  0.3113  0.0199
 4940TIP3    H136311   6.371   5.083   0.350 -0.7077 -0.3878 -0.1857
 4940TIP3    H236312   6.361   4.946   0.413  0.1167  0.1036  1.0335
 4941TIP3   OH236313   5.015   5.596  12.400 -0.1107 -0.7671 -0.0643
 4941TIP3    H136314   4.937   5.560  12.359 -1.6368  0.6616  1.4134
 4941TIP3    H236315   5.039   5.670  12.344 -0.7917 -0.2440  0.3173
 4942TIP3   OH236316   6.535   0.357  16.019 -0.5368  0.7118 -0.3469
 4942TIP3    H136317   6.479   0.431  16.042 -0.0180  0.7393  0.8923
 4942TIP3    H236318   6.491   0.316  15.944 -1.3774  1.6485 -0.3863
 4943TIP3   OH236319   2.034   3.400   0.419  0.0815  0.3031 -0.2860
 4943TIP3    H136320   2.079   3.388   0.335 -0.9221  0.2313 -0.8195
 4943TIP3    H236321   2.104   3.390   0.484  1.7484  4.2263 -1.1528
 4944TIP3   OH236322   4.229   6.442   5.193  0.1967  0.6595 -0.4349
 4944TIP3    H136323   4.239   6.448   5.288 -1.2244 -0.7177 -0.1567
 4944TIP3    H236324   4.186   6.523   5.167  1.7729  1.6289 -0.1158
 4945TIP3   OH236325   5.672   0.841  16.855 -0.3228  0.4021  0.0337
 4945TIP3    H136326   5.700   0.768  16.799 -2.2666  0.1148 -0.6133
 4945TIP3    H236327   5.655   0.912  16.794 -2.0166  0.2302  0.2630
 4946TIP3   OH236328   1.921   5.553  10.935  0.2395 -0.3158 -0.1780
 4946TIP3    H136329   2.000   5.519  10.976  1.0273 -0.6444 -1.8542
 4946TIP3    H236330   1.926   5.648  10.946 -0.9698 -0.5081  2.7893
 4947TIP3   OH236331   6.437   2.753   2.091  0.0945  0.0167  0.1393
 4947TIP3    H136332   6.510   2.800   2.051 -0.2142 -0.5952 -1.1931
 4947TIP3    H236333   6.361   2.808   2.072  0.3182  1.3158  2.6377
 4948TIP3   OH236334   1.034   4.365   6.908 -0.0863 -0.7588 -0.2645
 4948TIP3    H136335   0.941   4.383   6.922 -0.3992 -0.5582 -2.2187
 4948TIP3    H236336   1.046   4.381   6.814  2.0852 -0.0508  0.0927
 4949TIP3   OH236337   2.568   2.979   3.315  0.5726  0.4541 -0.4039
 4949TIP3    H136338   2.577   2.987   3.410  2.4496  2.6959 -0.6784
 4949TIP3    H236339   2.656   2.955   3.284  0.0099 -0.1576 -1.5935
 4950TIP3   OH236340   4.433   4.560  12.065  0.2932 -0.0846  0.3875
 4950TIP3    H136341   4.488   4.625  12.021 -0.0238  0.8624  1.3511
 4950TIP3    H236342   4.446   4.576  12.158 -2.1995  0.7208  0.6728
 4951TIP3   OH236343   4.956   5.473  11.648 -0.3145 -0.1227 -0.5257
 4951TIP3    H136344   4.861   5.482  11.642 -0.5418 -1.3425  0.7122
 4951TIP3    H236345   4.972   5.437  11.735  1.3232  0.4284 -0.5495
 4952TIP3   OH236346   4.798   1.376   0.983 -0.2635 -0.0009 -0.0824
 4952TIP3    H136347   4.703   1.386   0.990 -0.0054  1.4174  2.7005
 4952TIP3    H236348   4.829   1.461   0.952  0.0763 -0.9059 -2.4506
 4953TIP3   OH236349   0.696   0.581   0.897 -0.2790 -0.2609 -0.1062
 4953TIP3    H136350   0.759   0.548   0.961 -1.3478 -1.3057  0.4227
 4953TIP3    H236351   0.741   0.657   0.858  0.8607 -0.3064  1.0283
 4954TIP3   OH236352   0.971   2.145   5.761  0.4514 -0.0700  0.2582
 4954TIP3    H136353   0.904   2.212   5.747  0.1022  0.0636  2.2837
 4954TIP3    H236354   0.923   2.069   5.793  1.3545  0.7233  3.8664
 4955TIP3   OH236355   6.431   2.192   0.145 -0.1785  0.7118  0.2115
 4955TIP3    H136356   6.349   2.206   0.191 -2.1508 -0.9544 -2.5269
 4955TIP3    H236357   6.466   2.111   0.183 -0.1420  1.0408  0.8950
 4956TIP3   OH236358   1.905   4.599   4.400  0.1463  0.5961 -0.3557
 4956TIP3    H136359   1.848   4.523   4.391  1.5299 -0.7079  1.2533
 4956TIP3    H236360   1.876   4.659   4.330 -1.1941 -1.2380 -1.4726
 4957TIP3   OH236361   6.179   0.701   3.925  0.0219  0.0086 -0.3925
 4957TIP3    H136362   6.248   0.766   3.916 -1.1253  1.1392 -1.4086
 4957TIP3    H236363   6.179   0.654   3.841 -0.7641  0.3656 -0.6051
 4958TIP3   OH236364   3.159   5.526  14.721 -0.9318  0.3887  0.7381
 4958TIP3    H136365   3.225   5.594  14.732 -1.2550  0.8091  0.1333
 4958TIP3    H236366   3.143   5.493  14.809  0.2003  0.1666  0.8824
 4959TIP3   OH236367   0.336   4.849  15.840  0.1856 -0.2249 -0.6729
 4959TIP3    H136368   0.425   4.818  15.855  0.6388  1.7187  1.2484
 4959TIP3    H236369   0.347   4.941  15.814 -1.2260 -0.3007 -1.6581
 4960TIP3   OH236370   4.484   4.912   2.935 -0.2582  0.2744  0.3357
 4960TIP3    H136371   4.546   4.842   2.912  0.4066  0.5166  1.3094
 4960TIP3    H236372   4.525   4.992   2.902  0.9661  0.6994  2.6401
 4961TIP3   OH236373   4.228   0.353  13.357 -0.2043 -0.6566  0.0951
 4961TIP3    H136374   4.171   0.335  13.283  0.2408 -1.8620  0.0332
 4961TIP3    H236375   4.266   0.269  13.381  0.8066 -0.0494  0.7584
 4962TIP3   OH236376   0.727   0.167  11.940  0.2327 -0.3862 -0.0339
 4962TIP3    H136377   0.808   0.171  11.889  1.1906  3.3938  1.4617
 4962TIP3    H236378   0.697   0.258  11.945 -2.5219 -1.2820  1.9401
 4963TIP3   OH236379   1.669   3.396  10.676 -0.4911  0.2269 -0.3618
 4963TIP3    H136380   1.762   3.403  10.652 -0.3401  1.1994  0.4242
 4963TIP3    H236381   1.655   3.303  10.692  0.4059  0.0965 -0.2980
 4964TIP3   OH236382   4.064   0.392  13.717 -0.5120  0.0856  0.2137
 4964TIP3    H136383   4.152   0.427  13.703  0.2386 -2.3337 -2.0103
 4964TIP3    H236384   4.008   0.448  13.663 -0.3484  1.4753  1.4243
 4965TIP3   OH236385   5.562   2.371  12.858  0.6941 -0.0533  0.6778
 4965TIP3    H136386   5.523   2.290  12.825  0.4672  0.8113 -1.3491
 4965TIP3    H236387   5.489   2.419  12.897  0.1395  0.5046 -0.9552
 4966TIP3   OH236388   3.407   0.423   0.398  0.3489 -0.3516  0.4297
 4966TIP3    H136389   3.315   0.440   0.420  1.2646 -0.1242  5.1027
 4966TIP3    H236390   3.444   0.510   0.383  0.7254  0.2268  3.8480
 4967TIP3   OH236391   0.010   6.053   4.705  0.6587 -0.5124  0.2892
 4967TIP3    H136392   0.092   6.024   4.664  0.5639 -2.8069  1.5662
 4967TIP3    H236393  -0.033   6.105   4.638  2.7148 -0.0478 -0.7601
 4968TIP3   OH236394   1.357   1.008  11.413  0.8811 -0.3059  0.0959
 4968TIP3    H136395   1.431   1.067  11.426  1.6282 -1.2313  0.1884
 4968TIP3    H236396   1.397   0.922  11.397 -0.1825 -0.9579  0.7840
 4969TIP3   OH236397   1.865   6.521   6.220  0.1206 -0.0381  0.9541
 4969TIP3    H136398   1.785   6.564   6.192 -0.0117 -0.4096  0.7749
 4969TIP3    H236399   1.907   6.585   6.278 -0.8764 -0.3034  1.9913
 4970TIP3   OH236400   0.799   1.743  16.428  0.1779 -0.6523 -0.0402
 4970TIP3    H136401   0.878   1.796  16.437 -0.1521 -0.2985  0.9371
 4970TIP3    H236402   0.815   1.665  16.482 -0.3283 -0.3358  0.5872
 4971TIP3   OH236403   2.117   0.292   4.081 -0.9236  0.1616  0.1017
 4971TIP3    H136404   2.110   0.226   4.150 -0.5304  0.8326  0.8014
 4971TIP3    H236405   2.171   0.250   4.014  1.0253  0.4425  1.4039
 4972TIP3   OH236406   6.033   5.809  11.159 -0.3864 -0.0965 -0.6849
 4972TIP3    H136407   6.121   5.813  11.195 -0.4650  0.0914 -0.5132
 4972TIP3    H236408   5.975   5.818  11.234 -0.5525 -0.2814 -0.7895
 4973TIP3   OH236409   1.598   4.163  15.713 -0.5355  0.7332 -0.2107
 4973TIP3    H136410   1.559   4.190  15.630 -0.5833  1.3376  0.0021
 4973TIP3    H236411   1.524   4.132  15.765 -0.7371  1.7696  0.1507
 4974TIP3   OH236412   3.235   3.137   4.817  0.0588  0.0553 -0.3815
 4974TIP3    H136413   3.321   3.107   4.786  0.1350  0.0521 -0.1698
 4974TIP3    H236414   3.255   3.204   4.882 -0.0731 -0.7086  0.4681
 4975TIP3   OH236415   2.337   5.756  16.276 -0.2978 -0.2811 -1.0681
 4975TIP3    H136416   2.376   5.677  16.313  0.1121 -0.3556 -1.6355
 4975TIP3    H236417   2.343   5.743  16.181 -1.2377 -0.0554 -1.1645
 4976TIP3   OH236418   0.736   0.059   5.514 -0.4899  0.6656  0.0419
 4976TIP3    H136419   0.700   0.146   5.498 -0.8851  0.2534 -1.4764
 4976TIP3    H236420   0.774   0.033   5.431  2.3636  0.5856  1.2729
 4977TIP3   OH236421   5.167   2.055  16.542 -0.7703 -0.4059  0.0455
 4977TIP3    H136422   5.117   2.117  16.596 -0.5957 -1.2271  1.1901
 4977TIP3    H236423   5.103   1.988  16.518 -0.2238 -1.6304  1.7774
 4978TIP3   OH236424   5.848   1.941  10.265  0.3640 -0.1456 -0.3399
 4978TIP3    H136425   5.887   1.860  10.233  0.8341  0.3909 -1.1581
 4978TIP3    H236426   5.922   1.991  10.301  0.6903  1.3209 -2.8234
 4979TIP3   OH236427   6.356   0.215   1.936  0.0758  0.3779 -0.2032
 4979TIP3    H136428   6.424   0.243   1.997 -0.0079  2.2960 -0.9231
 4979TIP3    H236429   6.395   0.141   1.890  1.2922  0.8107  0.0823
 4980TIP3   OH236430   3.064   5.745  10.751 -0.4415  0.4083 -0.6838
 4980TIP3    H136431   2.970   5.740  10.736 -0.4524 -1.0618 -0.2531
 4980TIP3    H236432   3.086   5.836  10.732 -1.6822  0.4230 -2.2849
 4981TIP3   OH236433   1.224   1.858  11.225 -0.3868 -0.3453 -0.1100
 4981TIP3    H136434   1.164   1.896  11.162  0.0570  2.6185  1.1090
 4981TIP3    H236435   1.311   1.871  11.187  0.0990  3.5898  1.8857
 4982TIP3   OH236436   0.788   6.091  11.210  0.5294  0.4282  0.5289
 4982TIP3    H136437   0.848   6.159  11.178 -0.8309  1.0108 -0.9480
 4982TIP3    H236438   0.812   6.013  11.160 -0.6708  0.9780 -1.0096
 4983TIP3   OH236439   5.071   5.848   5.450  0.2091 -0.2754  0.3566
 4983TIP3    H136440   5.042   5.939   5.449 -0.2528 -0.3662 -2.3259
 4983TIP3    H236441   5.151   5.849   5.503  0.2568  1.6889  0.3280
 4984TIP3   OH236442   2.395   3.880   3.057  0.2580 -0.0505 -0.3809
 4984TIP3    H136443   2.357   3.798   3.026  1.6466 -0.4999 -0.9657
 4984TIP3    H236444   2.402   3.870   3.152 -0.9002 -0.0190 -0.2806
 4985TIP3   OH236445   5.946   6.667   3.541 -0.4728 -0.0501  0.3305
 4985TIP3    H136446   5.936   6.730   3.613  3.0618  1.5370 -0.3470
 4985TIP3    H236447   5.988   6.591   3.581  2.2301  1.1402  0.0017
 4986TIP3   OH236448   1.301   6.294  16.090 -0.4133 -0.3415  0.2008
 4986TIP3    H136449   1.395   6.279  16.079 -0.2907  0.1666  0.5317
 4986TIP3    H236450   1.278   6.248  16.171 -0.4567 -0.5002  0.0980
 4987TIP3   OH236451   1.371   4.558  12.545  0.1241 -0.0476  0.3228
 4987TIP3    H136452   1.410   4.643  12.525 -0.1663  0.1554  0.6027
 4987TIP3    H236453   1.435   4.514  12.600  0.5558 -0.2697 -0.3376
 4988TIP3   OH236454   5.883   5.199  16.967  0.4649  0.0762 -0.1140
 4988TIP3    H136455   5.944   5.130  16.994  1.7716  0.7253 -1.2806
 4988TIP3    H236456   5.861   5.245  17.048 -0.1059 -1.4091  0.6227
 4989TIP3   OH236457   1.614   5.624   5.671  0.6889  0.2503 -0.4108
 4989TIP3    H136458   1.611   5.579   5.586  1.0819 -0.1783 -0.2018
 4989TIP3    H236459   1.560   5.702   5.658 -1.2643 -1.0225 -0.3412
 4990TIP3   OH236460   4.226   2.030  11.012 -0.0968  0.4803  0.5149
 4990TIP3    H136461   4.195   1.941  11.026 -1.5781  0.7571 -0.7371
 4990TIP3    H236462   4.164   2.068  10.950  1.2785  1.9518 -0.0468
 4991TIP3   OH236463   4.738   6.117   3.510  0.0287  0.7070  0.3035
 4991TIP3    H136464   4.723   6.205   3.476  2.3142  0.7365 -0.8634
 4991TIP3    H236465   4.803   6.129   3.580 -0.2414  0.0344  0.6754
 4992TIP3   OH236466   5.431   1.513   0.298 -0.4818 -0.2557  0.2223
 4992TIP3    H136467   5.387   1.571   0.360 -1.0745 -1.0584  0.5686
 4992TIP3    H236468   5.420   1.555   0.213  1.1261  1.3396  0.7306
 4993TIP3   OH236469   1.754   5.429  11.192  0.0270 -0.5167 -0.1343
 4993TIP3    H136470   1.828   5.470  11.147 -0.4226  0.4103 -0.0676
 4993TIP3    H236471   1.698   5.503  11.216 -1.2448 -1.2647 -0.7668
 4994TIP3   OH236472   6.537   4.730  11.934 -0.0752 -0.1737 -0.3507
 4994TIP3    H136473   6.578   4.809  11.970 -0.0859 -0.6358  0.7157
 4994TIP3    H236474   6.587   4.711  11.854 -0.2891  1.0848 -0.8062
 4995TIP3   OH236475   5.730   4.797  14.741  0.4187  0.2970 -0.1448
 4995TIP3    H136476   5.748   4.773  14.832  1.4182  0.2524 -0.3449
 4995TIP3    H236477   5.742   4.892  14.739 -3.2279  0.9344  0.5780
 4996TIP3   OH236478   4.512   3.972  13.777  0.2698 -0.8570  0.2462
 4996TIP3    H136479   4.557   3.966  13.861 -0.2688  0.2611  0.6245
 4996TIP3    H236480   4.558   4.040  13.729  0.0227 -0.8800 -0.0281
 4997TIP3   OH236481   4.418   3.182  12.947  0.1352 -0.4649  0.5562
 4997TIP3    H136482   4.352   3.115  12.930  0.9070 -1.3349  0.9207
 4997TIP3    H236483   4.404   3.247  12.878 -0.0289 -1.4609 -0.3730
 4998TIP3   OH236484   5.294   4.958  16.584  0.1909  0.4032 -0.0516
 4998TIP3    H136485   5.221   5.014  16.558  0.8204  0.2654 -2.4377
 4998TIP3    H236486   5.370   5.016  16.586  0.7603 -0.1704 -2.0808
 4999TIP3   OH236487   3.284   6.703  13.742 -0.0425 -0.3224  0.3856
 4999TIP3    H136488   3.279   6.749  13.826  1.3725 -0.5642  0.6258
 4999TIP3    H236489   3.318   6.616  13.764  0.5422 -0.3208 -0.4423
 5000TIP3   OH236490   1.368   0.246   3.230 -0.2760 -0.5410  1.1116
 5000TIP3    H136491   1.309   0.322   3.230 -0.8024 -0.8842 -1.0343
 5000TIP3    H236492   1.320   0.178   3.277 -0.5284 -0.0912  1.5208
 5001TIP3   OH236493   0.903   5.099  13.285  0.2035  0.3192 -0.0620
 5001TIP3    H136494   0.866   5.045  13.355 -0.3205  1.9585  0.9890
 5001TIP3    H236495   0.915   5.185  13.325  1.0542  0.9859 -1.6578
 5002TIP3   OH236496   0.293   5.493  14.796  0.5147 -0.2262  0.4332
 5002TIP3    H136497   0.279   5.402  14.770 -0.8250 -0.1326  0.7790
 5002TIP3    H236498   0.348   5.487  14.874  0.5072 -0.7246  0.4053
 5003TIP3   OH236499   3.491   5.229  17.062  0.2324  0.9810 -0.6334
 5003TIP3    H136500   3.507   5.301  17.000 -0.3036 -0.8105 -2.9874
 5003TIP3    H236501   3.417   5.181  17.025  1.8897 -2.0238 -0.3986
 5004TIP3   OH236502   4.829   2.267   0.623 -0.3547  0.1951 -0.7682
 5004TIP3    H136503   4.853   2.353   0.657 -0.5500 -0.0818  0.0833
 5004TIP3    H236504   4.748   2.282   0.574 -0.5161  0.4474 -0.4204
 5005TIP3   OH236505   3.951   5.863   1.287  0.2924  0.4263 -0.1167
 5005TIP3    H136506   3.950   5.895   1.197  1.1041  1.2591  0.1451
 5005TIP3    H236507   4.027   5.804   1.291  0.7370  1.0038  0.2018
 5006TIP3   OH236508   6.448   6.270   4.947  0.0915 -0.2049  0.1917
 5006TIP3    H136509   6.391   6.207   4.901  0.2670  0.1721 -0.5633
 5006TIP3    H236510   6.389   6.324   4.998 -0.1424 -0.4189  0.1473
 5007TIP3   OH236511   4.099   3.800   1.505  0.7883  0.0283 -0.1887
 5007TIP3    H136512   4.193   3.785   1.515  0.6876 -3.2417 -2.3629
 5007TIP3    H236513   4.090   3.838   1.418  0.0828 -1.5742 -0.8633
 5008TIP3   OH236514   2.463   2.544  15.674  0.2102 -0.1866  0.6268
 5008TIP3    H136515   2.537   2.537  15.734 -0.5111 -0.6603  1.4753
 5008TIP3    H236516   2.434   2.635  15.681 -0.9465 -0.6350  2.3358
 5009TIP3   OH236517   6.483   4.409  15.224  0.3547  0.0951 -0.1550
 5009TIP3    H136518   6.467   4.439  15.135  0.2652 -1.0378 -0.5382
 5009TIP3    H236519   6.463   4.485  15.279 -1.2784  0.3161 -0.9838
 5010TIP3   OH236520   0.554   1.804  16.553  0.1306  0.0997  0.1827
 5010TIP3    H136521   0.629   1.799  16.493 -0.1378 -0.1634 -0.1336
 5010TIP3    H236522   0.593   1.798  16.640  0.6455  1.5880  0.1013
 5011TIP3   OH236523   5.682   6.324  14.268  0.4153 -0.2119  0.1812
 5011TIP3    H136524   5.709   6.278  14.348  1.0144 -2.0280 -1.0172
 5011TIP3    H236525   5.647   6.256  14.211 -1.6868  1.3044 -0.4684
 5012TIP3   OH236526   1.778   4.569  13.294  0.2628  0.3492  0.0277
 5012TIP3    H136527   1.776   4.644  13.354 -0.1494  1.2694 -1.0950
 5012TIP3    H236528   1.806   4.496  13.349 -3.2900  0.3829  2.1765
 5013TIP3   OH236529   6.366   3.019  17.187  0.4596 -0.1757  0.4790
 5013TIP3    H136530   6.322   3.019  17.102  0.1991 -2.8172  0.5489
 5013TIP3    H236531   6.458   3.032  17.166  0.3609 -0.5165 -0.1716
 5014TIP3   OH236532   4.925   4.514  12.461  0.2962  0.1654 -0.5327
 5014TIP3    H136533   4.963   4.484  12.378  1.5494 -0.8562  0.3734
 5014TIP3    H236534   4.931   4.438  12.519  0.6886  1.2574  0.9025
 5015TIP3   OH236535   0.233   0.692   1.714  0.6645  0.4421 -0.8483
 5015TIP3    H136536   0.231   0.691   1.810  0.5039  2.7185 -0.7919
 5015TIP3    H236537   0.143   0.674   1.687  0.6680  0.0215 -0.5923
 5016TIP3   OH236538   2.850   5.100   5.882  0.1683 -0.2893 -0.3795
 5016TIP3    H136539   2.892   5.015   5.864  0.9434 -0.1703  0.7372
 5016TIP3    H236540   2.795   5.083   5.958  0.2557  0.1847 -0.2115
 5017TIP3   OH236541   6.479   4.303  16.846 -0.0127  0.3370 -0.2781
 5017TIP3    H136542   6.492   4.262  16.761  1.9811  0.2296  0.0213
 5017TIP3    H236543   6.452   4.393  16.825 -1.7909 -0.3022 -0.9536
 5018TIP3   OH236544   1.556   4.892  12.862  0.7117  0.6584  0.2292
 5018TIP3    H136545   1.522   4.901  12.773  1.7657  2.7227 -0.0114
 5018TIP3    H236546   1.550   4.798  12.879 -3.1260  0.5869 -0.5065
 5019TIP3   OH236547   5.311   3.245  15.809 -0.5515  0.6740 -0.2756
 5019TIP3    H136548   5.256   3.319  15.834 -1.5551  0.5132 -1.8229
 5019TIP3    H236549   5.364   3.278  15.736 -1.3357 -0.2146 -1.2881
 5020TIP3   OH236550   2.227   2.118   2.628 -0.0580  0.2567  0.6629
 5020TIP3    H136551   2.162   2.173   2.671 -0.2974 -0.3322  1.0673
 5020TIP3    H236552   2.310   2.141   2.671  0.0237  1.0489  0.1053
 5021TIP3   OH236553   2.012   5.287  15.699 -0.4501 -0.2790  0.3233
 5021TIP3    H136554   1.966   5.203  15.698  1.3254 -1.3225  0.9126
 5021TIP3    H236555   2.098   5.266  15.735  0.3821  1.6368 -0.4300
 5022TIP3   OH236556   4.440   0.558  15.403  0.2513 -0.7980  0.1142
 5022TIP3    H136557   4.364   0.562  15.461  0.2152  0.7773 -0.0147
 5022TIP3    H236558   4.405   0.522  15.321  0.1396 -2.2656  0.7763
 5023TIP3   OH236559   0.508   5.446   0.983  0.1268 -0.1629 -0.1358
 5023TIP3    H136560   0.565   5.416   1.054 -1.4636  0.0321  1.2795
 5023TIP3    H236561   0.485   5.536   1.007 -0.4142 -0.0833 -0.9252
 5024TIP3   OH236562   4.515   3.437  11.397 -0.1664 -0.0410 -0.2128
 5024TIP3    H136563   4.600   3.469  11.370 -1.2871  3.0439 -0.4613
 5024TIP3    H236564   4.534   3.362  11.453  2.8307  1.5777  1.1598
 5025TIP3   OH236565   2.479   5.772  12.569 -0.9376  0.3281 -0.3366
 5025TIP3    H136566   2.401   5.728  12.603 -0.4280 -0.4470 -0.1348
 5025TIP3    H236567   2.445   5.847  12.520 -1.7570  0.5868  0.5947
 5026TIP3   OH236568   3.724   5.017   4.770 -0.0878  0.4190 -0.2286
 5026TIP3    H136569   3.767   4.967   4.840 -1.9095 -0.1655  0.5399
 5026TIP3    H236570   3.771   5.100   4.768  1.0334 -0.1602  0.5903
 5027TIP3   OH236571   0.739   3.412   5.573 -0.1928  0.3198 -0.0363
 5027TIP3    H136572   0.721   3.318   5.583  1.6266 -0.3395 -2.0882
 5027TIP3    H236573   0.766   3.441   5.660  0.1210 -1.3023  0.4387
 5028TIP3   OH236574   2.565   6.696   5.777  0.3228 -0.6214 -0.0606
 5028TIP3    H136575   2.625   6.632   5.738 -0.0715 -0.4616 -0.9659
 5028TIP3    H236576   2.563   6.674   5.870  0.4960 -1.6813 -0.2911
 5029TIP3   OH236577   1.192   3.437   5.653  0.0426  0.5704  0.3895
 5029TIP3    H136578   1.158   3.439   5.564  1.1673  1.3718 -0.0404
 5029TIP3    H236579   1.276   3.481   5.648 -0.1601  1.2153  1.9786
 5030TIP3   OH236580   6.565   1.401   5.816 -0.0086  0.4480 -0.4996
 5030TIP3    H136581   6.631   1.369   5.877 -0.3772  0.6645  0.0185
 5030TIP3    H236582   6.614   1.428   5.739  0.3346 -1.1926 -0.8973
 5031TIP3   OH236583   0.579   6.306   5.260  0.3822  0.2475  0.3230
 5031TIP3    H136584   0.652   6.244   5.261  0.8423  0.7683 -0.2175
 5031TIP3    H236585   0.618   6.390   5.286 -0.3882  0.1685  1.8758
 5032TIP3   OH236586   2.921   3.731   1.209 -0.0452  0.4853  0.0518
 5032TIP3    H136587   2.878   3.772   1.283  2.7229  1.7699  1.1129
 5032TIP3    H236588   2.937   3.803   1.147  0.8574  0.1425 -0.1313
 5033TIP3   OH236589   5.610   3.748  12.521 -0.2028 -0.2088 -0.6731
 5033TIP3    H136590   5.621   3.807  12.596 -0.4010 -3.0320  1.7439
 5033TIP3    H236591   5.700   3.722  12.498 -0.0528  1.4773 -2.2510
 5034TIP3   OH236592   5.849   3.161  14.366 -0.2916 -0.0856  0.6844
 5034TIP3    H136593   5.862   3.208  14.448  0.4744 -1.4989  1.4285
 5034TIP3    H236594   5.937   3.155  14.328 -0.8166  1.7640 -0.9863
 5035TIP3   OH236595   4.067   2.749  14.325 -0.2330 -0.6182  0.2206
 5035TIP3    H136596   4.058   2.683  14.393 -1.2280 -0.5860  0.1320
 5035TIP3    H236597   4.109   2.823  14.369 -2.0856 -0.0798  1.1867
 5036TIP3   OH236598   0.651   1.454  15.794 -0.0189 -0.0747 -0.1156
 5036TIP3    H136599   0.711   1.392  15.836  0.3649 -0.6843 -1.4901
 5036TIP3    H236600   0.627   1.411  15.712 -0.8300  1.0206 -0.4720
 5037TIP3   OH236601   1.278   0.659   1.137  0.1432 -0.0259  0.3458
 5037TIP3    H136602   1.211   0.691   1.076  0.9723 -0.2809 -0.7266
 5037TIP3    H236603   1.353   0.715   1.120  0.3110  0.0444  1.3119
 5038TIP3   OH236604   4.036   2.825   1.487 -0.3161 -0.4552 -0.0542
 5038TIP3    H136605   4.046   2.732   1.510  0.6947  0.0512  1.7266
 5038TIP3    H236606   3.997   2.865   1.564  0.5617  0.8329 -0.2398
 5039TIP3   OH236607   0.650   4.504   4.973 -0.0034  0.2172  0.4946
 5039TIP3    H136608   0.636   4.563   4.899  0.4921 -0.5882 -0.2504
 5039TIP3    H236609   0.745   4.505   4.987 -0.0142 -0.2425  0.6115
 5040TIP3   OH236610   5.625   0.157   2.357  0.4898  0.4380 -0.6992
 5040TIP3    H136611   5.716   0.134   2.337  0.1752 -1.5011 -0.0849
 5040TIP3    H236612   5.587   0.180   2.272  1.6445  1.7624 -0.8975
 5041TIP3   OH236613   6.806   1.798  11.247  0.4321 -0.3859 -0.1922
 5041TIP3    H136614   6.856   1.778  11.326  0.1905 -0.9869 -0.1861
 5041TIP3    H236615   6.746   1.868  11.273 -0.2280 -1.1535  0.3958
 5042TIP3   OH236616   1.171   0.290   5.035  0.3039  0.4012 -0.7952
 5042TIP3    H136617   1.204   0.346   4.965  3.1980 -0.1183  0.0352
 5042TIP3    H236618   1.091   0.335   5.065  1.4762  3.1016 -1.3938
 5043TIP3   OH236619   6.374   1.897  14.639  0.3571  0.0259  0.3058
 5043TIP3    H136620   6.382   1.992  14.649  1.2352 -0.1505  1.4837
 5043TIP3    H236621   6.403   1.880  14.549  1.5737  0.7292  0.5530
 5044TIP3   OH236622   3.620   5.552   2.442  0.5242  0.1932  0.2335
 5044TIP3    H136623   3.674   5.608   2.497 -0.1452  1.1611 -0.0479
 5044TIP3    H236624   3.563   5.505   2.503  0.6700  0.2906  0.4447
 5045TIP3   OH236625   6.102   6.641  15.936 -0.7125 -0.4022 -0.4158
 5045TIP3    H136626   6.141   6.555  15.950  0.8745  0.3764  0.2109
 5045TIP3    H236627   6.036   6.650  16.005 -0.3779 -0.8308 -0.0408
 5046TIP3   OH236628   3.210   2.036  14.621  0.2052 -0.2898 -0.2911
 5046TIP3    H136629   3.275   2.071  14.560  0.3942 -0.7777 -0.3788
 5046TIP3    H236630   3.154   1.980  14.566  0.9906 -1.5439  0.1407
 5047TIP3   OH236631   1.872   4.075   3.182 -0.2012 -0.6413  0.2583
 5047TIP3    H136632   1.807   4.030   3.237 -0.4099 -0.1653  0.4022
 5047TIP3    H236633   1.951   4.077   3.236  0.4760 -2.7303 -0.5393
 5048TIP3   OH236634   4.870   1.001   2.299  0.3644  0.1742 -0.2227
 5048TIP3    H136635   4.961   1.024   2.284  0.5697 -0.8682 -0.6486
 5048TIP3    H236636   4.829   1.082   2.330  1.7425  0.3128  1.3924
 5049TIP3   OH236637   1.911   6.569   5.818  0.7023 -0.0002 -0.2414
 5049TIP3    H136638   1.970   6.519   5.874  1.7438  2.4236  0.9788
 5049TIP3    H236639   1.968   6.609   5.753  0.2625  1.3935  0.2064
 5050TIP3   OH236640   0.241   1.857   2.356 -0.3631  0.1720 -1.1616
 5050TIP3    H136641   0.279   1.876   2.270 -0.0169 -0.5104 -1.1634
 5050TIP3    H236642   0.244   1.941   2.402 -0.1044  0.4319 -1.6455
 5051TIP3   OH236643   3.750   3.464   3.443  0.2456  0.2841 -0.3398
 5051TIP3    H136644   3.826   3.512   3.478 -0.6704  0.2462  1.9284
 5051TIP3    H236645   3.780   3.426   3.361  2.5074  0.7193  0.2300
 5052TIP3   OH236646   3.444   3.452  13.082  0.2751  0.4550  0.0286
 5052TIP3    H136647   3.490   3.415  13.007  1.7318 -0.7809  1.4589
 5052TIP3    H236648   3.403   3.376  13.125  2.4002  0.5325  2.4031
 5053TIP3   OH236649   2.104   2.695   6.300  0.1221  0.0173 -0.7550
 5053TIP3    H136650   2.196   2.691   6.327  0.0641 -2.8745 -0.6711
 5053TIP3    H236651   2.105   2.670   6.207 -0.5691  0.0971 -0.7907
 5054TIP3   OH236652   0.189   2.353  12.644 -0.5944 -0.2115  0.3829
 5054TIP3    H136653   0.264   2.408  12.622  0.7529 -2.4572 -1.1148
 5054TIP3    H236654   0.119   2.384  12.587 -0.1314  0.5045  0.1947
 5055TIP3   OH236655   5.957   2.593   4.348  0.1310  0.9386  0.1355
 5055TIP3    H136656   5.878   2.609   4.400  1.5236  1.7846  2.1109
 5055TIP3    H236657   6.024   2.649   4.388  1.8597 -0.0653 -1.2082
 5056TIP3   OH236658   4.580   1.893   6.076 -0.2409  0.5178  0.1715
 5056TIP3    H136659   4.568   1.817   6.019 -1.3334 -0.5677  1.7714
 5056TIP3    H236660   4.499   1.942   6.067 -0.3300  0.4550  0.6298
 5057TIP3   OH236661   6.197   5.848  16.681  0.1958 -0.1594  0.4647
 5057TIP3    H136662   6.240   5.824  16.599 -0.4620  0.7554 -0.1667
 5057TIP3    H236663   6.183   5.942  16.674  0.8922  0.0851  2.0099
 5058TIP3   OH236664   0.329   6.108  15.831  0.3677  0.1473  0.7121
 5058TIP3    H136665   0.374   6.030  15.863  0.0520 -0.3896 -0.1293
 5058TIP3    H236666   0.275   6.136  15.905  2.5911  1.2593  2.0228
 5059TIP3   OH236667   0.468   0.857  11.494 -0.2848  0.2583 -0.7007
 5059TIP3    H136668   0.469   0.811  11.410  0.0241  0.8905 -1.0480
 5059TIP3    H236669   0.552   0.833  11.535 -0.5388 -0.2402 -0.4611
 5060TIP3   OH236670   1.863   1.327   5.188 -0.2337 -0.3784 -0.1312
 5060TIP3    H136671   1.777   1.364   5.165 -0.0576 -0.3932 -0.8388
 5060TIP3    H236672   1.900   1.390   5.250  0.4711  1.2154 -2.0425
 5061TIP3   OH236673   2.018   5.254  12.221  0.5898  0.7921  0.3269
 5061TIP3    H136674   1.949   5.195  12.253 -0.4831 -0.1963 -3.3535
 5061TIP3    H236675   2.011   5.332  12.277  0.2010 -1.3727  3.5539
 5062TIP3   OH236676   0.319   0.283  13.962  0.5047 -0.2609  0.3772
 5062TIP3    H136677   0.377   0.358  13.950 -0.6638  0.6740  0.3282
 5062TIP3    H236678   0.356   0.235  14.036  0.8907  0.7661  0.8623
 5063TIP3   OH236679   4.448   3.886   2.669 -0.4716  0.1018 -0.4537
 5063TIP3    H136680   4.404   3.882   2.584 -0.7367  1.2300 -0.3896
 5063TIP3    H236681   4.380   3.912   2.731 -0.8101 -2.7661  0.5509
 5064TIP3   OH236682   4.802   1.357  11.409 -0.2906  0.5177 -0.2415
 5064TIP3    H136683   4.807   1.360  11.505 -2.8988 -0.5133  0.0186
 5064TIP3    H236684   4.841   1.440  11.381 -0.9462  1.6213  1.8309
 5065TIP3   OH236685   0.264   1.062  15.577 -0.1045 -0.0038 -0.1693
 5065TIP3    H136686   0.301   1.009  15.506 -1.1443 -0.2642 -0.5412
 5065TIP3    H236687   0.235   1.142  15.535 -1.6064 -0.5486 -0.2606
 5066TIP3   OH236688   5.758   1.844  11.784  0.0772  0.1117 -0.1435
 5066TIP3    H136689   5.664   1.848  11.805  0.2168 -0.3686  0.6497
 5066TIP3    H236690   5.776   1.750  11.775  0.2359  0.2557 -1.5488
 5067TIP3   OH236691   0.154   1.462   2.115 -0.3366 -0.4548 -0.1463
 5067TIP3    H136692   0.094   1.406   2.067 -1.6950  0.9555 -0.1859
 5067TIP3    H236693   0.206   1.505   2.048 -1.0583  0.2280 -0.2828
 5068TIP3   OH236694   1.147   1.309   5.273 -0.3873  0.0983 -0.4879
 5068TIP3    H136695   1.141   1.235   5.333  1.2276  0.3279 -0.0019
 5068TIP3    H236696   1.081   1.291   5.206 -0.4488 -1.4651 -0.0482
 5069TIP3   OH236697   2.967   1.318  15.891  0.5927 -0.4001 -0.2644
 5069TIP3    H136698   3.039   1.380  15.901 -0.1761  1.2356 -3.3861
 5069TIP3    H236699   2.889   1.373  15.878 -0.2758 -1.9476 -2.2377
 5070TIP3   OH236700   3.096   4.625  12.691 -0.7278 -0.5779 -0.0831
 5070TIP3    H136701   3.101   4.556  12.757 -0.2445  1.2974  1.9620
 5070TIP3    H236702   3.065   4.702  12.739  0.1219  1.0097 -1.9275
 5071TIP3   OH236703   1.649   6.051  12.185 -0.2891  0.7873  0.1285
 5071TIP3    H136704   1.606   6.071  12.102 -1.3047  0.4996  0.5742
 5071TIP3    H236705   1.585   5.999  12.234  0.9039 -0.3989  0.4660
 5072TIP3   OH236706   0.287   2.462  13.975  0.1081  0.2902 -0.2850
 5072TIP3    H136707   0.209   2.439  13.924  0.5643 -1.4658 -0.2544
 5072TIP3    H236708   0.313   2.548  13.943 -1.1346  0.3522 -1.1572
 5073TIP3   OH236709   1.368   4.927   4.669 -0.4625  0.1951  0.5391
 5073TIP3    H136710   1.396   5.003   4.719 -1.8055  0.2696  1.2142
 5073TIP3    H236711   1.283   4.903   4.706 -1.6341  0.3895 -1.8151
 5074TIP3   OH236712   4.615   4.831  12.924 -0.1850  0.0880  0.0265
 5074TIP3    H136713   4.575   4.891  12.987 -3.1599  0.3524 -1.9131
 5074TIP3    H236714   4.623   4.882  12.843 -0.8549 -1.5045 -1.1105
 5075TIP3   OH236715   2.058   3.012  16.824  0.4453  0.1536  0.0328
 5075TIP3    H136716   2.068   3.104  16.850 -1.0419  0.3731 -0.0854
 5075TIP3    H236717   1.966   3.004  16.800 -0.1045 -2.0020  2.5194
 5076TIP3   OH236718   1.883   3.076   3.003  0.2371  0.0223  0.6329
 5076TIP3    H136719   1.856   3.120   3.084 -0.4102 -0.7914  0.8786
 5076TIP3    H236720   1.943   3.008   3.032 -0.6508 -0.8287  0.5468
 5077TIP3   OH236721   0.193   6.162  11.219 -0.5059  0.1175  0.3674
 5077TIP3    H136722   0.187   6.186  11.126 -0.6257  0.3363  0.4300
 5077TIP3    H236723   0.156   6.074  11.223 -0.1544 -0.0401  0.1489
 5078TIP3   OH236724   5.780   1.178   5.002  0.3718 -0.0587 -0.2918
 5078TIP3    H136725   5.748   1.113   4.939  1.2412  0.1553 -0.9715
 5078TIP3    H236726   5.755   1.262   4.963  0.8105  0.0703 -0.2981
 5079TIP3   OH236727   6.804   5.510  16.517  0.7047 -0.4251  0.3059
 5079TIP3    H136728   6.894   5.492  16.488  0.5808 -0.6636  0.0669
 5079TIP3    H236729   6.793   5.604  16.505  1.0205 -0.3480  0.6094
 5080TIP3   OH236730   4.920   1.593   2.505 -0.5111 -0.6153 -0.1421
 5080TIP3    H136731   4.993   1.530   2.507  0.8499  0.8896 -0.0491
 5080TIP3    H236732   4.948   1.663   2.565 -3.6216 -1.6072  2.7992
 5081TIP3   OH236733   6.518   6.200   2.535  0.0554  0.2721 -0.5937
 5081TIP3    H136734   6.495   6.281   2.489 -0.0749  0.7824  0.3426
 5081TIP3    H236735   6.588   6.162   2.483  2.2507  2.5250  0.5228
 5082TIP3   OH236736   6.390   3.190  12.822 -0.3152 -0.1854 -0.3194
 5082TIP3    H136737   6.428   3.262  12.772  0.5924  0.1145  0.7425
 5082TIP3    H236738   6.353   3.132  12.756  3.0671 -1.1368 -1.6330
 5083TIP3   OH236739   3.650   4.229  17.043 -0.0204 -0.3977  0.2623
 5083TIP3    H136740   3.699   4.310  17.029 -1.4475  0.4582  0.0105
 5083TIP3    H236741   3.699   4.183  17.112  1.2227  0.3102 -0.1152
 5084TIP3   OH236742   5.499   4.713  12.034  0.0325 -0.6363 -0.2988
 5084TIP3    H136743   5.561   4.762  12.088  0.4479 -0.7457 -0.6672
 5084TIP3    H236744   5.538   4.626  12.027 -0.8452 -1.1160  0.5918
 5085TIP3   OH236745   1.648   5.461   2.044  0.4819  0.8000 -0.7263
 5085TIP3    H136746   1.647   5.556   2.029  0.2361  0.7967 -0.7311
 5085TIP3    H236747   1.654   5.452   2.139  1.9851  0.8205 -0.7945
 5086TIP3   OH236748   3.498   6.194  11.480  0.0517 -0.1112  0.4486
 5086TIP3    H136749   3.523   6.119  11.426  0.5054  0.2281  0.1753
 5086TIP3    H236750   3.561   6.263  11.456 -0.6592  0.5096  0.3295
 5087TIP3   OH236751   3.688   6.671  13.564 -0.6233  0.0486 -0.7939
 5087TIP3    H136752   3.623   6.639  13.501 -0.4038 -1.0510 -0.4944
 5087TIP3    H236753   3.733   6.742  13.519 -1.8646  0.6754 -1.0961
 5088TIP3   OH236754   1.762   2.877  12.396  0.1146 -0.0723  0.1725
 5088TIP3    H136755   1.785   2.963  12.361  1.4525 -0.1228  0.8798
 5088TIP3    H236756   1.706   2.838  12.329  0.0880  1.0586 -0.4799
 5089TIP3   OH236757   2.920   6.572   2.574  0.1170 -0.5354 -0.2570
 5089TIP3    H136758   2.854   6.556   2.642  0.6284 -1.1572  0.1109
 5089TIP3    H236759   3.000   6.593   2.623  0.4898 -0.9947 -0.6554
 5090TIP3   OH236760   5.552   0.375  10.405  0.5285  0.3171  0.2066
 5090TIP3    H136761   5.605   0.337  10.336 -1.4871 -1.2938 -0.5432
 5090TIP3    H236762   5.500   0.443  10.362  1.5567  1.5512  0.8379
 5091TIP3   OH236763   0.741   1.847  15.513 -0.0828 -0.1286 -0.2654
 5091TIP3    H136764   0.742   1.836  15.608  0.9106 -1.2109 -0.3802
 5091TIP3    H236765   0.776   1.765  15.479  0.4388  0.5977 -1.5461
 5092TIP3   OH236766   0.130   2.599   0.390  0.2446 -0.3904 -0.3733
 5092TIP3    H136767   0.210   2.590   0.441 -0.5115 -0.6368  0.7936
 5092TIP3    H236768   0.157   2.580   0.300  1.5874 -0.0008 -0.0786
 5093TIP3   OH236769   4.744   5.318   0.868  0.4187  0.1440 -0.4205
 5093TIP3    H136770   4.767   5.375   0.796  1.0252  1.0126  0.4344
 5093TIP3    H236771   4.727   5.377   0.941  0.4695 -0.7326  0.3238
 5094TIP3   OH236772   2.722   2.681  10.780  0.0090  0.6441 -0.3282
 5094TIP3    H136773   2.809   2.721  10.787  0.7369 -0.4041 -2.5518
 5094TIP3    H236774   2.739   2.587  10.789 -1.1807  0.5389  1.1294
 5095TIP3   OH236775   1.550   5.193  17.227 -0.2148  0.1341  0.7503
 5095TIP3    H136776   1.487   5.134  17.186 -1.0130  2.0306 -0.9361
 5095TIP3    H236777   1.633   5.175  17.181 -0.2901 -0.1463  0.7248
 5096TIP3   OH236778   2.895   2.895  13.456 -0.2375 -0.2492  0.3812
 5096TIP3    H136779   2.945   2.967  13.495 -1.6179  1.2742 -0.5599
 5096TIP3    H236780   2.945   2.869  13.379  1.0101 -1.3280  1.5037
 5097TIP3   OH236781   3.298   6.778  14.804 -0.4589 -0.2124  0.2556
 5097TIP3    H136782   3.316   6.725  14.882 -0.7489 -0.0099  0.4630
 5097TIP3    H236783   3.367   6.754  14.742 -0.9678 -1.3226  0.0958
 5098TIP3   OH236784   5.480   4.317   4.565  0.8749 -0.0942  0.2121
 5098TIP3    H136785   5.425   4.395   4.553  0.6735 -0.3557 -0.6526
 5098TIP3    H236786   5.558   4.349   4.608  1.7763  1.0246 -2.0848
 5099TIP3   OH236787   1.304   0.742  16.331 -0.1607 -0.0868  0.0788
 5099TIP3    H136788   1.328   0.790  16.410 -1.0653 -0.7972  0.8088
 5099TIP3    H236789   1.229   0.689  16.357  1.6840 -3.0826 -0.2667
 5100TIP3   OH236790   2.928   6.259   0.197  0.5704 -0.2957 -0.3437
 5100TIP3    H136791   2.887   6.207   0.127  1.2847 -0.8364 -0.3752
 5100TIP3    H236792   2.958   6.339   0.154 -2.2644  1.1129  0.0638
 5101TIP3   OH236793   3.934   2.608   2.017  0.2963  0.6478 -0.1895
 5101TIP3    H136794   3.870   2.646   2.077  0.6886  1.7960 -0.4652
 5101TIP3    H236795   3.978   2.684   1.979  0.8947 -0.0965 -1.0075
 5102TIP3   OH236796   6.308   0.447  13.332 -0.2555  0.3802  0.4606
 5102TIP3    H136797   6.256   0.500  13.392  0.6346  0.7511  0.9113
 5102TIP3    H236798   6.244   0.385  13.295 -1.0098  0.7905  1.0316
 5103TIP3   OH236799   5.110   2.921  11.870 -0.4335  0.0268 -0.1882
 5103TIP3    H136800   5.108   2.996  11.929 -0.6828 -0.3289  0.2657
 5103TIP3    H236801   5.192   2.931  11.821  1.2316 -1.1081  2.1716
 5104TIP3   OH236802   5.498   2.520   5.155  0.3203 -0.1538  0.1348
 5104TIP3    H136803   5.428   2.506   5.092 -0.6424  0.7170  0.9706
 5104TIP3    H236804   5.498   2.615   5.170  2.0207 -0.0641 -0.2152
 5105TIP3   OH236805   5.839   3.861   5.806 -0.2975 -0.3186 -0.2666
 5105TIP3    H136806   5.902   3.790   5.796  0.5230  0.3217  0.2434
 5105TIP3    H236807   5.803   3.850   5.894 -0.6200 -0.4553 -0.4135
 5106TIP3   OH236808   5.005   5.335   1.316 -0.2489 -0.7761  0.1412
 5106TIP3    H136809   5.070   5.379   1.262  0.4118 -1.1972  0.5852
 5106TIP3    H236810   4.990   5.395   1.389 -0.4455 -0.6345 -0.0119
 5107TIP3   OH236811   1.665   5.769   2.253  0.4599 -0.2199  0.2514
 5107TIP3    H136812   1.736   5.833   2.260 -0.5361  1.2771 -2.0634
 5107TIP3    H236813   1.585   5.820   2.270 -0.3935 -0.6887 -2.0654
 5108TIP3   OH236814   1.416   6.796   1.864  0.2101  0.2888  0.1600
 5108TIP3    H136815   1.459   6.880   1.851  3.0480 -0.9953  0.5400
 5108TIP3    H236816   1.478   6.731   1.830 -1.0513 -1.7722  1.5183
 5109TIP3   OH236817   5.985   2.072   3.157  0.9155 -0.0313  0.1432
 5109TIP3    H136818   6.048   2.119   3.212  0.4434 -0.2869  0.9185
 5109TIP3    H236819   5.993   2.114   3.071  1.4363  0.5935  0.4828
 5110TIP3   OH236820   0.555   5.065  16.689  0.1768 -0.6945 -0.6260
 5110TIP3    H136821   0.650   5.061  16.675  0.5275  0.5171  1.0714
 5110TIP3    H236822   0.528   4.974  16.695  1.4332 -1.0570 -0.0645
 5111TIP3   OH236823   0.827   2.610  17.231 -0.1181  0.0935 -0.3802
 5111TIP3    H136824   0.796   2.547  17.297  0.1966  2.5377  2.2857
 5111TIP3    H236825   0.755   2.616  17.168 -2.3757  0.7213  2.0616
 5112TIP3   OH236826   4.452   0.372   0.788 -0.3751 -0.0645 -0.2096
 5112TIP3    H136827   4.525   0.315   0.814  0.4441  0.3022 -1.5657
 5112TIP3    H236828   4.408   0.394   0.869  0.2791 -1.3212  0.5121
 5113TIP3   OH236829   2.860   0.608  17.155 -0.0513 -0.2202  0.0145
 5113TIP3    H136830   2.947   0.648  17.159  0.5045 -1.4598  0.9429
 5113TIP3    H236831   2.820   0.646  17.077  2.5657 -2.0576 -2.4126
 5114TIP3   OH236832   4.673   0.117   3.419  0.8240 -0.6275  0.6134
 5114TIP3    H136833   4.716   0.200   3.395 -0.3558 -0.1184  0.1584
 5114TIP3    H236834   4.580   0.136   3.411  0.4660 -1.3955  2.5689
 5115TIP3   OH236835   2.725   2.915  15.124  0.2454  0.4888  0.4668
 5115TIP3    H136836   2.700   2.976  15.054 -1.8577  0.2337  0.9297
 5115TIP3    H236837   2.707   2.963  15.205 -0.6736 -0.4520  0.8328
 5116TIP3   OH236838   1.863   4.365  16.044  0.1491  0.1750  0.5708
 5116TIP3    H136839   1.861   4.290  15.984  2.1887  0.7665 -0.3314
 5116TIP3    H236840   1.853   4.326  16.130 -1.3775 -0.8602 -0.0363
 5117TIP3   OH236841   3.419   6.366   5.087 -0.0376  0.2194 -0.5232
 5117TIP3    H136842   3.340   6.420   5.095 -0.0410  0.4957 -2.0193
 5117TIP3    H236843   3.480   6.402   5.152 -0.8126  0.6136 -0.0047
 5118TIP3   OH236844   3.337   2.689  12.860 -0.0167  0.5400  0.4496
 5118TIP3    H136845   3.420   2.686  12.907  1.2691  1.3861 -1.6625
 5118TIP3    H236846   3.361   2.684  12.768 -2.4270 -0.7741 -0.1844
 5119TIP3   OH236847   3.104   1.721   4.825  0.2397  0.0385  0.6307
 5119TIP3    H136848   3.085   1.736   4.917  0.6752 -0.4774  0.8101
 5119TIP3    H236849   3.195   1.748   4.814  0.7205 -1.4780  0.7365
 5120TIP3   OH236850   3.791   0.579   0.632  0.8709  0.3877  0.4414
 5120TIP3    H136851   3.797   0.517   0.704  2.3918 -0.4660 -0.3569
 5120TIP3    H236852   3.721   0.545   0.577 -1.2924  1.8327  2.1665
 5121TIP3   OH236853   6.642   5.247  15.013 -0.0028 -0.4551 -0.1012
 5121TIP3    H136854   6.608   5.261  15.102 -0.4145 -1.3721 -0.1050
 5121TIP3    H236855   6.576   5.286  14.956  0.8176  1.1998  0.0032
 5122TIP3   OH236856   5.647   2.702   3.559 -0.5340 -0.5193 -0.2860
 5122TIP3    H136857   5.635   2.622   3.509  1.9526 -1.4733  0.4760
 5122TIP3    H236858   5.724   2.685   3.613  0.5034  2.6156 -0.5643
 5123TIP3   OH236859   4.510   5.010  10.941 -0.4577  0.2573  0.5806
 5123TIP3    H136860   4.516   4.934  10.882  1.4428  0.6869  0.1262
 5123TIP3    H236861   4.595   5.011  10.986  0.0895  2.7853 -0.3366
 5124TIP3   OH236862   5.887   5.164   3.853  0.4192  0.5584  0.0810
 5124TIP3    H136863   5.864   5.184   3.944 -0.7817  0.7548 -0.2545
 5124TIP3    H236864   5.908   5.070   3.855 -1.7981  0.0026  0.1823
 5125TIP3   OH236865   5.037   1.744   3.146 -0.1563 -0.4671 -0.3911
 5125TIP3    H136866   5.090   1.817   3.177 -1.3584  0.8604 -1.3156
 5125TIP3    H236867   5.033   1.756   3.051  0.2946 -2.2363 -0.6815
 5126TIP3   OH236868   1.976   6.655   1.465 -0.1986 -0.3477  0.4693
 5126TIP3    H136869   2.058   6.705   1.472 -0.2057  0.3889 -2.7469
 5126TIP3    H236870   1.932   6.694   1.390 -2.1794 -2.5824  0.3702
 5127TIP3   OH236871   3.153   0.528   1.143  0.0953 -0.2565 -0.0477
 5127TIP3    H136872   3.076   0.582   1.162  1.2630  1.2340  0.5528
 5127TIP3    H236873   3.119   0.438   1.145 -1.9650  0.4020 -1.4087
 5128TIP3   OH236874   5.026   2.993   3.647  0.5171 -0.2182  0.1374
 5128TIP3    H136875   5.005   2.982   3.739  0.8107 -0.3862  0.1872
 5128TIP3    H236876   5.115   2.958   3.639  0.4141 -0.3952 -0.2482
 5129TIP3   OH236877   0.299   0.932   4.166 -0.0479 -0.1143 -0.2279
 5129TIP3    H136878   0.393   0.941   4.149 -0.0607  0.2454 -0.1314
 5129TIP3    H236879   0.272   0.856   4.115  0.2244  0.0130 -0.5687
 5130TIP3   OH236880   1.067   5.815   1.193 -0.5694  0.4351 -0.0296
 5130TIP3    H136881   1.075   5.719   1.188 -0.8350  0.2439  2.2035
 5130TIP3    H236882   0.985   5.834   1.149 -0.2510 -0.2864 -0.9856
 5131TIP3   OH236883   0.915   5.815   5.251 -0.0465  0.3224  0.4553
 5131TIP3    H136884   0.823   5.837   5.239 -0.0094  0.4613  0.4153
 5131TIP3    H236885   0.962   5.886   5.207  0.0827  0.3924  0.7029
 5132TIP3   OH236886   5.213   3.826  15.015  0.2610  0.0107  0.2189
 5132TIP3    H136887   5.183   3.916  15.027  0.6364  0.0754  0.6783
 5132TIP3    H236888   5.218   3.815  14.920  2.1197  1.1108  0.1562
 5133TIP3   OH236889   2.153   2.409  11.188  0.6914 -0.0855 -0.2478
 5133TIP3    H136890   2.199   2.326  11.175  0.6655 -0.3117  1.0036
 5133TIP3    H236891   2.079   2.387  11.245 -0.1157  0.5542 -1.0059
 5134TIP3   OH236892   1.471   1.294   2.168  1.0026  0.8600  0.0485
 5134TIP3    H136893   1.477   1.346   2.088 -0.6685  1.5639  0.3515
 5134TIP3    H236894   1.396   1.236   2.154  2.7354 -1.4638 -0.2335
 5135TIP3   OH236895   1.025   4.864   2.697  0.1540 -0.6973  0.1060
 5135TIP3    H136896   1.014   4.772   2.720 -0.2121 -0.9446 -0.9762
 5135TIP3    H236897   0.985   4.912   2.770  1.7687 -1.3145  1.4631
 5136TIP3   OH236898   5.359   3.968  12.195  0.1347  0.2579  0.3200
 5136TIP3    H136899   5.333   3.896  12.138 -2.9079  2.0359 -0.8293
 5136TIP3    H236900   5.334   3.939  12.283 -2.3410  0.2742 -0.2821
 5137TIP3   OH236901   4.251   5.234   5.364  0.6506 -0.1940 -0.1500
 5137TIP3    H136902   4.282   5.183   5.439 -0.0765  0.2394  0.4725
 5137TIP3    H236903   4.198   5.304   5.403 -0.9198 -0.7786 -1.1175
 5138TIP3   OH236904   1.278   5.707   4.185 -0.3300  0.0898 -0.1988
 5138TIP3    H136905   1.290   5.614   4.208  0.1152  0.2260  0.1372
 5138TIP3    H236906   1.238   5.705   4.098  0.9954 -0.4244 -0.8349
 5139TIP3   OH236907   3.807   3.022  14.257 -0.2384  0.7975  0.8907
 5139TIP3    H136908   3.881   3.026  14.197 -0.4418 -1.9212  0.3386
 5139TIP3    H236909   3.766   3.109  14.251  0.5621  1.0681 -1.8363
 5140TIP3   OH236910   0.454   1.610  14.369  0.2112  0.1462  0.0532
 5140TIP3    H136911   0.538   1.631  14.327 -0.0316 -0.3959 -0.7128
 5140TIP3    H236912   0.390   1.660  14.320 -0.4480 -2.5843 -2.1113
 5141TIP3   OH236913   0.923   6.512   5.064 -0.4438  0.2503 -0.2807
 5141TIP3    H136914   0.993   6.558   5.017  0.1884  0.8331  1.1862
 5141TIP3    H236915   0.849   6.511   5.003  0.9064 -0.6552 -1.9936
 5142TIP3   OH236916   4.941   1.675   1.532 -0.1720 -0.5274  0.0260
 5142TIP3    H136917   4.939   1.690   1.437 -0.5600 -0.4343  0.0492
 5142TIP3    H236918   4.878   1.604   1.546  1.3288 -1.9262 -0.0302
 5143TIP3   OH236919   6.543   3.114   0.846 -0.0486 -0.5490 -0.0704
 5143TIP3    H136920   6.527   3.087   0.755  0.1761 -1.0153  0.0286
 5143TIP3    H236921   6.481   3.185   0.860  1.0125  0.6482 -1.1158
 5144TIP3   OH236922   4.975   4.417  12.212 -0.4015 -0.4765 -0.0388
 5144TIP3    H136923   5.027   4.474  12.156 -0.4998  0.3748  0.7141
 5144TIP3    H236924   4.979   4.331  12.169  1.2518 -0.3342 -0.2250
 5145TIP3   OH236925   1.101   1.537   2.071  0.1565 -0.2990  0.3967
 5145TIP3    H136926   1.027   1.483   2.098 -0.4412  0.6722  0.7347
 5145TIP3    H236927   1.165   1.528   2.142  0.1621 -0.7278  0.3432
 5146TIP3   OH236928   4.045   3.476   3.816  0.1748  0.5036  0.5984
 5146TIP3    H136929   4.097   3.441   3.888 -0.1665 -0.6010  0.3303
 5146TIP3    H236930   3.955   3.454   3.840  0.0654  0.0898 -0.1833
 5147TIP3   OH236931   5.200   1.392  15.462  0.0146 -0.1432  0.3383
 5147TIP3    H136932   5.226   1.396  15.370  1.3580  3.6290  0.6865
 5147TIP3    H236933   5.282   1.385  15.510 -0.4970  0.0540  1.2738
 5148TIP3   OH236934   3.490   4.560   4.298  0.1391  0.1939  0.0928
 5148TIP3    H136935   3.548   4.492   4.332 -1.4851 -0.6096  1.3998
 5148TIP3    H236936   3.517   4.640   4.344  1.4135  0.2476 -0.7201
 5149TIP3   OH236937   0.969   2.122  11.730 -0.3140 -0.3032 -0.1194
 5149TIP3    H136938   1.050   2.172  11.719 -1.5626  1.8520  0.0575
 5149TIP3    H236939   0.956   2.079  11.646  0.8004 -0.3863 -0.2698
 5150TIP3   OH236940   2.376   5.457  11.691 -0.3830  0.7931 -0.0469
 5150TIP3    H136941   2.352   5.379  11.741  1.5590 -0.7756 -1.4039
 5150TIP3    H236942   2.344   5.440  11.603  2.3183  0.2574 -1.0091
 5151TIP3   OH236943   2.182   5.552  15.314  0.1806  0.5062  0.0873
 5151TIP3    H136944   2.170   5.524  15.223 -0.2073 -1.4654  0.6786
 5151TIP3    H236945   2.113   5.505  15.362  3.4712 -2.8160  2.1295
 5152TIP3   OH236946   4.668   2.245   3.392  0.2556 -0.4154  0.0877
 5152TIP3    H136947   4.761   2.223   3.388  0.0673 -1.0560 -1.0003
 5152TIP3    H236948   4.663   2.335   3.359  0.3972 -0.6749 -0.6607
 5153TIP3   OH236949   3.629   4.810   4.021  0.7540  0.1463  0.6484
 5153TIP3    H136950   3.632   4.905   4.031  0.2690  0.1592  0.6757
 5153TIP3    H236951   3.706   4.790   3.967  0.7708  0.5671  0.5099
 5154TIP3   OH236952   5.944   4.545  17.213 -0.2072  0.2394 -0.1300
 5154TIP3    H136953   5.979   4.515  17.129 -0.7060 -1.8210  0.3372
 5154TIP3    H236954   5.854   4.512  17.214 -0.1401  0.0551  1.2887
 5155TIP3   OH236955   3.979   6.280  14.839 -0.4300  0.1307 -0.3850
 5155TIP3    H136956   3.917   6.300  14.769 -0.9866  0.1059  0.0983
 5155TIP3    H236957   4.061   6.321  14.811 -0.4979 -0.3272 -1.3032
 5156TIP3   OH236958   0.233   0.359   2.684 -0.6058 -0.4070  0.2331
 5156TIP3    H136959   0.289   0.434   2.704 -0.0240 -0.1392 -2.1031
 5156TIP3    H236960   0.213   0.320   2.769  0.9318  1.0579  1.3212
 5157TIP3   OH236961   3.029   0.792   1.027 -0.2961  0.0572 -0.1202
 5157TIP3    H136962   2.963   0.860   1.015  0.0718  0.6339  0.9855
 5157TIP3    H236963   2.981   0.710   1.016 -0.8657  0.4857 -0.8867
 5158TIP3   OH236964   2.648   6.566   4.370  0.6111 -0.6137 -0.0105
 5158TIP3    H136965   2.615   6.577   4.459  1.1830 -0.3256  0.1684
 5158TIP3    H236966   2.615   6.480   4.343 -1.5353  0.2786 -0.4002
 5159TIP3   OH236967   5.548   4.867  15.150 -0.3054  0.1658 -0.7624
 5159TIP3    H136968   5.629   4.841  15.105 -0.3910 -1.0393 -0.2375
 5159TIP3    H236969   5.484   4.877  15.080 -0.1905 -0.7654 -1.0178
 5160TIP3   OH236970   0.123   6.463   3.918  0.5704  0.6915 -0.4077
 5160TIP3    H136971   0.182   6.404   3.965 -0.9472  0.1162  0.8687
 5160TIP3    H236972   0.068   6.405   3.866  0.6266  1.1651 -0.9974
 5161TIP3   OH236973   6.706   2.123  15.046  0.9719 -0.2986  0.0482
 5161TIP3    H136974   6.757   2.201  15.068  0.1663  0.0315  0.7884
 5161TIP3    H236975   6.769   2.065  15.003  1.4503  0.9793 -1.0485
 5162TIP3   OH236976   2.626   0.140  13.451 -0.6878  0.4270  0.3697
 5162TIP3    H136977   2.699   0.078  13.444 -0.3298  0.7753  0.9200
 5162TIP3    H236978   2.640   0.202  13.381  0.1004  1.0531  1.0654
 5163TIP3   OH236979   6.431   6.578   6.656 -0.1403 -0.0797  0.0580
 5163TIP3    H136980   6.371   6.589   6.730  1.1448 -0.0445  1.1385
 5163TIP3    H236981   6.405   6.495   6.617  1.1876 -1.8481  2.6089
 5164TIP3   OH236982   3.806   0.718   1.381 -0.3559  0.0290  0.5998
 5164TIP3    H136983   3.771   0.796   1.336  1.8110  0.4174 -0.5559
 5164TIP3    H236984   3.888   0.699   1.335 -0.5765 -2.6730  1.1840
 5165TIP3   OH236985   5.538   5.636  12.375 -0.2468 -0.0424  0.0691
 5165TIP3    H136986   5.548   5.558  12.319 -0.1564 -0.5646  0.7969
 5165TIP3    H236987   5.494   5.700  12.319 -1.2269 -0.9592 -0.2411
 5166TIP3   OH236988   0.566   1.070   0.968 -0.4636  0.4461  0.0267
 5166TIP3    H136989   0.524   0.985   0.982  0.1271  0.0924 -0.3677
 5166TIP3    H236990   0.658   1.056   0.988 -0.2248  0.8031 -0.7839
 5167TIP3   OH236991   6.324   3.931  16.837  0.1016 -0.0428  0.0531
 5167TIP3    H136992   6.358   3.920  16.926  0.5422  0.6140 -0.0279
 5167TIP3    H236993   6.367   3.863  16.785 -2.2266 -2.3340  0.8506
 5168TIP3   OH236994   2.097   2.748  15.876  0.0192 -0.5349  0.8612
 5168TIP3    H136995   2.047   2.705  15.807  1.1648  1.3699 -1.2904
 5168TIP3    H236996   2.129   2.677  15.931 -1.4337 -2.0876 -0.1955
 5169TIP3   OH236997   1.053   3.374   2.871 -0.1564 -0.4379  0.0115
 5169TIP3    H136998   1.144   3.369   2.898 -0.0430 -2.3379 -0.6271
 5169TIP3    H236999   1.056   3.403   2.779 -0.3727  2.1849  0.7475
 5170TIP3   OH237000   4.902   0.521   2.949 -0.0328  0.0122  0.3158
 5170TIP3    H137001   4.858   0.459   3.008 -1.2804  0.5162 -0.0547
 5170TIP3    H237002   4.845   0.597   2.947 -0.2720 -0.1532 -1.8678
 5171TIP3   OH237003   4.919   6.726   3.308  0.2588 -0.0466 -0.0924
 5171TIP3    H137004   4.896   6.815   3.335 -1.2905 -0.4829  0.1159
 5171TIP3    H237005   5.002   6.708   3.353  0.3363  1.0923  0.2624
 5172TIP3   OH237006   4.697   6.566   4.698 -0.2801  0.2271  0.1055
 5172TIP3    H137007   4.705   6.661   4.707  0.5541  0.1269  0.4597
 5172TIP3    H237008   4.729   6.531   4.781 -0.7678 -0.3589  0.0509
 5173TIP3   OH237009   2.344   1.140   4.765  0.4506  0.1055  0.5771
 5173TIP3    H137010   2.393   1.106   4.690 -1.0052  0.5485 -0.6279
 5173TIP3    H237011   2.371   1.231   4.772 -0.2052  0.3703 -0.1359
 5174TIP3   OH237012   6.694   2.878   2.040 -0.2730 -0.2824  0.6714
 5174TIP3    H137013   6.748   2.861   2.117 -0.2317 -4.0776  0.0145
 5174TIP3    H237014   6.714   2.968   2.016  1.0102  0.4983  4.0245
 5175TIP3   OH237015   3.192   0.692  16.329  0.8116  0.5739  0.0735
 5175TIP3    H137016   3.181   0.760  16.395 -0.9363  0.8808 -0.4946
 5175TIP3    H237017   3.269   0.719  16.279  1.6963  0.7384  1.4625
 5176TIP3   OH237018   3.066   5.924  16.836 -0.6419 -0.3406 -0.4680
 5176TIP3    H137019   3.001   5.917  16.906  1.2890  0.3776  1.5440
 5176TIP3    H237020   3.044   6.005  16.790 -1.2545 -0.1842  0.0857
 5177TIP3   OH237021   4.283   1.245  14.856 -0.0182 -0.5651 -0.7943
 5177TIP3    H137022   4.296   1.175  14.792 -0.8567 -0.9398 -0.5680
 5177TIP3    H237023   4.317   1.209  14.938  0.1909 -0.4407 -0.8248
 5178TIP3   OH237024   0.114   3.590  13.480 -0.1420  0.6127  0.3396
 5178TIP3    H137025   0.080   3.517  13.428  0.0811  1.8468 -1.6425
 5178TIP3    H237026   0.071   3.580  13.565 -1.1855 -1.0206 -0.3179
 5179TIP3   OH237027   5.058   1.201   0.703 -0.2900 -0.2312 -0.2803
 5179TIP3    H137028   5.049   1.204   0.798  0.0485  0.0635 -0.2589
 5179TIP3    H237029   5.131   1.260   0.683 -0.1958 -0.4844 -0.6997
 5180TIP3   OH237030   3.215   5.017  12.010  0.7179  0.3561 -0.2726
 5180TIP3    H137031   3.296   5.009  12.059  1.3641  1.9101 -1.0100
 5180TIP3    H237032   3.153   4.961  12.056  1.6146  0.8417  1.6122
 5181TIP3   OH237033   5.699   0.650   0.552 -0.1385 -0.4416 -0.2652
 5181TIP3    H137034   5.662   0.623   0.468 -0.0343  0.0376 -0.4687
 5181TIP3    H237035   5.624   0.678   0.604 -0.3933 -2.1995  0.3738
 5182TIP3   OH237036   2.824   6.531  16.766  0.4624 -0.0456 -0.1911
 5182TIP3    H137037   2.837   6.602  16.828 -0.4288 -0.4033  0.4311
 5182TIP3    H237038   2.777   6.571  16.693  2.3616  0.6012 -1.1404
 5183TIP3   OH237039   3.287   1.688   5.119  0.3515 -0.2403  0.5538
 5183TIP3    H137040   3.282   1.685   5.214 -1.0934 -1.2489  0.4861
 5183TIP3    H237041   3.353   1.623   5.095 -1.2340 -2.0030  0.7926
 5184TIP3   OH237042   5.088   6.392  12.002 -0.6136 -0.1787 -0.2282
 5184TIP3    H137043   5.066   6.361  11.914 -0.7949 -0.0362 -0.2324
 5184TIP3    H237044   5.079   6.487  11.997 -0.4476 -0.1562 -0.1035
 5185TIP3   OH237045   3.591   0.132  16.453 -0.3097  0.2170 -0.0749
 5185TIP3    H137046   3.614   0.042  16.429 -0.1111  0.1472  0.3664
 5185TIP3    H237047   3.509   0.149  16.406 -1.2795 -0.7976  1.1841
 5186TIP3   OH237048   3.137   0.782  13.922 -0.4277  0.1219 -0.2218
 5186TIP3    H137049   3.056   0.830  13.943 -0.4512  0.3877 -0.8816
 5186TIP3    H237050   3.187   0.783  14.004 -1.2067 -0.2814  0.2684
 5187TIP3   OH237051   0.310   1.674   3.159 -0.2219  0.5673 -0.0164
 5187TIP3    H137052   0.221   1.676   3.194  0.6206 -0.6941  2.4404
 5187TIP3    H237053   0.320   1.585   3.125  0.1353  0.7018 -0.2760
 5188TIP3   OH237054   4.632   1.044  15.659  1.0734 -0.2021  0.3342
 5188TIP3    H137055   4.646   1.121  15.603 -0.0325  0.2197  0.5948
 5188TIP3    H237056   4.648   1.076  15.748 -2.7659  0.7941  0.8559
 5189TIP3   OH237057   2.222   3.102  16.233 -0.0537 -0.2957 -0.0742
 5189TIP3    H137058   2.212   3.041  16.160  0.7734 -0.1231 -0.3429
 5189TIP3    H237059   2.135   3.138  16.246 -0.6591 -1.8356  0.3603
 5190TIP3   OH237060   3.110   1.397  14.735 -0.6447 -0.2956 -0.1844
 5190TIP3    H137061   3.083   1.346  14.658 -0.0569 -0.5701 -0.2138
 5190TIP3    H237062   3.205   1.398  14.731 -0.4005 -2.8034  2.1056
 5191TIP3   OH237063   3.130   6.274   5.611  0.4463  0.0449 -0.6937
 5191TIP3    H137064   3.108   6.279   5.704  1.5299  0.0490 -0.4307
 5191TIP3    H237065   3.058   6.224   5.572  0.3958 -0.6626  0.2813
 5192TIP3   OH237066   6.055   3.044  12.593 -0.2935  0.2058  0.0549
 5192TIP3    H137067   6.089   2.959  12.621 -1.4746  0.8304  3.8945
 5192TIP3    H237068   5.985   3.022  12.531 -0.5138 -1.6344  0.8717
 5193TIP3   OH237069   3.140   4.999   4.194 -0.4970  0.5754  0.1140
 5193TIP3    H137070   3.228   4.966   4.214 -0.9021  0.0528  1.1400
 5193TIP3    H237071   3.090   4.921   4.171 -1.3296  0.4942  2.0292
 5194TIP3   OH237072   3.734   0.814  15.010 -0.1843 -0.4168  0.1261
 5194TIP3    H137073   3.725   0.843  14.919  0.0460 -0.9344 -0.0646
 5194TIP3    H237074   3.828   0.818  15.027 -0.3092  0.5557  0.6408
 5195TIP3   OH237075   1.215   6.810  10.621  0.2254  0.3577  0.4182
 5195TIP3    H137076   1.304   6.826  10.587  0.1227  0.8910  0.3945
 5195TIP3    H237077   1.203   6.715  10.612  0.8646  0.2570  0.5992
 5196TIP3   OH237078   2.078   5.177   1.549  0.5307 -0.1641  0.3702
 5196TIP3    H137079   2.055   5.172   1.456  1.9145 -1.0369  0.0610
 5196TIP3    H237080   2.173   5.172   1.551  0.5337  0.0245  1.8396
 5197TIP3   OH237081   2.327   5.076   2.621 -0.4886 -0.2014  0.2231
 5197TIP3    H137082   2.281   5.157   2.596  0.1173 -0.4960 -2.0803
 5197TIP3    H237083   2.356   5.039   2.538  1.9584 -1.2052  1.4453
 5198TIP3   OH237084   6.481   1.878  16.517  0.5924  0.8285  0.0282
 5198TIP3    H137085   6.420   1.850  16.450  1.2844 -0.9187  0.0785
 5198TIP3    H237086   6.428   1.889  16.596  0.0918  0.9802 -0.3277
 5199TIP3   OH237087   5.422   5.876  15.483  0.6231  0.5186 -0.3426
 5199TIP3    H137088   5.466   5.959  15.462 -0.3615  0.9363 -0.8139
 5199TIP3    H237089   5.480   5.834  15.547  0.2032  2.4695  1.4420
 5200TIP3   OH237090   5.229   0.575  16.426  0.4244 -0.5426 -0.2917
 5200TIP3    H137091   5.196   0.499  16.474  0.6429 -1.0302 -0.9060
 5200TIP3    H237092   5.213   0.554  16.334 -0.3626  0.5618 -0.4245
 5201TIP3   OH237093   6.747   6.544   1.096 -0.1574 -0.8179  0.3891
 5201TIP3    H137094   6.746   6.588   1.181  1.9565 -1.5994  0.8875
 5201TIP3    H237095   6.747   6.615   1.032 -0.6329 -0.1925  1.0606
 5202TIP3   OH237096   1.650   4.838   4.666  0.1706 -0.4921  0.2726
 5202TIP3    H137097   1.559   4.868   4.671  0.3735 -0.0673  3.0047
 5202TIP3    H237098   1.685   4.881   4.588 -1.6324  0.2975 -0.1601
 5203TIP3   OH237099   6.021   0.404   2.956 -0.1509  0.0966 -0.0504
 5203TIP3    H137100   5.984   0.469   2.896 -1.2197 -1.3089 -0.9730
 5203TIP3    H237101   6.008   0.442   3.043 -0.9487  1.0247 -0.5483
 5204TIP3   OH237102   4.729   5.356  12.017 -0.0156 -0.8503  0.5940
 5204TIP3    H137103   4.692   5.282  12.066 -0.0537 -0.6581  0.8558
 5204TIP3    H237104   4.658   5.385  11.960  0.1220 -1.2685  0.1957
 5205TIP3   OH237105   4.707   5.232  13.727  0.0534 -0.2339  0.4710
 5205TIP3    H137106   4.799   5.212  13.711 -0.3220 -2.2620  0.6588
 5205TIP3    H237107   4.666   5.147  13.742 -2.2099  0.4300 -1.3984
 5206TIP3   OH237108   5.671   1.138  16.090 -0.2052 -0.7228 -0.5041
 5206TIP3    H137109   5.672   1.198  16.164  1.3434 -0.5256 -0.6368
 5206TIP3    H237110   5.648   1.193  16.015  0.8322 -0.3494 -0.5649
 5207TIP3   OH237111   2.416   4.791  15.043 -0.2807  0.4586 -0.4466
 5207TIP3    H137112   2.394   4.701  15.020  0.8349  0.2363 -0.6779
 5207TIP3    H237113   2.419   4.791  15.139  0.1258  0.1550 -0.4608
 5208TIP3   OH237114   2.441   1.401   4.840  0.0825 -0.2006  0.4200
 5208TIP3    H137115   2.515   1.358   4.883  0.1753 -1.3922 -0.8436
 5208TIP3    H237116   2.479   1.442   4.762 -0.6381 -1.2532 -0.5147
 5209TIP3   OH237117   1.464   4.012  13.219  0.3768  0.3653  0.4572
 5209TIP3    H137118   1.537   3.952  13.204 -0.0110 -0.2888  1.1062
 5209TIP3    H237119   1.412   4.008  13.139  2.0319  2.3045 -0.8267
 5210TIP3   OH237120   1.349   1.054  17.208 -0.1092  0.0650 -0.2950
 5210TIP3    H137121   1.326   1.011  17.290  3.5515  2.1519  2.1067
 5210TIP3    H237122   1.404   0.990  17.162 -0.4022 -0.3116 -0.1256
 5211TIP3   OH237123   5.567   3.587  15.753  0.2738  0.4115 -0.0191
 5211TIP3    H137124   5.601   3.502  15.780 -1.9388 -0.1880  1.1252
 5211TIP3    H237125   5.618   3.610  15.676  2.2125 -1.0458  0.7312
 5212TIP3   OH237126   4.492   6.404   6.583 -0.0485  0.0337 -0.4463
 5212TIP3    H137127   4.454   6.344   6.519 -0.6269 -0.5384  0.4082
 5212TIP3    H237128   4.472   6.491   6.549 -0.6657 -0.2648 -0.8679
 5213TIP3   OH237129   6.797   3.541  11.537 -0.2860  0.1826 -0.1773
 5213TIP3    H137130   6.853   3.467  11.516 -1.7464 -0.8413 -0.6219
 5213TIP3    H237131   6.722   3.502  11.582  0.2365  1.7174  2.2030
 5214TIP3   OH237132   0.224   5.179   4.972 -0.3811 -0.2275  0.9123
 5214TIP3    H137133   0.177   5.244   5.024 -0.9392 -0.3679  0.5835
 5214TIP3    H237134   0.176   5.174   4.890  1.2836  1.0554 -0.2332
 5215TIP3   OH237135   0.396   6.436  15.795  0.0093 -0.1633  0.5684
 5215TIP3    H137136   0.370   6.344  15.806  1.9539 -0.7073  0.9677
 5215TIP3    H237137   0.483   6.432  15.757 -0.4895  1.5774 -0.9372
 5216TIP3   OH237138   5.743   2.590  10.639 -0.1525 -1.2920  0.1621
 5216TIP3    H137139   5.726   2.674  10.681  0.2609 -0.4302 -1.3074
 5216TIP3    H237140   5.825   2.559  10.679  0.5747 -0.1871 -0.4184
 5217TIP3   OH237141   6.477   2.382  12.310  0.4563 -0.2254  0.2412
 5217TIP3    H137142   6.418   2.307  12.307 -1.2586  1.1095 -0.7559
 5217TIP3    H237143   6.424   2.454  12.344  1.8230  0.7822  0.3691
 5218TIP3   OH237144   2.875   1.529  15.563  0.0556  0.9057 -0.0641
 5218TIP3    H137145   2.836   1.526  15.651 -1.8624  2.4489 -0.7790
 5218TIP3    H237146   2.817   1.476  15.509  0.7709  0.6229 -0.5692
 5219TIP3   OH237147   4.439   0.381  15.732 -0.7156  0.1330 -0.2342
 5219TIP3    H137148   4.394   0.354  15.651 -0.3194  0.6642 -0.6386
 5219TIP3    H237149   4.382   0.350  15.802 -1.5925  0.5632 -0.7365
 5220TIP3   OH237150   1.068   2.981   6.343  0.1380  0.0091 -0.0727
 5220TIP3    H137151   1.114   2.990   6.259  1.1126 -0.6202  0.3823
 5220TIP3    H237152   1.075   2.889   6.365  1.7827  0.4915  1.7379
 5221TIP3   OH237153   3.944   6.195  15.660 -0.7398 -0.1901  0.3519
 5221TIP3    H137154   3.879   6.159  15.721 -0.3928 -1.0065  0.2543
 5221TIP3    H237155   3.949   6.130  15.590 -1.1826  0.7706 -0.5845
 5222TIP3   OH237156   3.464   5.017   2.408  0.3332 -0.1195  0.2261
 5222TIP3    H137157   3.544   5.016   2.354 -0.2557  1.4747 -0.7693
 5222TIP3    H237158   3.393   5.021   2.344 -0.5875 -1.8031  1.0989
 5223TIP3   OH237159   1.154   2.988  13.654  0.2309  0.4697  0.3100
 5223TIP3    H137160   1.190   2.925  13.591  1.9882  0.6077  1.1305
 5223TIP3    H237161   1.231   3.032  13.691 -0.8071  1.0102  1.9137
 5224TIP3   OH237162   6.683   3.168  11.343  0.3924  0.1708 -0.4115
 5224TIP3    H137163   6.668   3.129  11.257  0.9253  0.6159 -0.7079
 5224TIP3    H237164   6.778   3.177  11.349  0.3147  0.7609 -0.0476
 5225TIP3   OH237165   4.216   6.006   4.597 -0.3831  0.0492 -0.0663
 5225TIP3    H137166   4.220   6.095   4.633 -1.2928 -0.2253  0.7712
 5225TIP3    H237167   4.196   5.951   4.672 -1.7536 -0.6197 -0.8830
 5226TIP3   OH237168   0.933   0.653   2.651  0.0573 -0.0554  0.0690
 5226TIP3    H137169   0.975   0.698   2.724  0.2644 -0.1585  0.0135
 5226TIP3    H237170   0.931   0.561   2.677 -0.8267  0.0547  0.4022
 5227TIP3   OH237171   6.485   5.835   5.705  0.0575 -1.2090 -0.6956
 5227TIP3    H137172   6.527   5.862   5.623 -1.1726 -0.3816 -1.0836
 5227TIP3    H237173   6.405   5.790   5.677 -2.4088  2.3468 -0.0435
 5228TIP3   OH237174   0.392   4.899   0.653 -0.4934 -0.2863  0.3842
 5228TIP3    H137175   0.404   4.986   0.616 -0.0257 -0.7160 -0.5043
 5228TIP3    H237176   0.400   4.912   0.747 -1.8780  0.8584  0.3777
 5229TIP3   OH237177   3.769   0.876   0.462 -0.2986  0.1126 -0.5778
 5229TIP3    H137178   3.810   0.790   0.451  1.5975  0.9986 -0.7042
 5229TIP3    H237179   3.783   0.920   0.379 -0.0287  1.0334 -0.0587
 5230TIP3   OH237180   3.765   6.180   0.784 -0.4626 -0.1990  0.1692
 5230TIP3    H137181   3.699   6.111   0.791 -0.5267 -0.3013 -1.1221
 5230TIP3    H237182   3.730   6.252   0.836 -0.4776 -1.0597  1.3944
 5231TIP3   OH237183   4.268   2.634   4.615 -0.1303 -0.3674  0.1778
 5231TIP3    H137184   4.318   2.712   4.588  2.9468 -1.9494  0.8661
 5231TIP3    H237185   4.290   2.623   4.707 -1.5254 -1.3941  0.4155
 5232TIP3   OH237186   4.553   0.306  14.025 -0.2598  0.5139 -0.5949
 5232TIP3    H137187   4.469   0.260  14.021 -0.1784  0.4289 -2.4071
 5232TIP3    H237188   4.602   0.272  13.950  1.3543  0.6726  0.3433
 5233TIP3   OH237189   4.456   0.229  16.815 -0.3047 -0.0316 -0.8099
 5233TIP3    H137190   4.505   0.146  16.818 -0.2709 -0.1290 -2.8457
 5233TIP3    H237191   4.489   0.274  16.738 -1.7690  0.9725 -0.8938
 5234TIP3   OH237192   3.177   0.378   4.065 -0.2357  0.3940  1.0412
 5234TIP3    H137193   3.250   0.439   4.066 -0.3277  0.5340  0.1567
 5234TIP3    H237194   3.112   0.417   4.123 -0.4176  1.2954  0.2466
 5235TIP3   OH237195   1.835   2.004   3.178  0.4780  0.1972  0.6948
 5235TIP3    H137196   1.783   1.926   3.195  0.5003  0.1665  0.6192
 5235TIP3    H237197   1.771   2.071   3.155  0.2422  0.7639  2.7454
 5236TIP3   OH237198   2.808   6.431  12.262  0.0686  0.3288  0.4294
 5236TIP3    H137199   2.901   6.417  12.279  0.3581  1.1306 -0.4392
 5236TIP3    H237200   2.766   6.351  12.294  1.4012 -1.5793 -2.2372
 5237TIP3   OH237201   5.332   5.134   1.576 -0.0619 -0.1467 -0.0900
 5237TIP3    H137202   5.333   5.065   1.642  0.8586 -0.3078 -0.2497
 5237TIP3    H237203   5.257   5.113   1.520 -0.8432 -0.0081  0.8900
 5238TIP3   OH237204   1.031   1.263  11.703  0.1269  0.0618  0.2373
 5238TIP3    H137205   1.080   1.345  11.697  1.2779 -0.6889 -1.4312
 5238TIP3    H237206   0.989   1.266  11.789  0.3667  2.2566  0.3239
 5239TIP3   OH237207   4.016   5.560   5.202  0.1911  0.1005  0.2449
 5239TIP3    H137208   4.006   5.520   5.288  1.0099  0.9837  0.7675
 5239TIP3    H237209   4.024   5.654   5.219 -2.6302  0.6633 -1.0177
 5240TIP3   OH237210   3.137   6.469   3.377  0.5132 -0.5237  0.4755
 5240TIP3    H137211   3.155   6.389   3.328  1.6582 -0.4733  0.7823
 5240TIP3    H237212   3.106   6.531   3.311 -0.8286 -1.3461  0.3112
 5241TIP3   OH237213   3.660   5.369   2.724 -0.9612  0.1292  0.2220
 5241TIP3    H137214   3.603   5.347   2.798  0.6297 -0.0614  1.4463
 5241TIP3    H237215   3.672   5.286   2.678 -0.5751 -0.1251  0.7696
 5242TIP3   OH237216   1.406   0.777   6.547 -0.2047 -0.0581  0.6502
 5242TIP3    H137217   1.501   0.769   6.551  0.0542  1.3396 -1.2613
 5242TIP3    H237218   1.377   0.697   6.504  0.0948 -0.5020  1.2665
 5243TIP3   OH237219   4.446   1.480  12.094 -0.4645  0.1887 -0.0328
 5243TIP3    H137220   4.355   1.500  12.071 -0.1778  0.7701 -0.6623
 5243TIP3    H237221   4.446   1.480  12.190 -1.1745 -0.0482 -0.0212
 5244TIP3   OH237222   1.832   5.577  16.191 -0.1682  0.5436 -0.2319
 5244TIP3    H137223   1.867   5.493  16.161  0.7462  0.9042 -0.2087
 5244TIP3    H237224   1.829   5.569  16.287  1.4649  1.1012 -0.1082
 5245TIP3   OH237225   1.522   4.954   1.066  0.1889  0.6653 -0.1204
 5245TIP3    H137226   1.497   4.968   0.975 -1.1526  0.1845  0.1492
 5245TIP3    H237227   1.577   4.875   1.065  0.5455  0.9188 -0.5581
 5246TIP3   OH237228   0.284   2.618   2.367  0.2571 -0.0480  0.7102
 5246TIP3    H137229   0.266   2.699   2.320 -1.2306 -0.5799  0.3005
 5246TIP3    H237230   0.257   2.635   2.457  0.6995  0.1639  0.8026
 5247TIP3   OH237231   1.169   4.014  15.386 -0.2366 -0.2332 -0.5644
 5247TIP3    H137232   1.165   4.105  15.416 -1.2963 -0.5335  0.2729
 5247TIP3    H237233   1.150   3.963  15.464 -1.0937 -1.1243 -1.3412
 5248TIP3   OH237234   1.540   3.940  12.879 -0.2130  0.1121 -0.1367
 5248TIP3    H137235   1.483   3.874  12.920  0.4276  0.3076  1.1220
 5248TIP3    H237236   1.625   3.896  12.872 -0.0519  0.4475 -0.2712
 5249TIP3   OH237237   5.202   1.431   0.674 -0.1817 -0.2134  0.9917
 5249TIP3    H137238   5.202   1.479   0.757 -1.2364  1.7594 -0.0631
 5249TIP3    H237239   5.157   1.490   0.613 -0.0650 -1.9020 -0.8123
 5250TIP3   OH237240   0.106   1.620   2.927  0.3194  0.7699 -0.1671
 5250TIP3    H137241   0.156   1.539   2.925 -3.2927 -1.7058  0.6447
 5250TIP3    H237242   0.094   1.638   3.021 -0.1954  1.3885 -0.3465
 5251TIP3   OH237243   1.574   2.178   0.920 -0.3406  0.2225  0.0496
 5251TIP3    H137244   1.590   2.174   1.014 -0.5791  0.2461  0.0928
 5251TIP3    H237245   1.495   2.232   0.911 -1.3051 -1.1472 -0.0493
 5252TIP3   OH237246   0.189   4.700   0.595  0.1072  0.1459 -0.1372
 5252TIP3    H137247   0.171   4.782   0.548  0.5326 -0.5427 -1.5621
 5252TIP3    H237248   0.267   4.718   0.646 -0.0447  0.7553 -0.1134
 5253TIP3   OH237249   4.013   1.557   4.986  0.6872 -0.2835  0.1387
 5253TIP3    H137250   4.033   1.471   4.949 -0.0698 -0.3516 -0.1247
 5253TIP3    H237251   3.972   1.605   4.914  2.8513  0.9914 -0.3221
 5254TIP3   OH237252   5.694   6.207  15.315 -0.3370 -0.5100  0.1762
 5254TIP3    H137253   5.627   6.195  15.383  1.0047 -0.4580  1.5454
 5254TIP3    H237254   5.739   6.288  15.340  1.2109 -1.3308  0.1397
 5255TIP3   OH237255   2.577   0.444  15.924  0.2249  0.8279 -0.4940
 5255TIP3    H137256   2.585   0.533  15.956  0.2165  0.0535  1.8379
 5255TIP3    H237257   2.542   0.453  15.835 -0.4052  3.0964 -0.0682
 5256TIP3   OH237258   6.348   5.276   5.042 -0.2393  0.5741 -0.4070
 5256TIP3    H137259   6.330   5.368   5.061 -0.6910 -0.0485  2.7391
 5256TIP3    H237260   6.272   5.229   5.076  0.8385 -1.0677 -0.1387
 5257TIP3   OH237261   5.357   3.492   3.598 -0.2169 -0.4657 -0.1418
 5257TIP3    H137262   5.414   3.549   3.546 -1.5413 -0.8157 -2.0545
 5257TIP3    H237263   5.344   3.540   3.680  2.8382 -0.4219  0.4219
 5258TIP3   OH237264   2.927   6.807   0.569 -0.3101 -0.1210  0.0828
 5258TIP3    H137265   2.937   6.886   0.516  0.0092 -0.5072 -0.4430
 5258TIP3    H237266   2.844   6.769   0.539  0.0175 -0.4984 -0.3667
 5259TIP3   OH237267   0.806   1.190   2.993  0.1143 -0.4185 -0.1917
 5259TIP3    H137268   0.834   1.267   2.943 -0.7946  1.6840  2.3351
 5259TIP3    H237269   0.875   1.125   2.978  1.6033  1.3355 -1.3562
 5260TIP3   OH237270   2.668   5.124  13.674 -0.0079  1.1569  0.0669
 5260TIP3    H137271   2.615   5.112  13.595  0.0610  0.2095  0.1557
 5260TIP3    H237272   2.618   5.185  13.728 -0.4855  1.1145 -0.3241
 5261TIP3   OH237273   3.615   3.124   0.117  0.8221  0.3219 -0.1647
 5261TIP3    H137274   3.657   3.207   0.139  2.3186 -0.7561  1.3173
 5261TIP3    H237275   3.688   3.068   0.089 -0.2889 -0.2188 -2.1724
 5262TIP3   OH237276   1.936   5.763  13.053  0.1438 -0.1238  0.3138
 5262TIP3    H137277   1.926   5.791  12.962 -0.5370  0.6644  0.6128
 5262TIP3    H237278   1.847   5.742  13.082  0.6534 -3.2174 -0.0319
 5263TIP3   OH237279   2.499   2.468   0.133 -0.7044 -0.5752  0.5460
 5263TIP3    H137280   2.525   2.432   0.218 -2.7743 -0.1636  1.4088
 5263TIP3    H237281   2.483   2.561   0.150  2.4047  0.4220 -1.1607
 5264TIP3   OH237282   6.714   0.252  11.134 -0.5636 -0.0715  0.2171
 5264TIP3    H137283   6.653   0.325  11.142 -2.0244 -1.3969  2.5155
 5264TIP3    H237284   6.686   0.205  11.055 -2.3607 -0.4419  1.0279
 5265TIP3   OH237285   5.709   0.545  12.028 -0.1600  0.6998  0.3057
 5265TIP3    H137286   5.746   0.633  12.039  0.9019  0.2185  0.7364
 5265TIP3    H237287   5.657   0.551  11.948  0.5125  1.5276 -0.0906
 5266TIP3   OH237288   2.473   0.267  16.096  0.0424 -0.3276  0.0911
 5266TIP3    H137289   2.421   0.194  16.063 -0.1596  0.1989 -0.7762
 5266TIP3    H237290   2.514   0.305  16.018 -0.2647  0.8065  0.4687
 5267TIP3   OH237291   2.351   4.971   2.902  0.3780  0.1974 -0.0929
 5267TIP3    H137292   2.356   5.036   2.972 -0.8633  0.0803  0.1253
 5267TIP3    H237293   2.397   5.011   2.828  0.5872  0.8614  0.3926
 5268TIP3   OH237294   2.569   2.353  11.766  0.4156 -0.2199 -0.0993
 5268TIP3    H137295   2.597   2.307  11.687  1.2020  0.3403 -0.1587
 5268TIP3    H237296   2.641   2.414  11.785 -1.4938  2.6814 -1.3407
 5269TIP3   OH237297   5.211   1.157   5.627 -0.5520 -0.6552 -0.2439
 5269TIP3    H137298   5.235   1.229   5.685  1.5665  0.4623 -2.3440
 5269TIP3    H237299   5.124   1.181   5.594 -1.6090 -1.1110  2.0373
 5270TIP3   OH237300   4.439   4.085  16.635 -0.0164  0.0736 -0.1832
 5270TIP3    H137301   4.476   4.039  16.560  1.1882  1.5785 -0.5727
 5270TIP3    H237302   4.446   4.178  16.612 -0.2510  0.5467  1.5029
 5271TIP3   OH237303   1.065   1.910  12.742  0.0886  0.2269 -0.6111
 5271TIP3    H137304   1.086   1.845  12.675  2.1754  0.3626 -0.1424
 5271TIP3    H237305   1.071   1.863  12.824  0.1902  0.6818 -0.3543
 5272TIP3   OH237306   5.363   6.378   5.321  0.2844 -0.5314 -0.0569
 5272TIP3    H137307   5.430   6.369   5.253 -0.9354 -0.9158 -1.2595
 5272TIP3    H237308   5.375   6.302   5.377 -0.7525 -2.0640 -1.7844
 5273TIP3   OH237309   3.081   1.183  13.660 -0.3071  0.2439 -0.3649
 5273TIP3    H137310   3.145   1.113  13.671  0.0435  0.4743 -0.8697
 5273TIP3    H237311   3.026   1.178  13.738 -0.5387 -0.8526 -0.5769
 5274TIP3   OH237312   2.437   4.993   5.208  0.0625  0.0740 -0.2791
 5274TIP3    H137313   2.496   5.042   5.265  1.7063  0.3255 -2.1221
 5274TIP3    H237314   2.354   5.041   5.211 -0.2616 -0.4703  2.6136
 5275TIP3   OH237315   4.540   1.965   2.424 -0.5441 -0.0878  0.0667
 5275TIP3    H137316   4.559   2.053   2.458  0.8775 -0.0197 -0.8108
 5275TIP3    H237317   4.446   1.964   2.410 -0.6347  1.1667  0.4570
 5276TIP3   OH237318   6.475   6.390   5.635 -0.1352 -0.5146 -0.0474
 5276TIP3    H137319   6.474   6.383   5.730 -0.3188  0.2743  0.0141
 5276TIP3    H237320   6.566   6.410   5.613 -0.6920  3.0328  0.2867
 5277TIP3   OH237321   0.435   2.769  12.867  0.0776 -0.1801  0.0161
 5277TIP3    H137322   0.529   2.782  12.879  0.3408  0.0136 -1.9836
 5277TIP3    H237323   0.394   2.830  12.928  1.2699  1.7637 -1.0331
 5278TIP3   OH237324   0.793   3.104   6.627  0.0856  0.7407  0.1342
 5278TIP3    H137325   0.762   3.156   6.701  0.0318  0.0151  0.6301
 5278TIP3    H237326   0.872   3.150   6.598 -0.1622  1.3034  0.3316
 5279TIP3   OH237327   2.195   6.350   4.067  0.1099 -0.0773 -0.6816
 5279TIP3    H137328   2.114   6.300   4.065 -0.3948  0.7538 -1.3739
 5279TIP3    H237329   2.187   6.405   4.145  0.2038 -0.3057 -0.5090
 5280TIP3   OH237330   4.819   3.489  12.494 -0.0961  0.6738 -1.0493
 5280TIP3    H137331   4.844   3.399  12.476 -1.8691  0.1064 -0.8535
 5280TIP3    H237332   4.883   3.519  12.559  0.4065 -0.4918 -0.9834
 5281TIP3   OH237333   4.739   4.255   5.694  0.3171 -0.9899  0.0394
 5281TIP3    H137334   4.677   4.205   5.747  0.7058 -1.0781  0.4216
 5281TIP3    H237335   4.792   4.188   5.651  1.4044 -0.9383  1.2177
 5282TIP3   OH237336   2.982   5.505  16.685  0.4487 -0.4646 -1.1291
 5282TIP3    H137337   3.013   5.503  16.776 -1.1279 -1.0155 -0.5639
 5282TIP3    H237338   3.044   5.563  16.640  0.1925  1.3798  0.7234
 5283TIP3   OH237339   1.872   4.808   2.207  0.6050  0.2123  0.2045
 5283TIP3    H137340   1.863   4.875   2.139 -2.4012 -1.4711 -1.2773
 5283TIP3    H237341   1.823   4.843   2.281  0.8171  0.5398  0.1916
 5284TIP3   OH237342   2.302   1.955  16.528  0.8373  0.1650 -0.3418
 5284TIP3    H137343   2.312   2.025  16.592 -0.9485  0.3057 -0.1653
 5284TIP3    H237344   2.275   1.879  16.580 -1.2604  0.4457 -0.9217
 5285TIP3   OH237345   6.232   2.964  16.651  0.3076 -0.2717  0.5462
 5285TIP3    H137346   6.308   2.974  16.594 -0.4662  3.1679 -0.1109
 5285TIP3    H237347   6.184   2.890  16.615  1.8680 -0.6761 -0.7925
 5286TIP3   OH237348   3.035   0.416   5.402  0.4696  0.3037  0.2216
 5286TIP3    H137349   3.041   0.322   5.418  0.8954  0.1245 -0.8954
 5286TIP3    H237350   3.119   0.451   5.431  0.9753  0.0766 -0.9001
 5287TIP3   OH237351   2.522   3.199  15.902  0.4090 -0.2109 -0.4201
 5287TIP3    H137352   2.615   3.221  15.904  0.0782  1.2698  1.5553
 5287TIP3    H237353   2.519   3.104  15.916  1.6030 -0.1792  0.1180
 5288TIP3   OH237354   0.607   0.327   6.855  0.2999  0.6465  0.0149
 5288TIP3    H137355   0.556   0.406   6.841  0.6327  1.3069  2.1950
 5288TIP3    H237356   0.683   0.356   6.907  1.1180 -0.8717 -0.2731
 5289TIP3   OH237357   4.549   6.248   5.129 -0.0141  0.0457 -0.3501
 5289TIP3    H137358   4.473   6.193   5.150 -0.2270  0.9475  1.3815
 5289TIP3    H237359   4.624   6.189   5.136 -0.5166 -0.9405 -2.4093
 5290TIP3   OH237360   2.734   5.656  16.670  0.5488 -0.0511 -0.2573
 5290TIP3    H137361   2.814   5.607  16.687  0.3447  0.5109  2.8938
 5290TIP3    H237362   2.756   5.747  16.693  0.1126  0.9530 -3.3077
 5291TIP3   OH237363   1.376   2.147  13.050  0.0170 -0.6010  0.3791
 5291TIP3    H137364   1.297   2.185  13.090  0.3441 -0.0507  0.5077
 5291TIP3    H237365   1.371   2.054  13.072 -0.5502 -0.5580  0.4647
 5292TIP3   OH237366   3.430   5.728  15.094  0.7488  0.1659  0.2293
 5292TIP3    H137367   3.386   5.772  15.167 -0.3283 -1.0579  0.3570
 5292TIP3    H237368   3.414   5.785  15.018 -0.3823  0.1655  0.4417
 5293TIP3   OH237369   5.180   6.409   0.453  0.2869 -0.5192 -0.4515
 5293TIP3    H137370   5.096   6.363   0.451 -0.0607  0.0703  0.2009
 5293TIP3    H237371   5.160   6.498   0.423  0.5334 -0.1763  0.3546
 5294TIP3   OH237372   4.066   2.292  12.584 -0.3766  0.0496  0.3133
 5294TIP3    H137373   4.160   2.292  12.601 -0.1541 -1.9657 -0.5939
 5294TIP3    H237374   4.058   2.272  12.490 -1.6902 -0.4218  0.4949
 5295TIP3   OH237375   1.353   0.991  12.584 -0.0333 -0.1598 -0.1565
 5295TIP3    H137376   1.283   0.979  12.648  0.5099 -0.7274  0.3520
 5295TIP3    H237377   1.361   1.085  12.573 -0.5732 -0.0808  0.1159
 5296TIP3   OH237378   3.886   2.939  16.986 -0.3364  0.5309 -0.3294
 5296TIP3    H137379   3.889   3.012  16.924  0.5686  0.3779 -0.4804
 5296TIP3    H237380   3.853   2.979  17.067  2.0432  1.6161  0.1944
 5297TIP3   OH237381   4.973   1.840   5.207 -0.3956  0.4070  0.4088
 5297TIP3    H137382   4.997   1.887   5.287  1.7501  0.9735 -0.4849
 5297TIP3    H237383   4.966   1.908   5.140 -1.0882 -0.1729 -0.1316
 5298TIP3   OH237384   3.366   6.147   1.385  0.3738  0.3506 -0.3979
 5298TIP3    H137385   3.343   6.205   1.458  0.9197  0.5364 -0.3689
 5298TIP3    H237386   3.285   6.102   1.364 -0.0367  1.0573 -0.3558
 5299TIP3   OH237387   1.341   1.481   5.346 -0.0311 -0.1885  0.3220
 5299TIP3    H137388   1.258   1.436   5.333 -0.3096 -1.1346  4.1919
 5299TIP3    H237389   1.337   1.514   5.436  4.2381 -1.5076  1.2458
 5300TIP3   OH237390   4.511   0.926  13.329 -0.0198  0.6298 -0.8425
 5300TIP3    H137391   4.549   1.014  13.322 -0.6602  0.9717 -0.1680
 5300TIP3    H237392   4.433   0.938  13.383 -0.3063 -0.3007 -1.0394
 5301TIP3   OH237393   0.150   6.585   4.263  0.5402 -1.0412 -0.3587
 5301TIP3    H137394   0.090   6.547   4.198 -1.1633 -1.2007  1.2047
 5301TIP3    H237395   0.115   6.673   4.279  0.1865 -1.4194  1.1485
 5302TIP3   OH237396   1.880   4.885  13.190  0.0334  0.3139  0.2892
 5302TIP3    H137397   1.785   4.896  13.196  0.1863  1.2814  1.1498
 5302TIP3    H237398   1.905   4.943  13.118 -0.2648 -1.6629 -1.5089
 5303TIP3   OH237399   4.826   6.152  12.408  0.9838  0.0137  0.1587
 5303TIP3    H137400   4.816   6.243  12.437  2.7170  0.2317  0.1662
 5303TIP3    H237401   4.844   6.103  12.488 -0.6997 -0.5061  0.2618
 5304TIP3   OH237402   6.697   6.649   4.441  0.2702  0.3048  0.2072
 5304TIP3    H137403   6.631   6.715   4.421 -0.1537 -0.3624 -0.6747
 5304TIP3    H237404   6.714   6.659   4.534 -1.3015  0.3014  0.5165
 5305TIP3   OH237405   6.588   0.912  17.051 -0.0889  0.0445  0.3573
 5305TIP3    H137406   6.641   0.890  17.128  0.4579 -0.7910 -0.2432
 5305TIP3    H237407   6.633   0.986  17.012  0.4429 -0.4268  0.0579
 5306TIP3   OH237408   2.873   0.683  11.406 -0.4405  0.2723  0.2631
 5306TIP3    H137409   2.896   0.633  11.485  0.4835 -1.1971 -0.8851
 5306TIP3    H237410   2.802   0.741  11.434 -0.7067 -0.8045  1.9676
 5307TIP3   OH237411   5.074   4.817   0.274 -0.4294  0.0129  0.2587
 5307TIP3    H137412   5.100   4.746   0.216  0.0858 -0.6786  1.3198
 5307TIP3    H237413   5.155   4.865   0.291 -0.3666 -0.4223  1.2446
 5308TIP3   OH237414   5.623   1.891  15.164  0.0420  0.1147  0.1541
 5308TIP3    H137415   5.544   1.941  15.185 -1.0872 -0.4317 -2.3455
 5308TIP3    H237416   5.637   1.835  15.240 -1.1078  1.2662  1.2637
 5309TIP3   OH237417   3.469   2.807   3.944 -0.4684  0.2560 -0.1281
 5309TIP3    H137418   3.402   2.744   3.971 -1.0485  1.0632  0.3764
 5309TIP3    H237419   3.517   2.763   3.875 -0.4274 -1.0033  0.6656
 5310TIP3   OH237420   2.683   4.672  11.924 -0.2577  0.5876 -0.2014
 5310TIP3    H137421   2.756   4.707  11.873  0.6450  1.0694  1.3578
 5310TIP3    H237422   2.626   4.748  11.941  0.0907  0.7007  0.5273
 5311TIP3   OH237423   0.808   4.515   3.447 -0.3213 -0.1005  0.3637
 5311TIP3    H137424   0.733   4.568   3.473 -1.0391 -0.9362  0.0536
 5311TIP3    H237425   0.877   4.539   3.508 -0.9336  0.4632  0.8460
 5312TIP3   OH237426   3.947   6.204   5.290 -0.1521 -0.0229  0.4067
 5312TIP3    H137427   3.919   6.113   5.283 -0.1259 -0.0532  0.6846
 5312TIP3    H237428   3.894   6.250   5.225 -0.1340 -0.2428  0.2342
 5313TIP3   OH237429   5.170   6.357   5.105  0.2734  0.0137 -0.0432
 5313TIP3    H137430   5.176   6.268   5.071 -1.1498 -0.6601  1.3337
 5313TIP3    H237431   5.226   6.358   5.182  0.4034  0.3487 -0.1404
 5314TIP3   OH237432   3.191   1.961  16.124  0.1871 -0.3254  0.0916
 5314TIP3    H137433   3.139   2.024  16.174  0.5815  0.6071 -0.6286
 5314TIP3    H237434   3.172   1.877  16.165 -0.7348  0.1870  0.7818
 5315TIP3   OH237435   4.201   6.789   4.809 -0.1273  0.1895  0.7512
 5315TIP3    H137436   4.290   6.821   4.794 -0.5169  0.6834 -0.6156
 5315TIP3    H237437   4.147   6.869   4.812 -0.5355 -0.1014  1.6160
 5316TIP3   OH237438   6.349   4.008  13.320 -0.3921 -0.1478  0.1455
 5316TIP3    H137439   6.378   3.923  13.287 -0.6203 -0.4661  0.7522
 5316TIP3    H237440   6.411   4.071  13.282 -0.8972 -0.4405 -1.2204
 5317TIP3   OH237441   0.526   5.926  14.337  0.0088 -0.3117  0.0892
 5317TIP3    H137442   0.571   6.010  14.330 -0.6281  0.0948  0.6396
 5317TIP3    H237443   0.434   5.947  14.319 -0.2883 -0.7236  1.0559
 5318TIP3   OH237444   4.797   3.216  16.802  0.2649 -0.6816 -0.7374
 5318TIP3    H137445   4.836   3.241  16.718 -0.8674  2.3860 -0.4666
 5318TIP3    H237446   4.741   3.141  16.781  0.6553 -0.5108 -2.5354
 5319TIP3   OH237447   0.458   5.082  15.686 -0.0203  0.8088 -0.4689
 5319TIP3    H137448   0.433   5.142  15.616  1.9179 -1.5332 -3.4390
 5319TIP3    H237449   0.507   5.013  15.642  1.2087 -0.9645  3.2468
 5320TIP3   OH237450   1.647   3.088  16.172  0.0897  0.4437  0.4603
 5320TIP3    H137451   1.725   3.127  16.211 -0.3192  0.9882  0.7641
 5320TIP3    H237452   1.640   3.001  16.211  1.1229 -0.0282 -0.3635
 5321TIP3   OH237453   4.914   4.741  16.972  0.2627 -0.2184 -0.2168
 5321TIP3    H137454   4.947   4.652  16.959 -0.9750 -1.1211  2.3289
 5321TIP3    H237455   4.824   4.738  16.938  0.2248  0.0814 -0.1408
 5322TIP3   OH237456   5.807   3.490  12.283  0.1454  1.0370  0.0109
 5322TIP3    H137457   5.772   3.558  12.226  1.1262  1.4796 -0.0909
 5322TIP3    H237458   5.896   3.475  12.250  0.2345  0.3152  0.5629
 5323TIP3   OH237459   4.127   2.252  13.152  0.0942  0.1292  0.2248
 5323TIP3    H137460   4.188   2.243  13.079 -0.1711 -0.7310  0.0964
 5323TIP3    H237461   4.144   2.176  13.207 -0.1307  0.4501  0.7444
 5324TIP3   OH237462   1.560   6.660   1.151 -0.6684  0.5054 -0.2375
 5324TIP3    H137463   1.632   6.662   1.213  0.2299  0.4301 -1.2487
 5324TIP3    H237464   1.522   6.748   1.155 -0.3983  0.6067  0.1442
 5325TIP3   OH237465   4.605   6.253   0.595  0.0067  0.2709  0.6765
 5325TIP3    H137466   4.637   6.335   0.560  1.6581 -0.3505  0.6412
 5325TIP3    H237467   4.565   6.209   0.521 -0.0076  0.6268  0.4719
 5326TIP3   OH237468   5.933   4.672  13.533  0.0244 -0.3630  0.4504
 5326TIP3    H137469   5.991   4.596  13.543  2.6648  1.5519  0.8227
 5326TIP3    H237470   5.979   4.727  13.470 -1.3125  1.3676  0.9451
 5327TIP3   OH237471   4.915   2.338   4.341 -0.1828  0.1600 -0.0625
 5327TIP3    H137472   4.890   2.248   4.319 -2.4621  0.4476  1.0715
 5327TIP3    H237473   4.884   2.390   4.267 -0.4220  0.1928  0.0587
 5328TIP3   OH237474   2.342   4.397   1.020 -0.5463 -0.6988 -0.4428
 5328TIP3    H137475   2.339   4.353   1.105  0.2910 -0.3154 -0.2139
 5328TIP3    H237476   2.388   4.479   1.036  0.4243 -1.0276 -1.4546
 5329TIP3   OH237477   3.283   0.311   3.372 -0.0272 -0.3478 -0.2476
 5329TIP3    H137478   3.336   0.271   3.303  1.1213  0.2118  0.2807
 5329TIP3    H237479   3.193   0.310   3.337  0.0520 -2.7116 -0.5164
 5330TIP3   OH237480   3.111   1.231   1.474  0.8213 -0.7163 -0.5918
 5330TIP3    H137481   3.201   1.259   1.487  0.8435 -1.6592  1.7935
 5330TIP3    H237482   3.117   1.138   1.449  0.5359 -0.3430 -2.1549
 5331TIP3   OH237483   0.390   3.882  13.572  0.2016 -0.0090  0.1472
 5331TIP3    H137484   0.375   3.799  13.617  0.1610 -0.4451 -0.6528
 5331TIP3    H237485   0.327   3.942  13.611  0.4873 -0.2435  0.9959
 5332TIP3   OH237486   6.394   4.461  12.000  0.0175 -0.0996  0.6192
 5332TIP3    H137487   6.449   4.536  12.025  0.1528  0.3623 -0.9490
 5332TIP3    H237488   6.382   4.471  11.905  1.1482 -2.8062  0.1205
 5333TIP3   OH237489   1.909   2.196   2.157 -0.5328  0.1054  0.7709
 5333TIP3    H137490   1.899   2.106   2.127 -0.1629  0.1236  0.5927
 5333TIP3    H237491   1.843   2.245   2.107  0.2563  0.1827 -0.2327
 5334TIP3   OH237492   3.107   6.198   5.266 -0.5829  0.3217  0.3533
 5334TIP3    H137493   3.096   6.149   5.185 -0.5178  0.3407  0.3325
 5334TIP3    H237494   3.027   6.182   5.316 -0.4057 -0.1016  0.5060
 5335TIP3   OH237495   1.443   2.239   3.864  0.1639 -0.5180  0.0967
 5335TIP3    H137496   1.530   2.267   3.892  0.0035  0.0429  0.0566
 5335TIP3    H237497   1.384   2.301   3.905 -0.1203 -0.0597 -0.9615
 5336TIP3   OH237498   1.341   5.794   6.573  0.1845 -0.9250  0.0147
 5336TIP3    H137499   1.252   5.776   6.603 -0.1278 -0.0356 -0.3416
 5336TIP3    H237500   1.353   5.735   6.498 -1.1638  0.8894 -1.7227
 5337TIP3   OH237501   0.758   3.370  12.566 -0.9444 -0.0885 -0.6805
 5337TIP3    H137502   0.749   3.401  12.657 -0.5134 -0.9913 -0.3195
 5337TIP3    H237503   0.739   3.447  12.513 -2.0257  0.2572  0.1603
 5338TIP3   OH237504   1.051   6.574  11.995  0.3717  0.2198 -0.1283
 5338TIP3    H137505   1.144   6.553  11.993  0.9435  0.8224  5.0410
 5338TIP3    H237506   1.045   6.647  12.057 -3.6090 -0.8822  1.0714
 5339TIP3   OH237507   1.118   6.579  13.481 -0.4103  0.2760 -0.0257
 5339TIP3    H137508   1.093   6.567  13.390  2.1536  0.0736 -0.7890
 5339TIP3    H237509   1.187   6.514  13.496 -0.1546  0.8881  1.7876
 5340TIP3   OH237510   6.382   2.678  15.177  0.1666 -0.5292 -0.0546
 5340TIP3    H137511   6.447   2.747  15.186 -0.7467  0.1699  1.4920
 5340TIP3    H237512   6.336   2.676  15.261 -2.3122 -0.4955 -1.3123
 5341TIP3   OH237513   5.563   4.900   5.179 -0.1191  0.6668  0.3798
 5341TIP3    H137514   5.640   4.862   5.222  1.0232  0.4508 -1.6984
 5341TIP3    H237515   5.570   4.994   5.197  0.0988  0.5328  1.0019
 5342TIP3   OH237516   5.813   1.395  17.128 -0.0734 -0.1006 -0.0115
 5342TIP3    H137517   5.760   1.321  17.098 -1.3385  0.9381 -0.4254
 5342TIP3    H237518   5.868   1.359  17.198 -0.5361 -1.4565 -0.3210
 5343TIP3   OH237519   3.282   2.091  14.063  0.3542  0.5099 -0.1928
 5343TIP3    H137520   3.292   2.137  14.146  1.1378  0.5737 -0.3140
 5343TIP3    H237521   3.371   2.083  14.029 -0.0184  1.1742 -1.3991
 5344TIP3   OH237522   2.013   6.034   3.674 -0.3101 -0.5835 -0.4324
 5344TIP3    H137523   1.923   6.058   3.652 -0.1341  1.5902  0.8777
 5344TIP3    H237524   2.013   6.023   3.769  0.9004  0.0136 -0.3383
 5345TIP3   OH237525   4.151   1.142   0.122  0.4925 -1.3273 -0.2220
 5345TIP3    H137526   4.196   1.113   0.202  0.1738 -0.1433  0.4119
 5345TIP3    H237527   4.070   1.091   0.121  0.2765 -1.0097  0.4754
 5346TIP3   OH237528   0.973   2.752   4.492  0.0967 -0.0598 -0.1507
 5346TIP3    H137529   1.047   2.777   4.547  1.2508  1.4294 -2.2446
 5346TIP3    H237530   0.896   2.777   4.542  1.1053  1.6102  0.6409
 5347TIP3   OH237531   4.557   3.407  14.960 -0.0411  0.1830 -0.2420
 5347TIP3    H137532   4.619   3.474  14.930 -0.2872  1.2163  1.4560
 5347TIP3    H237533   4.572   3.333  14.901 -0.3710  1.9921 -2.7759
 5348TIP3   OH237534   1.241   2.138   2.481 -0.3241 -0.7809 -0.4216
 5348TIP3    H137535   1.221   2.112   2.570  0.7334  1.2007  0.4565
 5348TIP3    H237536   1.178   2.091   2.427 -2.0528 -0.7752  1.5047
 5349TIP3   OH237537   0.414   1.797   0.350  0.1724  0.3514 -0.1021
 5349TIP3    H137538   0.353   1.772   0.280  0.6171  0.7793 -0.6557
 5349TIP3    H237539   0.381   1.881   0.381 -1.9314 -1.2681  2.4709
 5350TIP3   OH237540   4.732   6.482  16.644 -0.3691 -0.1058  0.4772
 5350TIP3    H137541   4.651   6.496  16.693 -0.8589 -1.2703  0.0364
 5350TIP3    H237542   4.750   6.567  16.602 -0.3736  0.6796  1.9874
 5351TIP3   OH237543   6.631   6.238   6.121 -0.5495 -0.9813 -0.0663
 5351TIP3    H137544   6.593   6.271   6.203  1.0231 -0.7232  0.5873
 5351TIP3    H237545   6.716   6.281   6.115  0.0007 -2.1563 -1.0671
 5352TIP3   OH237546   6.540   4.377   1.186  0.4865  0.0716  0.0754
 5352TIP3    H137547   6.626   4.337   1.200 -0.7118 -2.3262  1.4759
 5352TIP3    H237548   6.511   4.402   1.274 -0.4421  0.4105 -0.3120
 5353TIP3   OH237549   3.418   1.213   1.834 -0.1385 -0.1053  0.3944
 5353TIP3    H137550   3.352   1.272   1.871  0.9053  2.0251 -0.9536
 5353TIP3    H237551   3.367   1.146   1.789 -1.3692  0.2978  1.1195
 5354TIP3   OH237552   3.400   0.226   3.589  0.1379 -0.1704 -0.4103
 5354TIP3    H137553   3.355   0.276   3.658 -0.0568 -0.8175 -0.0558
 5354TIP3    H237554   3.351   0.245   3.509  0.9936  1.4168 -0.5863
 5355TIP3   OH237555   2.490   5.742   4.110 -0.7140 -0.0374  0.5997
 5355TIP3    H137556   2.581   5.769   4.116 -0.5033 -0.2307 -1.1432
 5355TIP3    H237557   2.450   5.805   4.050 -1.2633 -1.0331 -0.1132
 5356TIP3   OH237558   1.755   2.382  12.414  0.0543 -0.1713 -0.3260
 5356TIP3    H137559   1.798   2.446  12.357 -1.4663  0.9137 -0.3020
 5356TIP3    H237560   1.773   2.413  12.503  0.1370 -0.3405 -0.2825
 5357TIP3   OH237561   2.964   6.454   3.595  0.4691  0.1967 -0.6950
 5357TIP3    H137562   2.983   6.367   3.631 -0.9788  0.2750  0.3792
 5357TIP3    H237563   3.007   6.455   3.509 -1.3215 -2.4288 -1.7466
 5358TIP3   OH237564   0.123   0.852  14.592 -0.3724  0.3089  0.5959
 5358TIP3    H137565   0.030   0.858  14.613 -1.1708  1.6122 -2.7010
 5358TIP3    H237566   0.138   0.923  14.530  2.6945 -0.3228  0.4771
 5359TIP3   OH237567   5.367   2.036  11.018 -0.1079 -0.0079  0.3182
 5359TIP3    H137568   5.316   1.959  10.993 -0.1464  0.7399 -2.2478
 5359TIP3    H237569   5.454   2.021  10.980 -0.2690  1.3852 -0.7153
 5360TIP3   OH237570   3.777   4.405  12.986 -0.2543  0.7393  0.1726
 5360TIP3    H137571   3.737   4.469  13.045 -1.2721 -1.9108  2.6002
 5360TIP3    H237572   3.822   4.344  13.044 -0.8169 -1.7300 -1.8052
 5361TIP3   OH237573   6.392   1.525  12.195  0.2201  0.4593  0.0720
 5361TIP3    H137574   6.475   1.495  12.233  0.0200  0.0886  0.2199
 5361TIP3    H237575   6.401   1.620  12.190  1.2265  0.3288 -1.2502
 5362TIP3   OH237576   3.978   0.986   6.499 -0.1195 -0.3165 -0.1473
 5362TIP3    H137577   4.048   0.933   6.462 -0.2417 -0.1132 -0.6688
 5362TIP3    H237578   3.899   0.933   6.489 -0.4519  0.4439 -1.7709
 5363TIP3   OH237579   5.525   1.343  12.728  0.1240  0.4429  0.0980
 5363TIP3    H137580   5.486   1.422  12.691 -1.0215 -0.1955 -0.1248
 5363TIP3    H237581   5.495   1.343  12.819 -1.1251 -0.4542 -0.2755
 5364TIP3   OH237582   4.939   6.141  15.184  0.5942  0.0793 -0.1420
 5364TIP3    H137583   4.928   6.090  15.104 -0.7269  0.5693 -0.2923
 5364TIP3    H237584   5.023   6.185  15.173  1.3748 -1.3848 -0.3744
 5365TIP3   OH237585   0.519   3.872   4.149  0.0231 -0.7167  0.2011
 5365TIP3    H137586   0.583   3.803   4.168 -1.5559 -1.8598  1.7025
 5365TIP3    H237587   0.511   3.920   4.232 -2.3122 -1.7307  0.6485
 5366TIP3   OH237588   2.843   2.341   0.601 -0.3910 -0.0916 -0.1717
 5366TIP3    H137589   2.754   2.310   0.618 -0.3027 -1.4852 -1.9667
 5366TIP3    H237590   2.888   2.266   0.562  1.7652  0.3958  1.1844
 5367TIP3   OH237591   0.863   6.797   2.883  0.4116 -0.2183  0.6186
 5367TIP3    H137592   0.774   6.761   2.887 -0.9542  3.0010  3.4134
 5367TIP3    H237593   0.900   6.781   2.970  2.1235 -0.2932 -0.0695
 5368TIP3   OH237594   6.215   1.401   3.942  0.2375  0.1207 -0.8497
 5368TIP3    H137595   6.209   1.419   3.849 -2.9389  2.9528 -0.2828
 5368TIP3    H237596   6.125   1.380   3.969  0.6912  1.1803  1.8640
 5369TIP3   OH237597   5.397   4.856  13.735  0.0131 -0.2891 -0.3120
 5369TIP3    H137598   5.461   4.808  13.787  0.2273 -0.1673 -0.4629
 5369TIP3    H237599   5.343   4.902  13.799 -0.0101 -0.4979 -0.1801
 5370TIP3   OH237600   6.502   6.672   5.299 -0.2764  0.3144 -0.7967
 5370TIP3    H137601   6.449   6.668   5.219 -1.6634 -1.6686  0.1227
 5370TIP3    H237602   6.537   6.583   5.308 -0.0009  0.5589  0.6804
 5371TIP3   OH237603   3.690   2.450  12.176  0.1845  0.4540 -0.0462
 5371TIP3    H137604   3.607   2.428  12.134  0.7033 -1.7534 -0.0270
 5371TIP3    H237605   3.692   2.395  12.255  0.4386  2.5404  1.4780
 5372TIP3   OH237606   6.427   5.249   0.279  0.1939 -0.1514  0.4617
 5372TIP3    H137607   6.490   5.295   0.335 -2.4636  3.5987  0.7716
 5372TIP3    H237608   6.461   5.260   0.190  0.8336  0.2585  0.7518
 5373TIP3   OH237609   3.377   2.095  13.667  0.2873  0.2192 -0.5810
 5373TIP3    H137610   3.315   2.159  13.633  0.8009 -0.5140 -3.1678
 5373TIP3    H237611   3.445   2.090  13.600  1.3752 -1.4651  0.5684
 5374TIP3   OH237612   1.676   6.093   5.065 -0.8895  0.4331 -0.4314
 5374TIP3    H137613   1.677   6.007   5.108  2.1407  1.0608  1.0638
 5374TIP3    H237614   1.633   6.078   4.981 -0.2000 -2.6445 -0.3428
 5375TIP3   OH237615   5.683   6.144   1.120  0.1655  0.5001 -0.2672
 5375TIP3    H137616   5.694   6.142   1.215 -0.7823  1.6010 -0.1040
 5375TIP3    H237617   5.663   6.054   1.096 -0.1210  0.3056  0.6546
 5376TIP3   OH237618   1.320   2.428   3.055 -0.1160  0.5361 -0.1325
 5376TIP3    H137619   1.241   2.481   3.053  0.4235  1.3458 -0.8647
 5376TIP3    H237620   1.391   2.491   3.070  0.3556 -0.2291  0.9892
 5377TIP3   OH237621   1.207   2.539  13.162  0.3262 -0.2467  0.3611
 5377TIP3    H137622   1.223   2.624  13.120  0.9585  0.0944  1.2501
 5377TIP3    H237623   1.170   2.484  13.093 -1.3571  1.1391  0.0987
 5378TIP3   OH237624   4.757   4.911  15.304 -0.1124  0.1497 -0.0100
 5378TIP3    H137625   4.788   5.000  15.285  0.3916 -0.0375 -0.0895
 5378TIP3    H237626   4.662   4.918  15.302 -0.0822  0.4546 -1.1579
 5379TIP3   OH237627   1.823   3.012   5.602 -0.3149  0.0002 -0.1458
 5379TIP3    H137628   1.845   2.944   5.538 -0.1417 -0.2102  0.1334
 5379TIP3    H237629   1.907   3.047   5.631 -0.3831 -0.0622  0.1307
 5380TIP3   OH237630   3.281   4.546   3.858  0.0359  0.1760  0.0231
 5380TIP3    H137631   3.343   4.607   3.897 -0.5729  0.8321 -0.0117
 5380TIP3    H237632   3.260   4.485   3.929  1.8884 -1.0139 -0.3964
 5381TIP3   OH237633   1.208   2.035  12.519  0.1333 -0.1884  0.0890
 5381TIP3    H137634   1.149   2.110  12.508  1.4086  0.7687 -0.4594
 5381TIP3    H237635   1.203   2.013  12.612 -0.1585  0.6688  0.2817
 5382TIP3   OH237636   2.728   6.353  14.979 -0.2651 -0.0713 -0.4278
 5382TIP3    H137637   2.654   6.361  15.039 -0.1375  1.1535 -0.4007
 5382TIP3    H237638   2.798   6.315  15.032 -0.4907 -0.0267 -0.0949
 5383TIP3   OH237639   1.038   1.978   4.547 -0.9689 -0.2224 -0.1789
 5383TIP3    H137640   1.113   1.963   4.489  0.9137  0.6189  1.8851
 5383TIP3    H237641   1.069   1.952   4.634 -3.6058 -1.2086  0.5497
 5384TIP3   OH237642   2.295   6.018   3.951  0.6847  0.2331  0.0701
 5384TIP3    H137643   2.305   5.972   3.867  2.2166  1.3937 -0.4189
 5384TIP3    H237644   2.200   6.020   3.965  0.4633 -1.1353 -0.9667
 5385TIP3   OH237645   3.836   3.401  17.218 -0.0991 -0.4291 -0.3778
 5385TIP3    H137646   3.887   3.479  17.199  0.8554 -0.7968  0.5701
 5385TIP3    H237647   3.842   3.348  17.139 -0.6628  0.3842 -0.9881
 5386TIP3   OH237648   0.003   1.107  11.466 -0.3053  0.1423  0.0035
 5386TIP3    H137649  -0.068   1.077  11.409 -0.6648 -0.3517  0.6946
 5386TIP3    H237650   0.081   1.061  11.434 -0.4638  0.0229 -0.2147
 5387TIP3   OH237651   4.845   6.762  11.375 -0.3946  0.2118 -0.6732
 5387TIP3    H137652   4.917   6.710  11.340  0.4996 -0.0783  1.4865
 5387TIP3    H237653   4.770   6.738  11.320  0.1890 -2.6356 -0.3778
 5388TIP3   OH237654   5.493   5.856   2.640  0.0000 -0.3941 -0.0978
 5388TIP3    H137655   5.409   5.902   2.646 -1.1216 -2.4280  1.2874
 5388TIP3    H237656   5.556   5.915   2.680 -0.3934  1.8314 -2.5002
 5389TIP3   OH237657   4.575   0.732   3.428  0.5029 -0.3641  0.0050
 5389TIP3    H137658   4.578   0.786   3.506 -0.6743  0.5063 -0.5161
 5389TIP3    H237659   4.555   0.644   3.460 -1.1811  0.2095  0.6062
 5390TIP3   OH237660   2.291   1.756  12.721  1.0478  0.0416 -0.3741
 5390TIP3    H137661   2.365   1.815  12.708  0.3462  0.8450 -0.7911
 5390TIP3    H237662   2.305   1.719  12.809  1.4873  0.8290 -0.1050
 5391TIP3   OH237663   3.530   6.624   2.473 -0.4052 -0.4140 -1.1322
 5391TIP3    H137664   3.581   6.687   2.524  0.4074 -0.7263 -1.5510
 5391TIP3    H237665   3.451   6.672   2.448  0.2879  0.5038 -1.6016
 5392TIP3   OH237666   1.019   0.439   2.346 -0.0628  0.5480  0.5714
 5392TIP3    H137667   0.960   0.391   2.288  1.0441  0.9851 -0.9895
 5392TIP3    H237668   1.031   0.381   2.422 -0.7753 -0.4829 -0.0732
 5393TIP3   OH237669   2.978   4.634   4.975  0.3574  0.0489 -0.3421
 5393TIP3    H137670   3.037   4.587   5.033 -3.2193 -3.1774  1.1673
 5393TIP3    H237671   3.000   4.603   4.887  1.1447 -0.8143  0.1410
 5394TIP3   OH237672   6.416   0.380  13.998 -0.4781  0.0550  0.1940
 5394TIP3    H137673   6.487   0.328  13.961  0.1782  1.4913 -0.6230
 5394TIP3    H237674   6.371   0.319  14.056  2.4739 -0.4995  2.1689
 5395TIP3   OH237675   0.393   0.601  16.696 -0.1692 -0.0450 -0.8285
 5395TIP3    H137676   0.430   0.689  16.705 -2.2394  0.8575 -0.2660
 5395TIP3    H237677   0.334   0.593  16.772 -1.7394 -0.9773 -2.0936
 5396TIP3   OH237678   4.722   5.075   4.121  0.0729  0.1108 -0.0059
 5396TIP3    H137679   4.776   4.997   4.109 -0.1879 -0.1994  0.7602
 5396TIP3    H237680   4.721   5.118   4.036 -0.1030 -0.9339 -0.5339
 5397TIP3   OH237681   6.743   3.727  15.935  0.3632 -0.1126  0.1800
 5397TIP3    H137682   6.666   3.732  15.877  2.0482 -3.7041 -2.7991
 5397TIP3    H237683   6.807   3.786  15.894  0.2625  0.4403  0.8042
 5398TIP3   OH237684   2.607   4.180   0.324  0.3208 -0.3852 -0.2526
 5398TIP3    H137685   2.661   4.260   0.320 -0.0886 -0.1383 -1.7030
 5398TIP3    H237686   2.636   4.130   0.248  0.6259 -1.6829  0.6932
 5399TIP3   OH237687   0.156   5.466   5.773  0.1534  0.1515  0.8521
 5399TIP3    H137688   0.143   5.560   5.760  0.7758  0.1331  0.0138
 5399TIP3    H237689   0.248   5.452   5.754 -0.4407 -1.0149 -1.5068
 5400TIP3   OH237690   6.540   5.311  15.698 -0.1782 -0.3025 -0.2071
 5400TIP3    H137691   6.586   5.319  15.614  1.4757 -0.0330  0.6736
 5400TIP3    H237692   6.562   5.391  15.745 -3.0230  0.6911 -0.3554
 5401TIP3   OH237693   4.947   1.229   2.467 -0.3772  0.1335  0.5342
 5401TIP3    H137694   5.019   1.292   2.466 -0.1435 -0.0319 -2.4886
 5401TIP3    H237695   4.934   1.210   2.560  0.9639  2.9661  1.4463
 5402TIP3   OH237696   1.005   1.016   2.170  0.8768  0.0186 -0.1095
 5402TIP3    H137697   0.958   1.084   2.122  1.6168  0.4990 -0.1662
 5402TIP3    H237698   0.951   0.938   2.160 -1.6924  1.2270  2.5903
 5403TIP3   OH237699   1.618   3.134  13.220 -0.4483  0.5387  0.0911
 5403TIP3    H137700   1.619   3.050  13.265  2.8273 -1.2604 -2.8292
 5403TIP3    H237701   1.592   3.113  13.130  0.4174  2.6088 -0.7112
 5404TIP3   OH237702   3.659   4.183   1.408  0.2070 -0.4185  0.3454
 5404TIP3    H137703   3.724   4.136   1.460 -1.7131 -0.7122  2.6391
 5404TIP3    H237704   3.579   4.132   1.417 -1.2601  1.7781  0.6029
 5405TIP3   OH237705   2.448   4.287  11.750 -0.0392 -0.2240 -0.2283
 5405TIP3    H137706   2.500   4.287  11.830 -0.3882 -0.3728 -0.0015
 5405TIP3    H237707   2.503   4.243  11.685  0.0574 -0.5138  0.0514
 5406TIP3   OH237708   6.655   5.359   0.403  0.1167  0.2620  0.5085
 5406TIP3    H137709   6.613   5.435   0.443 -1.8666 -0.1812 -0.5731
 5406TIP3    H237710   6.746   5.387   0.388  0.0696  1.5323  2.2886
 5407TIP3   OH237711   3.245   4.165  11.862  0.7933 -0.0027 -0.2838
 5407TIP3    H137712   3.334   4.137  11.840  0.5727 -0.1197 -1.0670
 5407TIP3    H237713   3.208   4.193  11.778  0.6589  1.6560  0.2978
 5408TIP3   OH237714   2.606   2.398   0.384 -0.0556  0.7405 -0.6453
 5408TIP3    H137715   2.625   2.357   0.468 -0.5821 -0.0627 -0.9058
 5408TIP3    H237716   2.677   2.460   0.370 -0.3506  1.4294  0.7363
 5409TIP3   OH237717   1.437   3.684  17.191  0.1274  0.1550  0.1621
 5409TIP3    H137718   1.532   3.678  17.179  0.3291 -0.9210  1.9015
 5409TIP3    H237719   1.400   3.626  17.125  0.7568 -0.2426  0.1506
 5410TIP3   OH237720   6.815   2.740   1.464  0.5923  0.3054  0.4785
 5410TIP3    H137721   6.907   2.766   1.469  0.4911  0.7671  0.0678
 5410TIP3    H237722   6.770   2.818   1.431 -0.1582  0.5647  2.0159
 5411TIP3   OH237723   2.429   0.714  16.278  0.0717  0.4058 -0.0851
 5411TIP3    H137724   2.511   0.762  16.263 -0.9104  2.2252  0.0368
 5411TIP3    H237725   2.362   0.766  16.232 -0.9461 -1.4150 -0.7945
 5412TIP3   OH237726   4.501   1.986  16.672 -0.0428 -0.1845  0.1084
 5412TIP3    H137727   4.554   1.995  16.751 -1.0515  0.4300  0.7399
 5412TIP3    H237728   4.418   1.951  16.702  0.2403 -1.9221 -0.9799
 5413TIP3   OH237729   2.029   0.794  13.883  0.3121 -0.6389 -0.3708
 5413TIP3    H137730   2.098   0.740  13.923  1.0240  0.9650  0.6525
 5413TIP3    H237731   2.043   0.783  13.788  2.7371  0.5117 -0.2122
 5414TIP3   OH237732   4.535   3.930   6.442  0.0146  0.0040  0.4494
 5414TIP3    H137733   4.479   3.992   6.488  0.4456  0.8057 -0.0899
 5414TIP3    H237734   4.483   3.850   6.438 -0.3290  0.1370  1.6502
 5415TIP3   OH237735   6.373   2.711  12.176 -0.0745  0.6339 -0.3026
 5415TIP3    H137736   6.431   2.784  12.196 -3.0321  2.7965  1.1801
 5415TIP3    H237737   6.350   2.674  12.261  0.4296 -1.3147 -0.9613
 5416TIP3   OH237738   5.745   5.210  12.163 -0.5681 -0.4552  0.4382
 5416TIP3    H137739   5.819   5.238  12.110 -1.5790  0.8429 -0.3501
 5416TIP3    H237740   5.769   5.233  12.253 -0.5725  1.2686  0.0250
 5417TIP3   OH237741   0.071   6.720   0.647 -0.1693  0.0903 -0.0906
 5417TIP3    H137742   0.104   6.663   0.577 -0.0295 -1.0882  0.9163
 5417TIP3    H237743   0.132   6.794   0.648  0.7934 -0.6835 -0.1403
 5418TIP3   OH237744   6.649   3.698  16.458 -0.4839 -0.4070 -0.4979
 5418TIP3    H137745   6.657   3.793  16.447  0.6771 -0.3832  0.3872
 5418TIP3    H237746   6.646   3.664  16.369  0.5703  0.3498 -0.8383
 5419TIP3   OH237747   3.986   4.378  11.777 -0.2448 -0.3706 -0.1017
 5419TIP3    H137748   3.985   4.418  11.691  1.3745  0.6897  0.3301
 5419TIP3    H237749   4.039   4.437  11.831  1.3883 -2.5439  0.8287
 5420TIP3   OH237750   1.685   1.866  13.758 -0.2603  0.4102 -0.2441
 5420TIP3    H137751   1.590   1.879  13.756 -0.4915  0.0257  2.9487
 5420TIP3    H237752   1.721   1.951  13.732 -1.5262  1.0360 -0.0530
 5421TIP3   OH237753   4.317   2.048  12.239 -0.0778 -0.2715 -0.2139
 5421TIP3    H137754   4.232   2.080  12.271 -0.7020  1.6677 -3.3080
 5421TIP3    H237755   4.380   2.112  12.271  0.1500 -1.2394  1.3680
 5422TIP3   OH237756   5.454   3.407  11.670 -0.0648 -0.1646  0.1497
 5422TIP3    H137757   5.478   3.498  11.688  1.1166 -0.5975  0.8518
 5422TIP3    H237758   5.442   3.367  11.756 -0.7976 -0.6253 -0.1578
 5423TIP3   OH237759   1.271   5.530   1.229 -0.3615  0.4847 -0.4868
 5423TIP3    H137760   1.331   5.456   1.226  0.8727  1.4090  0.0615
 5423TIP3    H237761   1.277   5.570   1.142 -0.0954  0.6262 -0.4063
 5424TIP3   OH237762   1.421   6.021   6.348  0.1940  0.5416  0.0394
 5424TIP3    H137763   1.379   6.067   6.421 -1.5006 -1.0700  0.1638
 5424TIP3    H237764   1.463   5.945   6.388  2.6986  1.6892 -0.2076
 5425TIP3   OH237765   5.582   2.219  11.570  0.4201 -0.3305 -0.2849
 5425TIP3    H137766   5.654   2.235  11.509 -2.5677  3.3747 -3.4871
 5425TIP3    H237767   5.593   2.286  11.638  0.5791 -0.4755 -0.1682
 5426TIP3   OH237768   5.235   5.468  13.063  0.5534  0.2459 -0.3866
 5426TIP3    H137769   5.193   5.477  12.977 -1.8171  0.3508  0.6905
 5426TIP3    H237770   5.208   5.547  13.110  1.7973  0.1778  0.4809
 5427TIP3   OH237771   3.169   2.069   4.430 -0.0085 -0.2797  0.5379
 5427TIP3    H137772   3.136   2.158   4.439  1.4494  0.3702 -0.1719
 5427TIP3    H237773   3.231   2.059   4.502 -0.3509 -0.8148  0.7617
 5428TIP3   OH237774   4.741   6.198  16.103 -1.0804 -0.6065  0.5660
 5428TIP3    H137775   4.777   6.228  16.020  0.2149 -0.4200  1.1749
 5428TIP3    H237776   4.717   6.278  16.150  0.5519 -0.5514  1.3824
 5429TIP3   OH237777   2.412   6.426  16.011  0.2491  0.0509  0.3963
 5429TIP3    H137778   2.488   6.382  16.050  0.7398 -1.1391 -1.7570
 5429TIP3    H237779   2.342   6.412  16.074  0.8004 -2.4792  0.5414
 5430TIP3   OH237780   3.126   1.599  11.162  0.0872  0.4445  0.2296
 5430TIP3    H137781   3.089   1.516  11.192 -0.4548 -0.3398 -2.3536
 5430TIP3    H237782   3.219   1.593  11.185 -0.0657 -0.6024  0.6316
 5431TIP3   OH237783   1.415   2.638  14.835  0.7149  0.0920  0.6700
 5431TIP3    H137784   1.435   2.574  14.767  0.6378  1.2643 -0.5003
 5431TIP3    H237785   1.336   2.604  14.877  0.6301 -0.5490  0.0188
 5432TIP3   OH237786   3.047   5.858  15.777  0.3913  0.3142 -0.5092
 5432TIP3    H137787   3.118   5.804  15.743  0.2760 -0.4301  0.4020
 5432TIP3    H237788   3.086   5.908  15.849 -0.5528 -2.0179  1.7461
 5433TIP3   OH237789   3.226   2.264  15.863 -0.5952  0.2554 -0.5497
 5433TIP3    H137790   3.167   2.200  15.824 -1.1555  0.1142  0.4720
 5433TIP3    H237791   3.301   2.213  15.892 -0.7005  0.1713 -0.4193
 5434TIP3   OH237792   2.877   4.339  10.725 -0.4619  0.0993  0.0357
 5434TIP3    H137793   2.792   4.378  10.708 -0.8769 -1.1203 -0.8041
 5434TIP3    H237794   2.925   4.349  10.643 -0.1292 -0.0650  0.2073
 5435TIP3   OH237795   3.294   5.633   0.562 -0.3867 -0.0815 -0.0970
 5435TIP3    H137796   3.349   5.558   0.586 -0.5510 -0.4136 -0.7303
 5435TIP3    H237797   3.288   5.628   0.467  1.5392  2.0921 -0.4175
 5436TIP3   OH237798   2.803   2.649   3.228  0.3541 -0.0069 -0.2541
 5436TIP3    H137799   2.872   2.615   3.171 -1.2028 -0.0444 -2.2261
 5436TIP3    H237800   2.755   2.711   3.173 -1.8783 -0.8188  0.6647
 5437TIP3   OH237801   6.288   0.608   2.212 -0.4424 -0.5283 -0.1362
 5437TIP3    H137802   6.212   0.555   2.188 -1.6433  0.5765  1.0809
 5437TIP3    H237803   6.317   0.572   2.295 -1.5001  0.8810  0.8952
 5438TIP3   OH237804   4.982   2.355  12.377  0.3786  0.1121 -0.2643
 5438TIP3    H137805   4.983   2.451  12.371  0.5617  0.0371 -1.5624
 5438TIP3    H237806   5.067   2.332  12.413 -0.0262  0.4786  0.9834
 5439TIP3   OH237807   5.366   4.202  15.152 -0.1148 -0.5291 -0.5501
 5439TIP3    H137808   5.347   4.151  15.231  0.4294 -0.7831 -0.5845
 5439TIP3    H237809   5.441   4.257  15.176  0.0225 -0.5728 -0.8741
 5440TIP3   OH237810   6.243   1.535  16.111  0.1216  0.2901  0.6531
 5440TIP3    H137811   6.331   1.510  16.139 -0.1400  0.3767  1.5822
 5440TIP3    H237812   6.185   1.489  16.172 -0.4804  0.2790  0.0815
 5441TIP3   OH237813   0.443   1.605   4.434  0.0516 -0.4218 -0.2272
 5441TIP3    H137814   0.403   1.566   4.356 -0.4122  0.5152 -0.4798
 5441TIP3    H237815   0.436   1.699   4.419  0.1544 -0.2327  0.8553
 5442TIP3   OH237816   1.003   1.652   4.341  0.1137 -0.0810  0.1848
 5442TIP3    H137817   1.087   1.655   4.296  0.8361  1.7959  1.5082
 5442TIP3    H237818   1.021   1.602   4.421  0.0748  0.6088  0.6316
 5443TIP3   OH237819   2.083   0.088  17.171 -0.3687 -0.2723  0.2743
 5443TIP3    H137820   2.169   0.077  17.211  0.0473  0.3093 -0.4193
 5443TIP3    H237821   2.072   0.010  17.116  0.4287  0.3925 -0.8660
 5444TIP3   OH237822   4.185   0.957   0.359  0.0908  0.1256 -0.0370
 5444TIP3    H137823   4.262   0.959   0.415  0.4536  0.6040 -0.5346
 5444TIP3    H237824   4.200   0.882   0.300  0.4060  0.4938 -0.4358
 5445TIP3   OH237825   6.274   2.764  15.431 -0.2077  0.1266  0.5644
 5445TIP3    H137826   6.307   2.854  15.433 -2.3244  1.0205 -1.2937
 5445TIP3    H237827   6.188   2.768  15.473 -1.8545 -0.2200 -2.4746
 5446TIP3   OH237828   4.621   5.770   1.234  0.4837 -0.0433  0.0953
 5446TIP3    H137829   4.550   5.766   1.169  1.8488 -3.5889 -1.4653
 5446TIP3    H237830   4.598   5.701   1.296  1.5771  0.1426  0.7127
 5447TIP3   OH237831   5.168   6.287   1.169 -0.0813 -0.5245 -0.6119
 5447TIP3    H137832   5.226   6.267   1.242 -0.7550 -0.1841  0.0227
 5447TIP3    H237833   5.219   6.345   1.113  0.3805 -0.6528 -0.3292
 5448TIP3   OH237834   2.160   0.898   5.880  0.1136 -0.2488 -0.1049
 5448TIP3    H137835   2.087   0.863   5.828  0.6209 -1.3212 -0.1260
 5448TIP3    H237836   2.149   0.993   5.876 -1.2086 -0.3931 -0.2023
 5449TIP3   OH237837   6.767   1.461   2.732  0.1468 -0.2575 -0.0497
 5449TIP3    H137838   6.838   1.482   2.793 -1.3052  0.0062  1.6545
 5449TIP3    H237839   6.789   1.374   2.699  1.3399 -0.1173  0.3323
 5450TIP3   OH237840   4.818   3.495   4.335 -0.4076  0.0968  0.0609
 5450TIP3    H137841   4.826   3.403   4.359  0.2245 -0.9240 -3.4623
 5450TIP3    H237842   4.894   3.537   4.374  1.0191 -1.5700 -0.7781
 5451TIP3   OH237843   6.283   4.119  12.711 -0.0803 -0.2520 -0.3630
 5451TIP3    H137844   6.281   4.075  12.796  0.1616 -0.8744 -0.6775
 5451TIP3    H237845   6.335   4.061  12.655  0.4400  0.5457 -0.7173
 5452TIP3   OH237846   6.490   0.689   3.488 -0.3048 -0.0296 -0.2560
 5452TIP3    H137847   6.579   0.656   3.498 -0.4851 -0.3336  0.3892
 5452TIP3    H237848   6.464   0.662   3.400  0.1712 -0.1038 -0.3763
 5453TIP3   OH237849   4.361   2.277   3.755  0.1767 -0.2817 -0.0324
 5453TIP3    H137850   4.373   2.182   3.758  0.9096 -0.1828  1.6567
 5453TIP3    H237851   4.442   2.310   3.718 -0.0660 -0.3046 -0.5910
 5454TIP3   OH237852   6.300   6.645   4.416 -0.1130 -0.0380  0.3386
 5454TIP3    H137853   6.342   6.571   4.458  1.0660 -0.4309 -1.4106
 5454TIP3    H237854   6.207   6.630   4.428  0.1235 -1.5278  0.4814
 5455TIP3   OH237855   0.991   3.633   1.447 -0.1069  1.5285  0.0310
 5455TIP3    H137856   0.927   3.701   1.468 -0.6795  1.3944 -1.1865
 5455TIP3    H237857   0.981   3.569   1.517 -1.1365  1.6293 -0.0068
 5456TIP3   OH237858   4.687   1.782   3.303  0.0537 -0.0347 -0.2503
 5456TIP3    H137859   4.763   1.796   3.360 -0.1223 -2.2472  0.6288
 5456TIP3    H237860   4.621   1.842   3.336  0.5469 -0.0061  0.7167
 5457TIP3   OH237861   4.377   1.194  11.263 -0.2826  0.1134 -0.3686
 5457TIP3    H137862   4.331   1.278  11.250 -2.4907 -1.0356 -0.5655
 5457TIP3    H237863   4.450   1.216  11.320 -1.3272  2.0470  0.3439
 5458TIP3   OH237864   6.815   0.079  13.408 -0.2565  0.4002  0.7525
 5458TIP3    H137865   6.908   0.085  13.430 -0.5342  1.3733  1.7456
 5458TIP3    H237866   6.797   0.157  13.356 -0.5214  0.2133  0.5596
 5459TIP3   OH237867   1.729   1.160   2.231 -0.8118  0.1749 -0.0110
 5459TIP3    H137868   1.792   1.228   2.254  1.1123 -1.1941 -0.9675
 5459TIP3    H237869   1.661   1.205   2.181 -0.0839  1.5206  0.1791
 5460TIP3   OH237870   4.902   1.735   3.751 -0.9731 -0.0460  0.1156
 5460TIP3    H137871   4.989   1.696   3.758 -0.6174  0.6585 -0.2512
 5460TIP3    H237872   4.915   1.828   3.770 -1.4076  0.3138 -1.2138
 5461TIP3   OH237873   1.714   0.996  11.516  0.5946  0.3324  0.1208
 5461TIP3    H137874   1.795   1.025  11.475 -0.1555  0.7058 -1.1372
 5461TIP3    H237875   1.646   1.054  11.480 -0.3705 -0.5537  0.4500
 5462TIP3   OH237876   5.623   1.917  13.594 -0.3235 -0.2710  0.2291
 5462TIP3    H137877   5.646   1.824  13.594 -0.1652 -0.2370  1.0095
 5462TIP3    H237878   5.691   1.958  13.540  1.0677 -0.2787  1.9078
 5463TIP3   OH237879   6.740   5.484  13.211  0.4392  0.0520  0.3892
 5463TIP3    H137880   6.791   5.565  13.216 -1.5465  1.3663  0.3796
 5463TIP3    H237881   6.673   5.502  13.145 -1.1597 -0.9156  1.6803
 5464TIP3   OH237882   5.759   1.244  12.820 -0.6239  0.7002 -0.3516
 5464TIP3    H137883   5.675   1.240  12.773 -0.4706 -0.3329 -0.5598
 5464TIP3    H237884   5.740   1.205  12.905 -0.3115  0.2738 -0.4736
 5465TIP3   OH237885   4.198   0.268  15.137  0.2174 -0.1467  0.0752
 5465TIP3    H137886   4.181   0.220  15.218  0.2144  2.7268  1.9418
 5465TIP3    H237887   4.125   0.329  15.129  1.8227  1.8746 -0.2055
 5466TIP3   OH237888   3.747   5.658   1.206  0.0483 -0.1198 -0.1682
 5466TIP3    H137889   3.703   5.611   1.276  1.2130 -3.1737 -1.3059
 5466TIP3    H237890   3.776   5.740   1.247 -1.9871 -0.3704  1.9889
 5467TIP3   OH237891   1.206   0.541  17.026  0.0603  0.1165 -0.0065
 5467TIP3    H137892   1.293   0.530  16.987 -0.9496 -0.1165 -2.3469
 5467TIP3    H237893   1.178   0.452  17.047 -0.0891  0.0786 -0.3643
 5468TIP3   OH237894   5.114   4.558   5.212  0.1616  0.4350 -0.5866
 5468TIP3    H137895   5.129   4.644   5.250 -0.7125  1.0083 -1.4754
 5468TIP3    H237896   5.186   4.504   5.244 -0.4513  0.8994  1.7481
 5469TIP3   OH237897   4.388   5.852  11.042  0.1800  0.0121 -0.0802
 5469TIP3    H137898   4.409   5.944  11.055  2.8943 -0.6001  0.5028
 5469TIP3    H237899   4.404   5.837  10.949  2.1309 -0.3311  0.2619
 5470TIP3   OH237900   2.695   4.316  12.899 -0.0585  0.0896  0.2879
 5470TIP3    H137901   2.772   4.365  12.870 -0.5063  0.0414 -1.0618
 5470TIP3    H237902   2.633   4.384  12.925 -0.6202  0.2909 -1.4304
 5471TIP3   OH237903   0.594   1.539   1.831 -0.0819  0.4203  0.5244
 5471TIP3    H137904   0.687   1.549   1.812  0.1460 -1.0001  0.7854
 5471TIP3    H237905   0.583   1.446   1.849 -1.9939  0.0715 -1.8473
 5472TIP3   OH237906   3.975   5.829  14.335  0.2136 -0.0628 -0.0753
 5472TIP3    H137907   3.910   5.890  14.300 -0.4921 -0.7641 -0.0209
 5472TIP3    H237908   4.059   5.863  14.304 -0.0582  1.4655  0.7313
 5473TIP3   OH237909   4.697   3.783   3.559 -0.2461 -0.5179 -0.1434
 5473TIP3    H137910   4.607   3.797   3.530 -0.3205 -0.4440  0.1224
 5473TIP3    H237911   4.709   3.688   3.554 -0.9282 -0.7368  1.5251
 5474TIP3   OH237912   5.637   5.164  15.018 -0.1492  0.1930  0.2769
 5474TIP3    H137913   5.691   5.179  14.940 -0.8319  2.0370  0.0933
 5474TIP3    H237914   5.616   5.071  15.016  2.1330 -0.3664 -0.2041
 5475TIP3   OH237915   4.305   2.446   2.836  0.1867 -0.1055 -0.9502
 5475TIP3    H137916   4.217   2.429   2.871  0.4566 -0.3192 -0.3601
 5475TIP3    H237917   4.290   2.470   2.745 -0.7746  2.6532 -0.1756
 5476TIP3   OH237918   5.965   4.106  15.265  0.3106 -0.2814 -0.0857
 5476TIP3    H137919   6.051   4.148  15.273  0.5369 -0.6824 -0.4078
 5476TIP3    H237920   5.902   4.177  15.281  0.7044 -0.1604  0.9927
 5477TIP3   OH237921   2.985   5.890   5.365 -0.8518 -0.1220 -0.4642
 5477TIP3    H137922   2.918   5.949   5.332 -1.4989  0.0004  1.0287
 5477TIP3    H237923   3.022   5.934   5.441  0.1478 -0.6843 -0.6076
 5478TIP3   OH237924   2.179   1.296   2.445  0.0164 -0.1335  0.0340
 5478TIP3    H137925   2.190   1.236   2.372  0.1751  0.4575 -0.4367
 5478TIP3    H237926   2.266   1.299   2.487 -0.5859 -2.1398  1.5949
 5479TIP3   OH237927   6.346   0.535   3.274  0.3713  0.3411  0.4405
 5479TIP3    H137928   6.365   0.441   3.273  1.8696  0.4604  3.7922
 5479TIP3    H237929   6.387   0.569   3.195  2.5676 -1.4468  0.7087
 5480TIP3   OH237930   0.583   4.056  14.973 -0.4758 -0.1349 -0.1776
 5480TIP3    H137931   0.525   3.991  15.013  0.5242 -1.3220 -0.5924
 5480TIP3    H237932   0.616   4.013  14.894  1.5568  0.1822  0.4422
 5481TIP3   OH237933   3.647   1.186   3.139 -0.0887  0.1651  0.3967
 5481TIP3    H137934   3.681   1.097   3.125  1.1195  0.6447  0.1167
 5481TIP3    H237935   3.633   1.220   3.051 -1.0492  0.0784  0.5100
 5482TIP3   OH237936   1.912   6.484   2.395 -0.0048 -0.3275  0.0862
 5482TIP3    H137937   1.887   6.559   2.341  1.7743 -1.1230 -1.9869
 5482TIP3    H237938   1.905   6.409   2.337 -0.4521 -1.6186  1.7320
 5483TIP3   OH237939   1.561   2.181   5.459  0.4385  0.0810  0.1334
 5483TIP3    H137940   1.566   2.087   5.478 -1.6497 -0.1672 -0.3090
 5483TIP3    H237941   1.579   2.186   5.365  1.3265  0.2338  0.3027
 5484TIP3   OH237942   3.304   4.257  13.189  0.0204 -0.2217  0.2555
 5484TIP3    H137943   3.336   4.169  13.210 -0.9480 -0.7824 -0.5388
 5484TIP3    H237944   3.355   4.315  13.246 -0.5303 -1.4207  2.0670
 5485TIP3   OH237945   4.519   3.407   3.056 -0.0399 -0.0119 -0.0236
 5485TIP3    H137946   4.597   3.373   3.100  0.3387  1.4590  0.5041
 5485TIP3    H237947   4.548   3.428   2.968  0.1491  0.4309  0.1389
 5486TIP3   OH237948   1.679   3.671   2.018 -0.1662  0.0571 -0.5813
 5486TIP3    H137949   1.686   3.630   2.104 -0.9727  0.5806 -0.2485
 5486TIP3    H237950   1.612   3.739   2.030 -1.3692 -0.8173 -1.9647
 5487TIP3   OH237951   5.083   1.437  13.260 -0.1779  0.0531  0.4669
 5487TIP3    H137952   5.005   1.460  13.309  0.4615  0.5318  1.2912
 5487TIP3    H237953   5.114   1.519  13.223 -0.9325 -0.3735 -1.2162
 5488TIP3   OH237954   3.957   0.168   5.402 -0.2400  0.3477 -0.4500
 5488TIP3    H137955   4.025   0.236   5.408 -1.2223  1.4420 -1.3449
 5488TIP3    H237956   3.995   0.093   5.449  1.6651  0.8539 -1.0676
 5489TIP3   OH237957   3.643   0.319   2.240 -0.1648  0.3877  0.7242
 5489TIP3    H137958   3.618   0.340   2.150  0.6035 -1.4379  0.0380
 5489TIP3    H237959   3.606   0.391   2.292 -0.2442  1.7338 -1.0722
 5490TIP3   OH237960   4.574   1.683  15.754 -0.5130 -0.2876  0.6032
 5490TIP3    H137961   4.652   1.629  15.740 -0.2684  0.1450  0.2741
 5490TIP3    H237962   4.520   1.633  15.815  0.6833  0.0700  1.9994
 5491TIP3   OH237963   3.935   1.542  12.998 -0.0136  0.3164  0.6134
 5491TIP3    H137964   3.964   1.552  13.088  2.0412 -0.6711  0.1153
 5491TIP3    H237965   3.968   1.620  12.953  0.3343  0.0392  0.3908
 5492TIP3   OH237966   1.817   0.358   1.861 -0.4048  0.3123  0.4392
 5492TIP3    H137967   1.898   0.309   1.848 -0.6176  0.2384 -0.7534
 5492TIP3    H237968   1.847   0.448   1.876 -0.0894  0.7670 -2.3123
 5493TIP3   OH237969   1.483   5.065  14.184 -0.2904  0.2617  0.0901
 5493TIP3    H137970   1.393   5.048  14.158 -0.1435  0.6466 -0.6825
 5493TIP3    H237971   1.476   5.109  14.269 -0.7955 -0.4412  0.4189
 5494TIP3   OH237972   5.347   0.446   4.569 -0.2206  0.1209  0.4522
 5494TIP3    H137973   5.354   0.451   4.474  1.2573 -2.1145  0.3709
 5494TIP3    H237974   5.413   0.507   4.601  0.0918  0.0006  0.0386
 5495TIP3   OH237975   6.145   0.133   1.601 -0.2711  0.2228 -0.0765
 5495TIP3    H137976   6.171   0.181   1.522 -0.1404  1.0017  0.4246
 5495TIP3    H237977   6.220   0.078   1.622  0.1570  0.8852  0.1615
 5496TIP3   OH237978   3.524   1.772   0.597  0.7576 -0.3998 -0.2811
 5496TIP3    H137979   3.439   1.809   0.622  0.2099 -1.4464 -0.5352
 5496TIP3    H237980   3.586   1.844   0.608  0.0271  0.0589  1.0304
 5497TIP3   OH237981   3.343   0.196  16.315  0.4815 -0.0889 -0.1497
 5497TIP3    H137982   3.312   0.283  16.338 -0.1038 -0.2466 -0.3345
 5497TIP3    H237983   3.330   0.189  16.221  1.9306  0.1778 -0.3895
 5498TIP3   OH237984   4.804   4.718   0.535  0.0656  0.1217 -0.5596
 5498TIP3    H137985   4.723   4.750   0.498 -0.0447 -2.6609 -3.1351
 5498TIP3    H237986   4.840   4.660   0.468  3.5643  0.2570  0.9743
 5499TIP3   OH237987   6.485   2.207  11.395  0.4723 -0.2828  0.1524
 5499TIP3    H137988   6.520   2.132  11.346  0.2143  0.1343 -0.6947
 5499TIP3    H237989   6.409   2.235  11.345 -0.1856 -0.2278  1.1540
 5500TIP3   OH237990   1.924   4.574   6.157  0.2383 -0.4219  0.3379
 5500TIP3    H137991   1.941   4.600   6.248  1.8456 -0.0241 -0.0582
 5500TIP3    H237992   2.004   4.532   6.128 -0.5528 -1.2954 -0.6613
 5501TIP3   OH237993   6.216   1.398  15.091 -0.5889  0.3456  0.0352
 5501TIP3    H137994   6.305   1.371  15.114 -0.8434  0.2046  0.8743
 5501TIP3    H237995   6.184   1.444  15.168 -1.6846 -0.6947  0.2183
 5502TIP3   OH237996   0.003   4.128   4.807  0.1859  0.3819 -0.1392
 5502TIP3    H137997   0.002   4.150   4.901  2.2122 -1.9377  0.5062
 5502TIP3    H237998   0.077   4.178   4.772 -0.3574  0.9749 -0.4684
 5503TIP3   OH237999   6.619   0.514  11.182  0.2657 -0.2039  0.4904
 5503TIP3    H138000   6.704   0.544  11.149  0.1502  0.3593  0.7085
 5503TIP3    H238001   6.559   0.527  11.108  0.4808 -1.1757  0.1245
 5504TIP3   OH238002   5.438   6.453   3.083  0.3891 -0.2876 -0.1491
 5504TIP3    H138003   5.432   6.364   3.119 -1.3640 -0.0760  0.1827
 5504TIP3    H238004   5.368   6.457   3.019 -0.5822  1.3351  0.9567
 5505TIP3   OH238005   1.738   3.995   2.571 -0.1571  0.1510  0.0704
 5505TIP3    H138006   1.707   4.008   2.661  1.5961  1.8347  0.4717
 5505TIP3    H238007   1.727   4.080   2.529  0.2377 -0.2807 -0.9318
 5506TIP3   OH238008   2.079   3.413   4.807  0.2562 -0.0514  0.7483
 5506TIP3    H138009   2.146   3.401   4.740 -0.8467  0.1035 -0.4101
 5506TIP3    H238010   2.073   3.327   4.850 -0.5970 -0.8380 -0.8611
 5507TIP3   OH238011   0.623   2.526  12.991  0.4514 -0.2703 -0.1538
 5507TIP3    H138012   0.569   2.565  13.060  0.9287  0.2743 -0.0816
 5507TIP3    H238013   0.618   2.588  12.919 -0.8554 -1.3167 -0.9953
 5508TIP3   OH238014   1.539   0.474  14.137 -0.5517 -0.4745  0.1768
 5508TIP3    H138015   1.524   0.510  14.050 -0.1340 -2.0982 -0.6166
 5508TIP3    H238016   1.479   0.400  14.143  0.2241 -1.0681  0.8114
 5509TIP3   OH238017   6.007   3.321  16.161  0.0000  0.2030 -0.0330
 5509TIP3    H138018   6.087   3.299  16.208 -0.5570  0.5487  1.1074
 5509TIP3    H238019   5.979   3.239  16.121  0.4078 -0.1318  0.3598
 5510TIP3   OH238020   1.125   4.209  13.830  0.3819 -0.2965 -0.5148
 5510TIP3    H138021   1.073   4.141  13.873  0.1985  0.4400  0.4638
 5510TIP3    H238022   1.200   4.223  13.888  0.6127  0.0696 -0.8975
 5511TIP3   OH238023   0.833   3.960   5.465 -0.1786  0.4257 -0.1603
 5511TIP3    H138024   0.869   3.989   5.381  1.7863  1.0138  0.8030
 5511TIP3    H238025   0.747   3.924   5.444  0.3503  0.3396 -2.4430
 5512TIP3   OH238026   1.028   2.064  16.168  0.5789  0.0928 -0.1251
 5512TIP3    H138027   0.962   2.116  16.122  0.4792  0.6293  0.5896
 5512TIP3    H238028   1.104   2.122  16.174  1.4485 -0.8308 -1.7153
 5513TIP3   OH238029   0.989   3.185   6.055  0.3359  0.0133 -0.0991
 5513TIP3    H138030   1.038   3.103   6.049  3.8231  1.8937 -0.1235
 5513TIP3    H238031   0.953   3.185   6.144 -1.4520 -2.2953 -0.7272
 5514TIP3   OH238032   0.945   4.771  15.439  0.5467 -0.4222  0.2117
 5514TIP3    H138033   0.988   4.692  15.473  1.8801 -0.4227 -1.3736
 5514TIP3    H238034   0.937   4.828  15.516  1.7218 -1.1631  0.9225
 5515TIP3   OH238035   2.622   5.869  14.739  0.2557  1.2831 -0.1541
 5515TIP3    H138036   2.641   5.937  14.805 -2.7082  0.4913  1.6888
 5515TIP3    H238037   2.551   5.906  14.686 -2.4926 -0.7747  1.8442
 5516TIP3   OH238038   4.867   5.089  16.396 -0.6839  0.2396 -0.6297
 5516TIP3    H138039   4.835   5.101  16.307  0.1225  1.6706 -0.7629
 5516TIP3    H238040   4.830   5.163  16.445  1.8525  1.6595 -0.6652
 5517TIP3   OH238041   2.328   1.807  11.749 -0.4175 -0.8163 -0.0646
 5517TIP3    H138042   2.331   1.740  11.817 -0.9859  0.9540  1.7750
 5517TIP3    H238043   2.248   1.856  11.766  0.2563  0.6935 -1.0129
 5518TIP3   OH238044   0.993   6.236   2.799 -0.6066  0.2706  0.6413
 5518TIP3    H138045   1.038   6.228   2.883 -1.2668 -0.6221  0.9253
 5518TIP3    H238046   0.941   6.156   2.791 -2.6347  1.5037  0.6303
 5519TIP3   OH238047   3.865   5.848  11.860 -0.0563  0.1953 -0.1469
 5519TIP3    H138048   3.939   5.901  11.890  1.5758 -2.9149  1.8292
 5519TIP3    H238049   3.795   5.868  11.922 -0.1284  1.3317 -0.5577
 5520TIP3   OH238050   1.774   5.734   3.119 -0.2011 -0.4712  0.7100
 5520TIP3    H138051   1.825   5.660   3.087 -1.7688 -0.5028 -2.0772
 5520TIP3    H238052   1.683   5.702   3.121 -0.8403  1.1503 -0.0416
 5521TIP3   OH238053   0.391   3.567   4.468  0.2356 -0.0093  0.2750
 5521TIP3    H138054   0.340   3.645   4.446  0.0748 -0.6107 -1.7208
 5521TIP3    H238055   0.326   3.502   4.494  0.2730  0.1598  0.8050
 5522TIP3   OH238056   4.380   1.917  17.018 -0.4530  0.0338  0.1266
 5522TIP3    H138057   4.398   1.939  17.109 -0.2777  3.0312 -0.4960
 5522TIP3    H238058   4.379   2.002  16.973  2.3284 -1.4209 -3.1897
 5523TIP3   OH238059   0.679   2.873  17.051  0.0081 -0.2510 -0.2743
 5523TIP3    H138060   0.751   2.865  16.989  0.6599  1.3543  0.2473
 5523TIP3    H238061   0.720   2.888  17.136 -0.9107 -1.1622  0.3747
 5524TIP3   OH238062   0.114   2.008   1.983 -0.3345 -0.4869 -0.1007
 5524TIP3    H138063   0.140   2.070   1.915  1.6924 -2.3933 -1.1628
 5524TIP3    H238064   0.037   1.964   1.947 -0.5633 -0.0112 -0.2074
 5525TIP3   OH238065   0.691   5.043   6.462  0.1762  0.5121  0.4004
 5525TIP3    H138066   0.603   5.075   6.484  0.1084 -0.2484  1.2551
 5525TIP3    H238067   0.684   5.015   6.371 -0.0855  1.7572  0.0152
 5526TIP3   OH238068   5.347   5.207  15.817 -0.4509 -1.2806 -0.6244
 5526TIP3    H138069   5.273   5.224  15.758 -0.2699 -2.8954 -1.3743
 5526TIP3    H238070   5.307   5.201  15.904 -1.1569 -1.6536 -0.9613
 5527TIP3   OH238071   3.853   1.266   1.918  0.3705  0.1838  0.4453
 5527TIP3    H138072   3.890   1.334   1.975 -0.2260  0.0674  0.9844
 5527TIP3    H238073   3.899   1.277   1.835 -1.3665  2.8537 -0.3083
 5528TIP3   OH238074   1.735   3.533   1.298 -0.4059 -0.0224  0.3343
 5528TIP3    H138075   1.812   3.560   1.247 -0.1068 -0.8935  0.3036
 5528TIP3    H238076   1.686   3.614   1.312 -0.2890  0.3071 -0.9926
 5529TIP3   OH238077   4.108   5.418   1.691 -0.7628  0.2133  0.2933
 5529TIP3    H138078   4.126   5.426   1.785 -1.9056  3.6236  0.3555
 5529TIP3    H238079   4.014   5.436   1.683 -0.8354 -0.7395 -1.4737
 5530TIP3   OH238080   6.381   4.579  16.818 -0.0028 -0.4543 -0.1276
 5530TIP3    H138081   6.342   4.570  16.731 -0.2083  0.9310 -0.1951
 5530TIP3    H238082   6.406   4.671  16.824 -2.3753  0.1565  2.2477
 5531TIP3   OH238083   5.520   6.697   2.543  1.2158  0.3004 -0.4391
 5531TIP3    H138084   5.467   6.664   2.615  0.6514 -0.6803 -1.2816
 5531TIP3    H238085   5.565   6.773   2.580 -1.4987  1.8002  0.0433
 5532TIP3   OH238086   4.694   0.282  11.820 -0.4782 -0.4650  0.0367
 5532TIP3    H138087   4.705   0.308  11.729  0.9625  0.4945  0.4431
 5532TIP3    H238088   4.633   0.348  11.856 -0.0206 -0.0556  0.0737
 5533TIP3   OH238089   2.887   3.358  16.584 -0.7097 -0.3587  0.0994
 5533TIP3    H138090   2.802   3.342  16.542 -0.4754 -2.6720  0.3991
 5533TIP3    H238091   2.950   3.348  16.513 -0.4915 -1.7860  0.4722
 5534TIP3   OH238092   1.883   0.367   3.245  0.7989  0.2918 -0.2219
 5534TIP3    H138093   1.869   0.272   3.240  2.1731 -0.0551  1.5759
 5534TIP3    H238094   1.803   0.401   3.284  0.0798 -0.0222 -1.3587
 5535TIP3   OH238095   2.163   6.608   6.789  0.3786  0.1295  0.4989
 5535TIP3    H138096   2.106   6.684   6.800 -0.4436 -0.7509  2.8594
 5535TIP3    H238097   2.104   6.537   6.762  0.8439 -0.1384  0.1575
 5536TIP3   OH238098   1.504   6.717  12.729 -0.5186  0.3456 -0.0832
 5536TIP3    H138099   1.578   6.772  12.705  0.8174 -0.3842  2.0482
 5536TIP3    H238100   1.532   6.628  12.707 -0.5497  0.0208  1.1265
 5537TIP3   OH238101   2.928   4.223   5.249  0.2792 -0.1491  0.0453
 5537TIP3    H138102   2.894   4.204   5.336 -0.0268  0.9887  0.1921
 5537TIP3    H238103   3.020   4.243   5.263  0.2164  0.0914  0.1197
 5538TIP3   OH238104   2.952   0.256   1.505 -0.7232  0.1509 -0.8101
 5538TIP3    H138105   2.988   0.175   1.542  0.1401  0.1814 -1.5438
 5538TIP3    H238106   3.003   0.270   1.425 -0.7620  1.5085 -0.6128
 5539TIP3   OH238107   4.543   6.512  11.450  0.4948  0.3016 -0.2946
 5539TIP3    H138108   4.550   6.607  11.443 -0.2795  0.5750  1.8799
 5539TIP3    H238109   4.618   6.486  11.505 -0.0233 -0.1565  0.2163
 5540TIP3   OH238110   4.335   1.287   3.547  0.0460 -0.4066 -0.0873
 5540TIP3    H138111   4.404   1.286   3.480 -0.2291  2.5105 -0.5476
 5540TIP3    H238112   4.272   1.222   3.517  1.3275 -1.2654 -1.0545
 5541TIP3   OH238113   6.146   6.161  11.464  0.1441 -0.2341  0.0708
 5541TIP3    H138114   6.164   6.162  11.370  1.0047 -1.8229  0.1832
 5541TIP3    H238115   6.222   6.206  11.503  0.6556 -1.0835  0.0926
 5542TIP3   OH238116   0.355   5.662  14.525  0.5892 -0.1983  0.1953
 5542TIP3    H138117   0.293   5.642  14.455  2.1024 -2.0080 -0.7578
 5542TIP3    H238118   0.302   5.698  14.596 -1.2268  0.1818 -1.2839
 5543TIP3   OH238119   2.760   2.801  13.942 -0.2675  0.1464  0.1709
 5543TIP3    H138120   2.822   2.866  13.910  0.0339 -0.5528 -0.7221
 5543TIP3    H238121   2.674   2.842  13.934  0.0240  0.9201  0.9051
 5544TIP3   OH238122   6.200   5.818   3.949  0.0163 -0.0253  0.2007
 5544TIP3    H138123   6.277   5.762   3.959  0.3094  0.3841  0.2523
 5544TIP3    H238124   6.232   5.907   3.962 -0.2268  0.2586 -0.9715
 5545TIP3   OH238125   3.493   2.272   4.288  0.3667 -0.1356  0.3329
 5545TIP3    H138126   3.464   2.311   4.371 -3.7273 -0.4391 -0.7339
 5545TIP3    H238127   3.412   2.251   4.242  2.4298 -0.4718 -3.5823
 5546TIP3   OH238128   3.467   4.579  12.593 -0.2048  0.0631 -1.0044
 5546TIP3    H138129   3.504   4.510  12.647  0.2990 -1.0168 -2.6440
 5546TIP3    H238130   3.400   4.620  12.647 -0.9284 -2.0951 -0.1983
 5547TIP3   OH238131   0.048   6.378  11.773 -0.1417  0.3384  0.3096
 5547TIP3    H138132  -0.046   6.361  11.764 -0.0948  0.8958 -1.8950
 5547TIP3    H238133   0.057   6.472  11.756  0.8032  0.3522  0.8041
 5548TIP3   OH238134   6.475   1.939   4.408 -0.0808  0.3272  0.4168
 5548TIP3    H138135   6.530   1.870   4.370  0.2810  0.5420  0.5472
 5548TIP3    H238136   6.493   1.934   4.502  0.6248  1.1898  0.3344
 5549TIP3   OH238137   6.496   6.668   3.040 -0.3730 -0.0421  1.3191
 5549TIP3    H138138   6.501   6.573   3.031 -2.6587 -0.1685  0.7408
 5549TIP3    H238139   6.551   6.702   2.969 -0.0404 -0.9361  1.1401
 5550TIP3   OH238140   4.615   4.080   5.200  0.3798  0.3229 -0.6068
 5550TIP3    H138141   4.586   4.090   5.109 -0.6522  2.9496 -0.0795
 5550TIP3    H238142   4.697   4.131   5.204  1.1106 -0.8271 -0.3154
 5551TIP3   OH238143   0.499   1.448  16.389 -0.2677  0.0949 -0.5893
 5551TIP3    H138144   0.477   1.424  16.479 -1.7991  2.4226 -0.2443
 5551TIP3    H238145   0.509   1.365  16.343 -1.1195 -1.1430  1.3577
 5552TIP3   OH238146   2.646   1.345   5.288 -0.0789 -0.2543 -0.2227
 5552TIP3    H138147   2.650   1.346   5.384  1.9349 -0.1147 -0.2567
 5552TIP3    H238148   2.721   1.291   5.261  0.7012  1.4440 -1.7141
 5553TIP3   OH238149   4.821   4.664  13.411  0.7385 -0.5466 -0.1155
 5553TIP3    H138150   4.765   4.667  13.488  0.6065  0.0487 -0.2299
 5553TIP3    H238151   4.765   4.695  13.340  0.5432 -2.0396 -0.6537
 5554TIP3   OH238152   1.976   6.782   1.046  0.5557 -0.1196 -0.0719
 5554TIP3    H138153   1.961   6.689   1.063  1.9623 -0.2336  0.8012
 5554TIP3    H238154   2.066   6.796   1.077  0.1341  1.6702  0.4197
 5555TIP3   OH238155   2.623   3.410  16.788  0.5958  0.6177  0.4789
 5555TIP3    H138156   2.603   3.463  16.865 -0.4449 -0.3710  0.9141
 5555TIP3    H238157   2.628   3.473  16.716 -0.3536  1.3448  1.0240
 5556TIP3   OH238158   4.290   3.345  14.936  0.1297 -0.0122 -0.3380
 5556TIP3    H138159   4.330   3.268  14.894  0.7802  0.0984  0.0630
 5556TIP3    H238160   4.363   3.391  14.977 -0.3666  0.3893  0.1180
 5557TIP3   OH238161   1.316   0.567   3.396 -0.4988 -0.0795  0.5978
 5557TIP3    H138162   1.342   0.493   3.449  1.9128  0.3856  0.1804
 5557TIP3    H238163   1.220   0.562   3.392 -0.5279 -1.8648  2.3740
 5558TIP3   OH238164   5.666   1.312  12.303  0.0681  0.0529 -0.3735
 5558TIP3    H138165   5.754   1.289  12.332 -0.0274  1.3856  1.0920
 5558TIP3    H238166   5.607   1.262  12.359 -0.1128  0.1636 -0.4616
 5559TIP3   OH238167   3.546   5.924   4.765 -0.3322 -0.5017 -0.0350
 5559TIP3    H138168   3.489   5.975   4.823  1.1665  0.8428  0.3391
 5559TIP3    H238169   3.553   5.978   4.686  2.6771  0.9243  1.0181
 5560TIP3   OH238170   6.014   1.349  12.862 -0.0168 -0.0921 -0.2948
 5560TIP3    H138171   6.037   1.402  12.786  1.0407 -0.6456 -0.3845
 5560TIP3    H238172   5.922   1.329  12.851 -0.3681  1.4644 -0.4212
 5561TIP3   OH238173   2.106   0.140  15.663 -0.3907  0.1288  0.3224
 5561TIP3    H138174   2.164   0.102  15.596 -2.5217  0.4521 -1.8425
 5561TIP3    H238175   2.100   0.072  15.730  2.2395 -0.0084  0.5389
 5562TIP3   OH238176   1.003   2.371  13.443  0.2449 -0.5385 -0.3896
 5562TIP3    H138177   0.919   2.328  13.423  0.6738 -1.5247 -0.1002
 5562TIP3    H238178   1.019   2.350  13.535 -0.7354  2.3222  0.5485
 5563TIP3   OH238179   3.407   1.500   2.361  0.0171 -0.0698 -0.2349
 5563TIP3    H138180   3.351   1.562   2.315  0.3621  0.4521  0.0294
 5563TIP3    H238181   3.347   1.436   2.399 -0.3386  0.0566 -0.5848
 5564TIP3   OH238182   2.013   3.554   4.085 -0.1171  0.3289 -0.7213
 5564TIP3    H138183   1.922   3.578   4.068 -0.7247 -1.1317  0.2192
 5564TIP3    H238184   2.011   3.512   4.171  1.3044 -0.5297 -1.0679
 5565TIP3   OH238185   4.034   1.336   0.723 -0.0618  0.2561 -0.4618
 5565TIP3    H138186   4.102   1.271   0.739 -0.1522  0.0668 -0.8392
 5565TIP3    H238187   4.081   1.415   0.699  0.0804  0.5446  0.6871
 5566TIP3   OH238188   6.448   1.234   5.241  0.1562 -0.4323 -0.5454
 5566TIP3    H138189   6.430   1.157   5.295 -0.1515 -0.2076 -0.3221
 5566TIP3    H238190   6.436   1.308   5.300  1.1689 -0.2396 -0.5668
 5567TIP3   OH238191   4.334   3.465   0.632  0.5017 -0.1532  0.4466
 5567TIP3    H138192   4.283   3.529   0.682  0.9063 -0.1869  0.9197
 5567TIP3    H238193   4.307   3.380   0.666  1.3529 -0.1447  1.1929
 5568TIP3   OH238194   5.398   0.506   1.793  0.0925 -1.4397  0.4134
 5568TIP3    H138195   5.483   0.462   1.787  0.2119 -1.3087  1.0885
 5568TIP3    H238196   5.417   0.589   1.837 -0.2596 -1.0591 -0.1400
 5569TIP3   OH238197   0.990   5.098  12.761  0.0143  0.1925 -0.0348
 5569TIP3    H138198   0.949   5.076  12.677 -1.0433  1.6813  0.0367
 5569TIP3    H238199   0.918   5.134  12.814  0.9414  0.5929  1.0065
 5570TIP3   OH238200   5.496   5.934  12.633 -0.1954 -0.1397  0.5903
 5570TIP3    H138201   5.547   5.855  12.646  0.7220  0.5354  1.2443
 5570TIP3    H238202   5.561   6.004  12.627 -0.8922  0.3825 -1.7272
 5571TIP3   OH238203   2.560   3.410   1.764 -0.0174  0.3184 -0.1039
 5571TIP3    H138204   2.469   3.383   1.755  0.2634 -1.0290  0.7764
 5571TIP3    H238205   2.604   3.369   1.690 -0.3730  2.4142 -1.5636
 5572TIP3   OH238206   5.740   3.529  14.519 -0.5490  0.1852 -0.5988
 5572TIP3    H138207   5.697   3.602  14.563 -0.9554  0.2214 -1.0415
 5572TIP3    H238208   5.668   3.478  14.482 -0.2205  0.2055 -1.2878
 5573TIP3   OH238209   2.626   3.043  14.135 -0.1546 -0.6138 -0.7317
 5573TIP3    H138210   2.593   3.120  14.181  1.1720 -1.0148  0.9941
 5573TIP3    H238211   2.557   2.978  14.145  0.1777 -0.7566  0.9229
 5574TIP3   OH238212   2.307   2.857   4.918 -0.1196 -0.1133 -0.6748
 5574TIP3    H138213   2.292   2.853   5.012 -1.3598  0.5629 -0.8264
 5574TIP3    H238214   2.244   2.796   4.881  0.0157  0.0021 -1.1026
 5575TIP3   OH238215   5.866   1.785  12.722  0.5418 -0.0274  0.2326
 5575TIP3    H138216   5.852   1.813  12.631  0.4966  1.1443  0.5832
 5575TIP3    H238217   5.855   1.690  12.720  1.2336 -0.0955 -1.1164
 5576TIP3   OH238218   3.095   0.405  10.837 -0.8622 -0.0271 -0.7009
 5576TIP3    H138219   3.115   0.464  10.910 -0.5049 -0.7188 -0.2242
 5576TIP3    H238220   3.054   0.329  10.878 -0.3104 -0.5900 -1.1716
 5577TIP3   OH238221   1.078   6.087   3.879  0.0026 -0.3000  0.9457
 5577TIP3    H138222   1.131   6.150   3.927  0.1603  0.1454  0.2126
 5577TIP3    H238223   1.045   6.136   3.803  0.5343 -1.2285  0.0857
 5578TIP3   OH238224   4.240   5.944  15.388 -0.4585  0.1609  0.5848
 5578TIP3    H138225   4.222   5.929  15.295 -0.4912 -0.2457  0.6509
 5578TIP3    H238226   4.185   6.019  15.411 -1.0055 -0.1849  0.4441
 5579TIP3   OH238227   1.651   1.457  10.919  0.3830  0.5787  0.2283
 5579TIP3    H138228   1.579   1.408  10.881  0.8721  0.6747 -0.8490
 5579TIP3    H238229   1.646   1.543  10.877 -0.2240  1.3525  1.7970
 5580TIP3   OH238230   5.138   0.782  13.472 -0.3709  0.3243 -0.3206
 5580TIP3    H138231   5.189   0.706  13.499  0.6216  1.2700  0.5492
 5580TIP3    H238232   5.056   0.775  13.520  0.5228  0.8471  1.3516
 5581TIP3   OH238233   5.548   2.559  13.978 -0.1808  0.7436 -0.1344
 5581TIP3    H138234   5.644   2.559  13.983 -0.1800 -0.8325  0.3450
 5581TIP3    H238235   5.520   2.511  14.056 -1.2485 -0.6765 -1.3381
 5582TIP3   OH238236   0.344   0.738   0.015 -0.6835 -0.4530 -0.6848
 5582TIP3    H138237   0.353   0.747   0.110 -1.2633 -3.4468 -0.2364
 5582TIP3    H238238   0.431   0.754  -0.019 -0.4779  0.7254  0.3392
 5583TIP3   OH238239   5.778   0.982   1.601 -0.6111 -0.0181 -0.0115
 5583TIP3    H138240   5.847   1.003   1.663  0.0249 -0.4726 -0.5511
 5583TIP3    H238241   5.824   0.965   1.518 -1.5208  1.9219 -0.9861
 5584TIP3   OH238242   4.586   4.578   2.626 -0.4212  0.2251 -0.1858
 5584TIP3    H138243   4.598   4.530   2.544 -1.9574  1.5026 -1.2367
 5584TIP3    H238244   4.655   4.645   2.626 -1.5688  1.4753 -1.4641
 5585TIP3   OH238245   2.465   2.805  15.416  0.6820  0.7788  0.1104
 5585TIP3    H138246   2.402   2.742  15.450  2.0268 -0.2715  0.7142
 5585TIP3    H238247   2.421   2.890  15.427 -0.7166  0.0681  0.2714
 5586TIP3   OH238248   5.881   4.439  14.620 -0.7627 -0.1327 -0.3688
 5586TIP3    H138249   5.865   4.533  14.607  0.1317 -0.0005 -0.5822
 5586TIP3    H238250   5.822   4.396  14.557 -0.1297  0.3448 -1.3095
 5587TIP3   OH238251   1.090   5.157   4.926 -0.2113  0.0045 -0.2711
 5587TIP3    H138252   1.088   5.211   5.005  0.6454  0.0071 -0.2369
 5587TIP3    H238253   1.033   5.202   4.864  2.2964  2.3589 -1.0902
 5588TIP3   OH238254   2.757   3.856   1.409  0.2278 -0.2363 -0.1168
 5588TIP3    H138255   2.755   3.952   1.407  1.7656 -0.1905 -0.3363
 5588TIP3    H238256   2.690   3.833   1.474 -1.2955  0.8975 -1.2277
 5589TIP3   OH238257   3.439   6.077  16.692 -0.1328  0.2082  0.3207
 5589TIP3    H138258   3.437   6.073  16.787  0.9232 -2.1045  0.3361
 5589TIP3    H238259   3.367   6.021  16.664 -0.2622  0.6458 -0.2388
 5590TIP3   OH238260   3.256   6.277   4.533 -0.0681  0.5955 -0.4807
 5590TIP3    H138261   3.233   6.367   4.508  0.6998  0.9241 -0.0603
 5590TIP3    H238262   3.251   6.278   4.629  0.9265  0.4740 -0.4220
 5591TIP3   OH238263   5.075   5.556  13.358 -0.4146 -0.2570  0.4509
 5591TIP3    H138264   5.047   5.498  13.287  0.6646 -0.5273  0.2399
 5591TIP3    H238265   5.145   5.609  13.320 -0.4591  0.2440  1.0482
 5592TIP3   OH238266   3.636   2.502  15.038  0.6650  0.3518  0.0584
 5592TIP3    H138267   3.607   2.560  15.108 -2.1220  0.4779 -1.0675
 5592TIP3    H238268   3.688   2.558  14.980  2.1881  0.4654  1.4816
 5593TIP3   OH238269   3.762   0.470  16.498  0.5434  0.0597 -0.6935
 5593TIP3    H138270   3.781   0.382  16.530  0.2027 -0.0207 -0.7038
 5593TIP3    H238271   3.723   0.515  16.573  0.6902  0.1942 -0.6964
 5594TIP3   OH238272   3.438   4.065   3.409  0.3788 -0.0681  0.2834
 5594TIP3    H138273   3.384   4.138   3.440 -1.6521 -0.8503 -1.1909
 5594TIP3    H238274   3.456   4.013   3.487  0.1010  0.8968  1.0146
 5595TIP3   OH238275   4.265   5.090   5.919 -0.0484  0.5608  0.0980
 5595TIP3    H138276   4.255   5.017   5.979 -1.8430  1.7270  1.3228
 5595TIP3    H238277   4.340   5.140   5.954  0.0108  0.3039  0.3424
 5596TIP3   OH238278   0.181   5.703   4.557  0.0914  0.5176 -1.2791
 5596TIP3    H138279   0.258   5.654   4.586  0.2585 -0.0534 -2.6310
 5596TIP3    H238280   0.182   5.783   4.610  0.3956 -0.4392  0.2281
 5597TIP3   OH238281   0.980   2.294   2.320 -0.3382  0.0853  1.3103
 5597TIP3    H138282   1.041   2.221   2.313  0.1456  0.5729  0.2164
 5597TIP3    H238283   0.958   2.298   2.413 -0.2116 -1.3118  1.4224
 5598TIP3   OH238284   1.279   2.619   0.609 -0.2590 -0.3823  0.2232
 5598TIP3    H138285   1.360   2.573   0.630 -0.1735 -0.2479  0.1863
 5598TIP3    H238286   1.303   2.681   0.540 -0.7306 -1.4692 -0.9614
 5599TIP3   OH238287   5.452   1.990  12.067 -0.0632 -0.4027  0.2682
 5599TIP3    H138288   5.465   1.896  12.083 -1.9603 -0.5791  1.0693
 5599TIP3    H238289   5.426   1.994  11.975  2.9265 -0.2729 -0.6735
 5600TIP3   OH238290   3.910   4.690   0.112 -0.1820 -0.0043  0.3541
 5600TIP3    H138291   3.841   4.641   0.068  0.1031 -1.6276  1.6034
 5600TIP3    H238292   3.890   4.782   0.094 -2.7320 -0.4195  0.7703
 5601TIP3   OH238293   1.155   0.675   6.051  0.1222 -0.4094  0.4470
 5601TIP3    H138294   1.141   0.651   6.143 -0.3055 -3.0014 -0.2328
 5601TIP3    H238295   1.234   0.730   6.053  0.4151 -0.8211  2.2957
 5602TIP3   OH238296   2.949   0.364  12.444  0.2003  0.2971 -0.3188
 5602TIP3    H138297   2.888   0.292  12.431  0.5777  0.0757 -0.8695
 5602TIP3    H238298   2.918   0.433  12.386  0.2359  0.3320 -0.2970
 5603TIP3   OH238299   4.184   5.688  12.194  0.2808 -0.3591  0.4263
 5603TIP3    H138300   4.273   5.674  12.162  0.3891 -1.2565  1.0578
 5603TIP3    H238301   4.184   5.777  12.227  1.4130 -0.8152  1.7714
 5604TIP3   OH238302   4.165   5.154  15.107  0.2713  0.4787 -0.0593
 5604TIP3    H138303   4.097   5.174  15.171 -0.8407  0.9033 -1.3120
 5604TIP3    H238304   4.241   5.204  15.135 -0.0805  0.3900  1.0938
 5605TIP3   OH238305   5.560   1.013   3.954  0.7405 -0.6242 -0.4927
 5605TIP3    H138306   5.495   0.943   3.958  0.9919 -0.8005  1.0723
 5605TIP3    H238307   5.528   1.079   4.015  1.4406 -0.1877 -0.5838
 5606TIP3   OH238308   0.959   4.448  16.597  0.1239  0.3058 -0.4127
 5606TIP3    H138309   0.951   4.372  16.538  0.8722  0.0094 -0.1510
 5606TIP3    H238310   0.981   4.521  16.539 -3.0632  0.9171 -1.0125
 5607TIP3   OH238311   1.280   4.956   1.245  0.0323  0.0493  0.1413
 5607TIP3    H138312   1.252   5.034   1.198  2.2978  0.3316 -0.8235
 5607TIP3    H238313   1.369   4.940   1.216  0.4492 -1.5628  2.0672
 5608TIP3   OH238314   2.250   6.805   1.033 -0.2602  0.2950  0.1324
 5608TIP3    H138315   2.291   6.800   0.947 -1.8814 -1.5392 -0.6018
 5608TIP3    H238316   2.322   6.787   1.094  0.2602 -2.1874 -1.0731
 5609TIP3   OH238317   6.285   1.765   2.559  0.2462 -0.3104  0.6213
 5609TIP3    H138318   6.265   1.750   2.466 -2.6205  0.2344  1.0368
 5609TIP3    H238319   6.341   1.842   2.559 -0.9508  0.6294 -0.6566
 5610TIP3   OH238320   0.745   2.802  12.265  0.7299 -0.0409 -0.0972
 5610TIP3    H138321   0.805   2.868  12.297  1.2406 -1.0078  1.0007
 5610TIP3    H238322   0.801   2.738  12.221  0.6102 -1.2624  1.4643
 5611TIP3   OH238323   1.772   3.666  14.932  0.3937  0.7325 -0.3974
 5611TIP3    H138324   1.753   3.664  14.838  0.6310  1.3507 -0.4620
 5611TIP3    H238325   1.808   3.579  14.951 -0.3335  0.3602 -0.7300
 5612TIP3   OH238326   1.752   2.298  16.058 -0.0119  0.1842  0.3241
 5612TIP3    H138327   1.710   2.377  16.023  0.7204 -0.1691 -1.4528
 5612TIP3    H238328   1.838   2.327  16.088 -0.2184  0.2811  0.8311
 5613TIP3   OH238329   4.624   0.847   5.157 -0.0477  0.0406  0.5573
 5613TIP3    H138330   4.712   0.838   5.121  0.2468 -0.6577  1.4123
 5613TIP3    H238331   4.579   0.906   5.097  0.5822 -0.6582 -0.6384
 5614TIP3   OH238332   1.459   1.716   2.182  0.0053 -0.3927 -0.0161
 5614TIP3    H138333   1.539   1.735   2.232 -0.7563  0.7138  0.8228
 5614TIP3    H238334   1.421   1.640   2.226  0.1155 -0.3414  0.1713
 5615TIP3   OH238335   0.606   3.483  11.707 -0.0015 -0.2907 -0.3260
 5615TIP3    H138336   0.686   3.496  11.757  0.7339  0.3998 -1.6332
 5615TIP3    H238337   0.569   3.570  11.698 -0.2929 -0.4507 -0.7121
 5616TIP3   OH238338   1.882   2.034   4.524  0.7523 -0.4801  0.1831
 5616TIP3    H138339   1.841   2.114   4.555  1.7555 -0.3549  1.2371
 5616TIP3    H238340   1.862   2.032   4.430 -1.6809 -0.4669  0.6120
 5617TIP3   OH238341   4.743   4.273   0.285  0.7580 -0.2411 -0.0565
 5617TIP3    H138342   4.676   4.269   0.353 -0.3695  0.9685 -1.0551
 5617TIP3    H238343   4.753   4.182   0.256 -2.1095 -0.2244 -1.4193
 5618TIP3   OH238344   4.559   5.466   3.316 -0.6509  0.0718  0.3258
 5618TIP3    H138345   4.557   5.545   3.261  1.0886 -0.6842 -0.9277
 5618TIP3    H238346   4.648   5.433   3.306 -0.9178 -1.2732  1.9868
 5619TIP3   OH238347   0.380   3.438   0.999 -0.1843 -0.1814  0.1211
 5619TIP3    H138348   0.456   3.496   1.008  0.0691 -0.6469  1.1578
 5619TIP3    H238349   0.344   3.459   0.913  0.4713  0.8225  0.0690
 5620TIP3   OH238350   4.095   6.028  14.698 -0.1412 -0.5250 -0.5032
 5620TIP3    H138351   4.183   6.065  14.707  0.7206 -2.1244 -1.7856
 5620TIP3    H238352   4.067   6.055  14.610 -0.8383 -0.2663 -0.2121
 5621TIP3   OH238353   4.967   1.559  15.170  0.1944  0.1719 -0.4244
 5621TIP3    H138354   5.032   1.490  15.182  0.7176  0.9599  1.7953
 5621TIP3    H238355   5.010   1.638  15.202 -1.7469  0.7494  0.9187
 5622TIP3   OH238356   5.156   3.928   1.538 -0.5700 -0.4080  0.7778
 5622TIP3    H138357   5.189   3.941   1.627 -1.0501 -0.2067  0.9294
 5622TIP3    H238358   5.158   3.833   1.526 -0.1425 -0.4113  0.8640
 5623TIP3   OH238359   6.057   5.591   3.935 -0.0877  0.5193 -0.0650
 5623TIP3    H138360   6.061   5.679   3.972  0.3300  0.6941 -0.5124
 5623TIP3    H238361   5.967   5.583   3.902 -0.2952  0.5669  0.4792
 5624TIP3   OH238362   0.204   3.992   0.526 -0.5653  0.9455 -0.4807
 5624TIP3    H138363   0.245   3.927   0.582 -1.4744  0.7159 -0.0651
 5624TIP3    H238364   0.189   3.947   0.443 -1.4460  0.5230 -0.1053
 5625TIP3   OH238365   3.805   0.985   1.213  0.0478  0.2856 -0.5671
 5625TIP3    H138366   3.878   1.010   1.155 -0.0703 -1.3851 -1.4780
 5625TIP3    H238367   3.728   0.987   1.156 -0.4560  0.9365  0.1235
 5626TIP3   OH238368   1.580   2.791  14.548  0.2492  0.1281  0.5816
 5626TIP3    H138369   1.581   2.879  14.510 -0.7098  0.5955  1.5927
 5626TIP3    H238370   1.490   2.760  14.535  1.2265 -1.9549 -2.4109
 5627TIP3   OH238371   5.752   3.148  10.937  0.0701 -0.1797  0.2377
 5627TIP3    H138372   5.693   3.167  10.864  2.1196  0.7637 -1.2400
 5627TIP3    H238373   5.818   3.216  10.934 -0.0992  0.2763  3.4360
 5628TIP3   OH238374   5.875   6.006   3.504  0.4891  0.1427 -0.4766
 5628TIP3    H138375   5.835   6.062   3.438 -0.0876 -1.1189 -1.2433
 5628TIP3    H238376   5.956   5.975   3.463  1.2539  1.0814  0.2816
 5629TIP3   OH238377   6.585   1.508  14.952 -0.1064  0.3348 -0.8553
 5629TIP3    H138378   6.553   1.584  14.902 -1.0234 -0.0892 -0.9442
 5629TIP3    H238379   6.536   1.511  15.034  0.5230  0.3473 -0.4759
 5630TIP3   OH238380   5.583   4.996   5.485  1.1024  0.1531 -0.1307
 5630TIP3    H138381   5.644   4.968   5.554  0.3968  0.7726  0.7807
 5630TIP3    H238382   5.615   5.082   5.458  1.8985 -0.4679 -1.2439
 5631TIP3   OH238383   2.070   3.779  10.934 -0.8209 -0.4438 -0.0193
 5631TIP3    H138384   1.993   3.813  10.979  1.0164  0.1082  3.0127
 5631TIP3    H238385   2.093   3.847  10.870 -0.2950  1.6635  2.2481
 5632TIP3   OH238386   6.050   2.140   2.119  0.7265  0.5760 -0.1364
 5632TIP3    H138387   6.039   2.213   2.059  0.2110 -0.7334 -1.7169
 5632TIP3    H238388   6.064   2.064   2.062 -1.2818 -1.0034  1.3103
 5633TIP3   OH238389   6.326   1.115  15.827  0.4525 -0.0791  0.3203
 5633TIP3    H138390   6.302   1.170  15.902  2.3826  2.6579 -0.9009
 5633TIP3    H238391   6.366   1.037  15.866 -0.4295  0.3257  2.1350
 5634TIP3   OH238392   6.441   3.890  17.080  0.0876 -0.0777  0.8691
 5634TIP3    H138393   6.514   3.952  17.082  1.2699 -1.4369  1.8904
 5634TIP3    H238394   6.387   3.913  17.155 -0.3422  0.6780  0.3411
 5635TIP3   OH238395   0.913   2.701   3.219 -0.2220  0.2005  0.1299
 5635TIP3    H138396   0.842   2.762   3.239 -0.5543 -0.5991  1.5340
 5635TIP3    H238397   0.882   2.653   3.143 -0.7102  0.5920  0.0722
 5636TIP3   OH238398   2.141   3.451   3.719  0.2133 -0.0123 -0.4737
 5636TIP3    H138399   2.114   3.378   3.774 -0.2481 -0.7605 -1.6632
 5636TIP3    H238400   2.157   3.523   3.780  0.8239 -1.1448  0.7204
 5637TIP3   OH238401   6.496   3.009   1.708  0.2365 -0.7607  0.1496
 5637TIP3    H138402   6.426   3.068   1.737 -0.1936 -0.9930 -0.3965
 5637TIP3    H238403   6.463   2.971   1.627  0.4389 -1.8650  0.5639
 5638TIP3   OH238404   2.035   0.480  12.741 -0.0887 -0.0854  0.0777
 5638TIP3    H138405   1.999   0.537  12.809 -1.0311  0.5392 -0.9091
 5638TIP3    H238406   1.980   0.497  12.664  0.7797 -0.9673 -0.7650
 5639TIP3   OH238407   3.844   5.362  17.211 -0.7647 -0.1178  0.3317
 5639TIP3    H138408   3.768   5.415  17.189  0.5646  2.1579  0.9292
 5639TIP3    H238409   3.911   5.387  17.147 -0.0060 -0.8574  0.8053
 5640TIP3   OH238410   4.189   6.802  11.176  0.4923 -0.8481  0.2129
 5640TIP3    H138411   4.256   6.837  11.235  1.2876 -2.3069  0.2289
 5640TIP3    H238412   4.209   6.842  11.092 -0.1549  0.6262  0.7352
 5641TIP3   OH238413   3.906   2.876  11.142  0.5116 -0.3307 -0.1207
 5641TIP3    H138414   3.921   2.877  11.047  0.2000 -1.6643 -0.2057
 5641TIP3    H238415   3.992   2.860  11.180  0.6406  0.2255 -0.1659
 5642TIP3   OH238416   6.309   1.906  10.651 -0.1589  0.5422 -0.0353
 5642TIP3    H138417   6.400   1.898  10.678 -0.3386 -0.7150  0.2503
 5642TIP3    H238418   6.305   1.989  10.604  1.0880  0.6954  0.1028
 5643TIP3   OH238419   4.431   3.738  14.749  0.0773 -0.3681 -0.2161
 5643TIP3    H138420   4.498   3.690  14.796 -0.9023 -1.2201  0.3247
 5643TIP3    H238421   4.477   3.815  14.715  1.0837 -0.3856  1.0356
 5644TIP3   OH238422   3.794   2.049  15.843 -0.5445  0.1562  0.2240
 5644TIP3    H138423   3.807   1.967  15.795 -2.3029  0.2853 -0.5523
 5644TIP3    H238424   3.881   2.089  15.846  0.1672 -1.2884 -0.2034
 5645TIP3   OH238425   3.872   0.736  16.441 -0.6393  0.0695  0.2555
 5645TIP3    H138426   3.787   0.780  16.443 -1.2229 -1.0232  0.2404
 5645TIP3    H238427   3.860   0.658  16.496 -0.2975 -1.2446 -1.4463
 5646TIP3   OH238428   2.869   4.038   4.525  0.3469  0.0642 -0.3032
 5646TIP3    H138429   2.812   3.988   4.583  0.2387  0.4121 -0.1029
 5646TIP3    H238430   2.809   4.093   4.474  0.4616 -0.0239 -0.5325
 5647TIP3   OH238431   1.985   1.218   2.111  0.0491  0.1555 -0.1439
 5647TIP3    H138432   1.895   1.187   2.109 -0.9810  2.9455 -0.7058
 5647TIP3    H238433   1.997   1.262   2.027  2.3139 -0.9997 -0.5131
 5648TIP3   OH238434   5.625   0.684  16.026  0.3358  0.5484 -0.0873
 5648TIP3    H138435   5.715   0.714  16.008  0.2446 -0.1329 -1.8813
 5648TIP3    H238436   5.579   0.763  16.053  1.0895  1.2326 -0.7231
 5649TIP3   OH238437   3.400   6.185   3.348 -0.2364 -0.0730  0.0746
 5649TIP3    H138438   3.377   6.102   3.305 -0.5338 -0.1706  0.4231
 5649TIP3    H238439   3.317   6.231   3.359 -0.0823  0.2384 -0.0426
 5650TIP3   OH238440   0.357   0.115  15.730  0.4949  0.3580 -0.3028
 5650TIP3    H138441   0.290   0.050  15.749  0.9177 -0.4085 -1.3345
 5650TIP3    H238442   0.346   0.134  15.637  0.7709  1.3256 -0.1544
 5651TIP3   OH238443   4.420   5.222  15.154  0.4669  0.4133 -0.3163
 5651TIP3    H138444   4.499   5.216  15.100  0.4626  0.0462 -0.2791
 5651TIP3    H238445   4.442   5.176  15.234 -0.2156 -0.7918 -0.8064
 5652TIP3   OH238446   2.540   2.818   0.753 -0.5017  0.1443 -0.0489
 5652TIP3    H138447   2.451   2.814   0.718 -0.4290  0.0997 -0.2324
 5652TIP3    H238448   2.533   2.784   0.841 -0.5009 -0.7639 -0.3928
 5653TIP3   OH238449   3.491   2.291   3.321  0.4797 -0.4205 -0.1213
 5653TIP3    H138450   3.514   2.224   3.256  0.7063  0.4400 -0.9570
 5653TIP3    H238451   3.573   2.310   3.366  0.5892 -0.1236 -0.4443
 5654TIP3   OH238452   0.350   4.148   3.453 -0.0729  0.3063  0.0144
 5654TIP3    H138453   0.336   4.069   3.505  1.9785 -0.3554 -0.3273
 5654TIP3    H238454   0.420   4.194   3.498  0.9259  0.3094 -1.4726
 5655TIP3   OH238455   6.713   4.796  16.278 -0.4425 -0.0403 -0.2884
 5655TIP3    H138456   6.723   4.702  16.261 -1.1842 -0.3476  0.8529
 5655TIP3    H238457   6.770   4.813  16.353 -0.2396  0.4530 -0.5495
 5656TIP3   OH238458   3.075   0.125  13.659 -0.3492 -0.0943 -0.2387
 5656TIP3    H138459   3.042   0.062  13.595 -1.7649 -0.3672  0.7000
 5656TIP3    H238460   3.139   0.077  13.710  0.4351 -0.0124 -1.1165
 5657TIP3   OH238461   6.288   0.817  16.187  0.0379  0.2805 -0.3419
 5657TIP3    H138462   6.206   0.835  16.139  0.5434  0.7997 -1.0313
 5657TIP3    H238463   6.259   0.797  16.276 -0.9670 -1.1231 -0.9333
 5658TIP3   OH238464   6.642   4.169  12.100 -0.8483  0.2135 -0.0994
 5658TIP3    H138465   6.676   4.206  12.182 -0.8022 -0.0737  0.0114
 5658TIP3    H238466   6.549   4.156  12.116 -0.8148  0.0380 -0.0487
 5659TIP3   OH238467   4.536   0.374  14.292 -0.4935 -0.0800  0.0983
 5659TIP3    H138468   4.631   0.376  14.300 -0.3814  2.5339 -1.1387
 5659TIP3    H238469   4.519   0.347  14.202 -0.8982  0.3443  0.0423
 5660TIP3   OH238470   3.912   2.297  14.155 -0.1375 -0.0321 -0.2983
 5660TIP3    H138471   4.007   2.308  14.151 -0.1728  0.2825 -0.2968
 5660TIP3    H238472   3.897   2.244  14.234  0.0269  0.0364 -0.2220
 5661TIP3   OH238473   1.585   4.801   2.050  0.1881 -0.1311  0.5126
 5661TIP3    H138474   1.630   4.885   2.061 -1.4289  0.8708 -0.0205
 5661TIP3    H238475   1.643   4.750   1.993  1.1543  0.6673  0.7504
 5662TIP3   OH238476   2.874   5.079  15.881  0.6874  0.1419 -0.9215
 5662TIP3    H138477   2.883   4.985  15.889  0.3219  0.0370 -1.6332
 5662TIP3    H238478   2.963   5.112  15.868  0.7601 -0.1653 -1.2047
 5663TIP3   OH238479   1.611   2.013  14.951  0.3006  0.4988  0.2590
 5663TIP3    H138480   1.672   2.067  14.900 -0.7032  1.7212  0.3006
 5663TIP3    H238481   1.585   1.943  14.890  1.0180  0.5056 -0.0679
 5664TIP3   OH238482   1.761   3.216  14.575  0.0554  0.2218  0.1402
 5664TIP3    H138483   1.765   3.132  14.531 -0.1956  0.5760 -0.5784
 5664TIP3    H238484   1.667   3.232  14.587  0.0541  0.8168 -0.5748
 5665TIP3   OH238485   6.161   2.660   6.424 -0.1275 -0.6362  0.0484
 5665TIP3    H138486   6.195   2.727   6.366 -1.5231 -1.3038 -1.6385
 5665TIP3    H238487   6.183   2.690   6.512  0.1683  1.4917 -0.7048
 5666TIP3   OH238488   6.458   4.297   0.336  0.1158  0.2492  0.2271
 5666TIP3    H138489   6.369   4.327   0.353  0.2989  1.8607 -1.3534
 5666TIP3    H238490   6.509   4.332   0.410 -0.5142 -0.6157  1.0933
 5667TIP3   OH238491   5.157   2.269  12.970 -0.3413  0.3031 -0.7305
 5667TIP3    H138492   5.173   2.198  13.031  1.9805  0.2373 -1.3052
 5667TIP3    H238493   5.069   2.300  12.991 -1.0101 -2.0169  0.2305
 5668TIP3   OH238494   6.638   3.205  14.744 -0.9747 -0.2116  0.0519
 5668TIP3    H138495   6.732   3.187  14.744 -0.6969  0.8813 -2.2088
 5668TIP3    H238496   6.600   3.132  14.695 -1.0025  0.4198 -0.8995
 5669TIP3   OH238497   5.146   2.012  11.455  0.1364  0.2680 -0.0913
 5669TIP3    H138498   5.124   1.940  11.515  0.2654  1.1428  1.0327
 5669TIP3    H238499   5.122   1.979  11.369  0.0492 -1.0684  0.4217
 5670TIP3   OH238500   6.619   5.168   3.319  0.0371 -0.1459 -0.3493
 5670TIP3    H138501   6.595   5.229   3.388 -1.2784 -0.7307 -0.2613
 5670TIP3    H238502   6.702   5.202   3.284  0.0557  0.8682  0.6422
 5671TIP3   OH238503   5.379   1.991  15.259  0.0440 -0.0756 -0.0795
 5671TIP3    H138504   5.302   1.981  15.204 -0.2187 -0.7932  0.4052
 5671TIP3    H238505   5.359   2.066  15.315  0.5622  1.0475 -1.3451
 5672TIP3   OH238506   0.051   3.955   2.272  0.7678 -0.0227 -0.4797
 5672TIP3    H138507  -0.010   3.918   2.207 -0.2387  1.8663 -0.6847
 5672TIP3    H238508   0.102   3.880   2.302 -1.2015 -1.5995 -0.8060
 5673TIP3   OH238509   1.353   0.265  10.497  0.3241 -0.2065 -0.0748
 5673TIP3    H138510   1.385   0.355  10.501  0.8987 -0.3602 -0.8862
 5673TIP3    H238511   1.259   0.274  10.480  0.2579  0.2370  0.4838
 5674TIP3   OH238512   1.831   3.509   3.778 -0.1577 -0.1650 -0.4332
 5674TIP3    H138513   1.917   3.485   3.812  0.7705  1.5408 -1.4256
 5674TIP3    H238514   1.850   3.570   3.707 -2.1116 -1.7154 -2.3864
 5675TIP3   OH238515   5.460   4.876  16.086 -0.0709 -0.1488  0.4859
 5675TIP3    H138516   5.477   4.794  16.132 -1.1084 -0.2210  0.7498
 5675TIP3    H238517   5.412   4.930  16.149  1.3910  1.0447  0.6515
 5676TIP3   OH238518   0.994   1.660  11.140 -0.1589 -0.1543  0.0306
 5676TIP3    H138519   1.070   1.642  11.196  0.0839  1.7682  0.3848
 5676TIP3    H238520   1.009   1.749  11.107 -1.5493 -0.2985 -1.0789
 5677TIP3   OH238521   5.717   5.537  14.989  0.3452 -0.1662 -0.4951
 5677TIP3    H138522   5.760   5.509  14.909  2.0388  1.2729 -0.1601
 5677TIP3    H238523   5.702   5.631  14.977  0.2056 -0.0117  0.6854
 5678TIP3   OH238524   4.354   5.387   4.860 -0.0552 -0.1532  0.2824
 5678TIP3    H138525   4.331   5.331   4.934  0.6137 -0.5287  0.2100
 5678TIP3    H238526   4.355   5.476   4.897 -0.0003 -0.3078  0.6561
 5679TIP3   OH238527   3.360   2.581   6.576 -0.0647  0.4579 -0.4998
 5679TIP3    H138528   3.356   2.615   6.486 -0.8208  0.0544 -0.6287
 5679TIP3    H238529   3.440   2.529   6.578  0.3134  1.0135 -0.7405
 5680TIP3   OH238530   1.766   5.850   4.268 -0.1022 -0.0457  0.1123
 5680TIP3    H138531   1.817   5.929   4.250  0.4760 -0.1839  1.0792
 5680TIP3    H238532   1.693   5.880   4.323  0.7596 -0.3460  1.4525
 5681TIP3   OH238533   5.942   1.802   3.072  0.0347  0.0146  0.5378
 5681TIP3    H138534   5.959   1.896   3.082 -0.2053  0.1710 -0.3680
 5681TIP3    H238535   6.010   1.771   3.013  0.6814 -0.5909  1.5830
 5682TIP3   OH238536   2.251   0.874  12.139  0.3262 -0.1002  0.7006
 5682TIP3    H138537   2.283   0.800  12.087  1.5752  1.5947 -1.1438
 5682TIP3    H238538   2.298   0.949  12.102 -2.9831  2.0418  0.5220
 5683TIP3   OH238539   4.806   3.569  16.070 -0.0106  0.6305 -0.4387
 5683TIP3    H138540   4.792   3.637  16.136 -1.0663  0.5159 -0.5386
 5683TIP3    H238541   4.867   3.508  16.112 -1.5056 -0.0283  0.8942
 5684TIP3   OH238542   6.254   0.124  11.223  0.6980 -0.1122 -0.2832
 5684TIP3    H138543   6.196   0.136  11.299 -0.3252 -0.0774 -1.0508
 5684TIP3    H238544   6.272   0.213  11.193  0.0371 -0.1655 -0.8568
 5685TIP3   OH238545   1.185   1.483  15.151 -0.6352 -1.0902  0.3284
 5685TIP3    H138546   1.113   1.546  15.147 -0.1211 -0.5543 -0.8342
 5685TIP3    H238547   1.147   1.402  15.118 -1.0879 -1.1996  1.0919
 5686TIP3   OH238548   3.334   3.244   2.701 -0.2378 -0.6683  0.4619
 5686TIP3    H138549   3.403   3.251   2.635 -0.4054 -0.1248  0.3365
 5686TIP3    H238550   3.380   3.237   2.784 -0.0283 -0.3310  0.3756
 5687TIP3   OH238551   6.688   0.432  15.650 -0.0093  0.5947 -0.0668
 5687TIP3    H138552   6.663   0.369  15.583 -0.6971 -0.0752  0.8016
 5687TIP3    H238553   6.610   0.443  15.704  0.2753  1.7644  0.1430
 5688TIP3   OH238554   0.719   0.253  16.510  0.4656  0.6742 -0.1909
 5688TIP3    H138555   0.640   0.303  16.529 -1.1441 -2.0515  0.8330
 5688TIP3    H238556   0.747   0.284  16.424 -1.7846  1.6810 -0.6351
 5689TIP3   OH238557   6.625   3.491  13.922  0.0114  0.0258 -0.6839
 5689TIP3    H138558   6.537   3.481  13.959 -0.5641  2.8806 -1.0597
 5689TIP3    H238559   6.678   3.523  13.995  0.1317  0.6145 -1.0223
 5690TIP3   OH238560   0.717   6.496  16.758 -0.1434  0.0792 -0.0878
 5690TIP3    H138561   0.673   6.417  16.791 -0.5669  0.4999  0.3576
 5690TIP3    H238562   0.809   6.484  16.782 -0.1758 -0.3575 -0.1733
 5691TIP3   OH238563   5.629   0.099   2.680 -0.2419 -0.5729  0.0104
 5691TIP3    H138564   5.574   0.177   2.690 -0.6753 -0.7868 -0.6220
 5691TIP3    H238565   5.697   0.124   2.618  0.7230 -0.1403  1.2024
 5692TIP3   OH238566   1.396   2.549   1.286 -0.2693 -0.3602  0.5426
 5692TIP3    H138567   1.305   2.578   1.273 -0.1858  0.4372  1.6439
 5692TIP3    H238568   1.409   2.552   1.380  1.1042  0.0856  0.3578
 5693TIP3   OH238569   2.035   1.116  12.560  0.2728 -0.2960  0.1712
 5693TIP3    H138570   1.943   1.140  12.572  1.3027  3.2366  2.1926
 5693TIP3    H238571   2.046   1.112  12.465 -1.4556  1.7106 -0.1895
 5694TIP3   OH238572   6.479   0.672  10.527  0.6122  0.0933  0.2918
 5694TIP3    H138573   6.545   0.628  10.580  2.1965  1.9139 -0.0838
 5694TIP3    H238574   6.433   0.729  10.589  0.5243  0.0874  0.2313
 5695TIP3   OH238575   5.389   1.497  10.489 -0.4540 -0.1746  0.1301
 5695TIP3    H138576   5.377   1.418  10.437 -0.3259 -1.0870  1.4160
 5695TIP3    H238577   5.336   1.563  10.445 -0.1490 -0.8289 -1.2715
 5696TIP3   OH238578   3.394   2.836  14.211 -0.7669  0.0746  0.1089
 5696TIP3    H138579   3.478   2.834  14.258 -0.7880  0.9647  0.2063
 5696TIP3    H238580   3.334   2.788  14.268  0.1645 -2.6302 -1.0337
 5697TIP3   OH238581   4.327   1.479   1.829 -0.4873  0.2577 -0.1280
 5697TIP3    H138582   4.391   1.535   1.872 -1.3895  0.8490  0.4951
 5697TIP3    H238583   4.378   1.410   1.787  0.5607  0.8938  0.0878
 5698TIP3   OH238584   5.273   3.010  14.023 -0.3333 -0.4340  1.0646
 5698TIP3    H138585   5.320   3.037  13.943 -0.5133 -0.0631  1.0823
 5698TIP3    H238586   5.201   2.957  13.991 -0.6171  0.0136  0.9500
 5699TIP3   OH238587   5.467   4.479   1.508 -0.4770 -0.1860 -0.5722
 5699TIP3    H138588   5.504   4.518   1.429 -0.7976  2.4735  0.4781
 5699TIP3    H238589   5.532   4.498   1.576 -1.4536  0.0901  0.3165
 5700TIP3   OH238590   4.672   0.091   0.233 -0.5728 -0.6013 -0.1230
 5700TIP3    H138591   4.580   0.115   0.221 -0.9529 -1.0878  1.5368
 5700TIP3    H238592   4.685   0.016   0.175 -1.3656 -0.8240 -0.0324
 5701TIP3   OH238593   1.379   4.771   2.695  0.4556  0.0197  0.0187
 5701TIP3    H138594   1.427   4.720   2.631  0.4075 -0.1356  0.1060
 5701TIP3    H238595   1.292   4.783   2.657  0.1416 -0.8241  0.4337
 5702TIP3   OH238596   5.587   1.035   4.831  0.6490 -0.1280  0.1408
 5702TIP3    H138597   5.597   1.066   4.741 -0.8860 -0.9397 -0.3505
 5702TIP3    H238598   5.511   1.084   4.864  0.0345 -1.1904  0.3438
 5703TIP3   OH238599   5.394   0.372   2.703  0.3244  0.0360 -0.0123
 5703TIP3    H138600   5.352   0.457   2.716 -0.5155 -0.3992  0.2080
 5703TIP3    H238601   5.353   0.337   2.623 -1.5375 -1.4300  1.5001
 5704TIP3   OH238602   4.177   6.816   0.435  0.4216  0.0354  0.1629
 5704TIP3    H138603   4.162   6.737   0.487  0.7170  0.3186  0.6869
 5704TIP3    H238604   4.094   6.863   0.438  0.2958 -0.1748 -0.0106
 5705TIP3   OH238605   5.621   3.441   5.301 -0.1834  0.2878  0.1682
 5705TIP3    H138606   5.549   3.504   5.310  0.9978  1.6370  0.6030
 5705TIP3    H238607   5.667   3.469   5.222  0.5659  0.2025  0.5683
 5706TIP3   OH238608   3.890   0.065  12.094  0.4979  0.5472  0.4746
 5706TIP3    H138609   3.973   0.107  12.118  1.1778  0.3419 -1.3439
 5706TIP3    H238610   3.910  -0.029  12.094 -0.2963  0.3374  1.8950
 5707TIP3   OH238611   0.381   1.853  11.106  0.1959 -0.6041  0.0123
 5707TIP3    H138612   0.310   1.840  11.044  0.1864  0.1782 -0.1543
 5707TIP3    H238613   0.460   1.856  11.052  0.0024  2.2502 -0.2843
 5708TIP3   OH238614   2.465   3.756   4.267  0.2651  0.3843 -0.1770
 5708TIP3    H138615   2.538   3.814   4.244 -0.2532  1.5522  0.9955
 5708TIP3    H238616   2.463   3.757   4.362 -1.3984  0.5607 -0.1799
 5709TIP3   OH238617   5.962   4.644  15.865  0.2204  0.1183 -0.3104
 5709TIP3    H138618   5.905   4.616  15.793  0.7067 -0.0719 -0.6251
 5709TIP3    H238619   5.909   4.633  15.943 -0.3238  0.3435 -0.6402
 5710TIP3   OH238620   5.719   4.168  16.093 -0.1458  0.2623  0.4437
 5710TIP3    H138621   5.677   4.227  16.030 -0.4674 -0.7413 -0.3000
 5710TIP3    H238622   5.808   4.157  16.061 -0.0838  0.3514  0.5853
 5711TIP3   OH238623   2.177   6.294   5.152 -0.1842 -0.3665 -0.0950
 5711TIP3    H138624   2.106   6.233   5.133  1.5252 -2.4858 -0.0377
 5711TIP3    H238625   2.197   6.281   5.244  0.6921 -0.2726 -0.2588
 5712TIP3   OH238626   4.579   1.119   3.017  0.7008  0.2955  0.6494
 5712TIP3    H138627   4.552   1.125   2.925  0.6973 -1.9130  0.4554
 5712TIP3    H238628   4.565   1.207   3.051 -2.3334  0.4630 -0.6404
 5713TIP3   OH238629   6.776   4.486  16.319  0.2666 -0.1292  0.0532
 5713TIP3    H138630   6.700   4.453  16.271  1.3998 -0.2451 -1.7808
 5713TIP3    H238631   6.800   4.415  16.378 -0.0650 -0.7569 -0.5525
 5714TIP3   OH238632   0.781   6.487   5.321  0.1768  0.8602 -0.0300
 5714TIP3    H138633   0.774   6.582   5.312 -1.6599  0.7050 -0.6778
 5714TIP3    H238634   0.848   6.461   5.257  0.6252  1.6833  0.0887
 5715TIP3   OH238635   5.154   2.911  15.736  0.0235 -0.2475  0.2315
 5715TIP3    H138636   5.190   2.971  15.671 -1.8981  0.1605 -0.4998
 5715TIP3    H238637   5.080   2.869  15.692  0.7779 -2.5592  1.0032
 5716TIP3   OH238638   0.826   4.376  12.070 -0.3880  0.4736  0.0165
 5716TIP3    H138639   0.824   4.472  12.065  1.0336  0.6296  1.4836
 5716TIP3    H238640   0.794   4.356  12.158 -1.6122 -0.4856 -0.6165
 5717TIP3   OH238641   1.610   2.612  11.443  0.1711  0.0367 -0.3365
 5717TIP3    H138642   1.525   2.573  11.422  0.0840 -0.5558  1.0339
 5717TIP3    H238643   1.668   2.538  11.458  0.4708  0.4253  0.4880
 5718TIP3   OH238644   6.520   2.772  13.984  0.7621  0.3981 -0.4783
 5718TIP3    H138645   6.487   2.793  14.072 -1.0293 -1.3986 -0.6295
 5718TIP3    H238646   6.600   2.722  14.000  1.5163  1.7215  0.0360
 5719TIP3   OH238647   4.828   4.665  14.886 -0.1172  0.0056  0.1490
 5719TIP3    H138648   4.859   4.604  14.819 -1.2554 -0.1394 -0.2785
 5719TIP3    H238649   4.736   4.641  14.900 -0.5965  1.5698 -0.0134
 5720TIP3   OH238650   4.485   1.370  15.042 -0.1463 -0.6933 -0.1304
 5720TIP3    H138651   4.417   1.340  15.102 -0.9182  2.7998  0.9518
 5720TIP3    H238652   4.566   1.362  15.092 -0.6201  0.9181  0.9862
 5721TIP3   OH238653   1.349   6.429  17.083 -0.3677  0.3710  0.4993
 5721TIP3    H138654   1.407   6.410  17.157  0.2151 -0.1961 -0.0911
 5721TIP3    H238655   1.370   6.361  17.019 -1.0174  0.7333 -0.1015
 5722TIP3   OH238656   1.961   5.528   5.763  0.5183 -0.7967 -0.3343
 5722TIP3    H138657   2.054   5.503   5.768  0.4287 -0.7940  2.1038
 5722TIP3    H238658   1.935   5.543   5.853 -1.3472  1.2389 -1.1247
 5723TIP3   OH238659   5.883   5.382   2.014 -0.0585  0.1205 -0.6764
 5723TIP3    H138660   5.819   5.403   1.945  0.8872 -0.5157 -1.7888
 5723TIP3    H238661   5.881   5.286   2.020  0.2908  0.1405 -0.2127
 5724TIP3   OH238662   5.662   4.954  14.105 -0.3722 -0.8291  1.0967
 5724TIP3    H138663   5.578   4.923  14.071 -0.7446  1.6929 -0.5691
 5724TIP3    H238664   5.721   4.953  14.030 -0.0301  0.9860  1.2829
 5725TIP3   OH238665   5.815   2.285  12.930  0.4994 -0.3396 -0.1360
 5725TIP3    H138666   5.880   2.317  12.867  0.6838 -0.5274 -0.0433
 5725TIP3    H238667   5.731   2.316  12.896  0.8309  1.9681  0.9779
 5726TIP3   OH238668   3.713   2.281   4.613  0.6342  0.5322 -0.6313
 5726TIP3    H138669   3.792   2.236   4.644 -0.5853 -0.1675  1.6652
 5726TIP3    H238670   3.727   2.373   4.634  2.2464  1.0556 -3.4521
 5727TIP3   OH238671   1.545   6.354   2.394  0.0324 -0.0885  0.5500
 5727TIP3    H138672   1.503   6.426   2.348 -1.2253 -0.2994  1.2955
 5727TIP3    H238673   1.597   6.395   2.462 -0.2043  0.1394  0.5939
 5728TIP3   OH238674   0.205   1.414   5.739  0.2289 -0.4163 -0.2037
 5728TIP3    H138675   0.170   1.393   5.826 -1.7303 -0.8465 -1.0620
 5728TIP3    H238676   0.280   1.355   5.729  0.5969 -0.2432  1.2419
 5729TIP3   OH238677   1.567   0.530  15.499 -0.0806 -0.0457  0.4111
 5729TIP3    H138678   1.650   0.571  15.524 -0.9752  1.3819  1.2200
 5729TIP3    H238679   1.588   0.438  15.488  1.3740  0.0701  1.7750
 5730TIP3   OH238680   6.431   2.408   0.452 -0.4094  0.5923  0.1807
 5730TIP3    H138681   6.522   2.431   0.436  0.2886 -1.0168  1.4632
 5730TIP3    H238682   6.390   2.407   0.366  1.5410 -1.5032 -0.8182
 5731TIP3   OH238683   2.272   6.022   2.849  0.1242  0.8721 -0.0065
 5731TIP3    H138684   2.288   6.019   2.944 -0.6372 -0.0062  0.1014
 5731TIP3    H238685   2.235   6.109   2.835  1.4612  1.5249  0.2866
 5732TIP3   OH238686   0.992   3.973   1.334 -0.4844  0.0917  0.2128
 5732TIP3    H138687   0.929   4.042   1.314  0.1516  0.9256  1.0095
 5732TIP3    H238688   0.949   3.919   1.400  0.0086  1.2837  1.5638
 5733TIP3   OH238689   4.666   2.092  15.525 -0.7754  0.2497 -0.0029
 5733TIP3    H138690   4.625   2.178  15.512 -3.2258 -0.8380  0.0534
 5733TIP3    H238691   4.739   2.091  15.462 -0.4193  2.4974  0.3004
 5734TIP3   OH238692   6.276   5.439   3.873 -0.0486 -0.4289 -0.2928
 5734TIP3    H138693   6.193   5.486   3.885 -0.9402 -1.4407 -2.1245
 5734TIP3    H238694   6.254   5.365   3.816  2.4501  0.3650 -2.5056
 5735TIP3   OH238695   3.862   4.318   4.645 -0.6374  0.1879  1.0011
 5735TIP3    H138696   3.892   4.306   4.736 -2.6954 -0.0025  1.7040
 5735TIP3    H238697   3.864   4.230   4.608  0.6467  0.3302  0.6830
 5736TIP3   OH238698   0.602   3.001  16.328  0.3742  0.2391  0.4955
 5736TIP3    H138699   0.629   3.005  16.420 -0.3947  3.1682  0.7163
 5736TIP3    H238700   0.681   2.978  16.281  1.6210  1.8038  1.6842
 5737TIP3   OH238701   2.779   0.470  15.488 -0.1881 -0.4973  0.0792
 5737TIP3    H138702   2.779   0.473  15.583  0.7624 -0.5391  0.0842
 5737TIP3    H238703   2.698   0.515  15.463 -0.2048 -0.0561  0.8897
 5738TIP3   OH238704   5.402   3.420   3.927 -0.2302 -0.0020  0.0277
 5738TIP3    H138705   5.340   3.489   3.951 -2.0343 -1.2562 -0.8116
 5738TIP3    H238706   5.427   3.381   4.010 -0.2786  0.7439  0.4080
 5739TIP3   OH238707   4.442   0.761  16.063  0.1051 -0.9015  0.1281
 5739TIP3    H138708   4.354   0.743  16.097 -0.2912  2.2012  1.0114
 5739TIP3    H238709   4.430   0.769  15.968 -0.1906 -2.0888  0.0402
 5740TIP3   OH238710   0.308   5.835  11.700  0.3962 -0.6068 -0.3141
 5740TIP3    H138711   0.285   5.743  11.695  2.0490 -1.0207 -0.9380
 5740TIP3    H238712   0.238   5.875  11.752 -2.2150 -1.5498 -2.8521
 5741TIP3   OH238713   2.113   5.000  14.014  0.3653 -0.2924 -0.3089
 5741TIP3    H138714   2.149   5.086  13.992 -0.3538 -0.0969 -0.7525
 5741TIP3    H238715   2.163   4.971  14.090  1.2801  0.0823 -0.7577
 5742TIP3   OH238716   5.850   0.326   2.541 -0.5122  0.1550  0.2503
 5742TIP3    H138717   5.930   0.362   2.579 -0.1286  0.8093 -1.0930
 5742TIP3    H238718   5.779   0.380   2.576 -0.2602  0.2286  0.6462
 5743TIP3   OH238719   5.547   4.497  16.937  0.1653 -0.6768  0.5122
 5743TIP3    H138720   5.543   4.416  16.885 -2.5460 -0.2066 -0.1972
 5743TIP3    H238721   5.539   4.567  16.872  2.1372  0.2063  1.1544
 5744TIP3   OH238722   1.782   0.200   3.790  0.6210  0.7709  0.2668
 5744TIP3    H138723   1.781   0.293   3.811  1.6100  0.7811  0.3377
 5744TIP3    H238724   1.690   0.175   3.786  0.3380  1.8431 -0.1855
 5745TIP3   OH238725   6.591   4.896   3.330  0.3623  0.1883 -0.2501
 5745TIP3    H138726   6.545   4.867   3.251  0.6802  0.8976 -0.7094
 5745TIP3    H238727   6.583   4.991   3.328 -0.6619  0.1627  1.2182
 5746TIP3   OH238728   2.243   3.762   4.917 -0.0194  0.0431  0.1379
 5746TIP3    H138729   2.159   3.751   4.960  0.6941 -1.3390  1.2574
 5746TIP3    H238730   2.298   3.805   4.983  0.7532 -1.0322  0.2251
 5747TIP3   OH238731   3.769   4.123  11.325 -0.3120 -0.0118 -0.1767
 5747TIP3    H138732   3.799   4.214  11.329 -0.4373  0.0955 -1.4149
 5747TIP3    H238733   3.841   4.073  11.363  0.5791  0.4319 -1.2425
 5748TIP3   OH238734   0.157   0.476  17.190 -0.0973  0.3212  0.2692
 5748TIP3    H138735   0.226   0.492  17.255 -0.1502  0.9783  0.1757
 5748TIP3    H238736   0.199   0.424  17.122  0.3764  0.9321  0.0898
 5749TIP3   OH238737   1.950   0.878  16.173 -0.6537 -0.5459  0.1210
 5749TIP3    H138738   2.045   0.871  16.174 -0.7278 -1.8418  0.0899
 5749TIP3    H238739   1.924   0.831  16.093 -1.5008 -3.4146  1.9491
 5750TIP3   OH238740   5.422   5.135   4.638 -0.3538 -0.0457  0.3190
 5750TIP3    H138741   5.492   5.082   4.599 -0.6185  0.0912 -0.3719
 5750TIP3    H238742   5.341   5.090   4.612 -0.5356  0.0633  0.7010
 5751TIP3   OH238743   2.732   3.823   3.468 -0.7876  0.4694 -0.4398
 5751TIP3    H138744   2.685   3.754   3.421  0.1561 -0.5961  0.1334
 5751TIP3    H238745   2.819   3.824   3.429  0.0061 -0.4082  1.2058
 5752TIP3   OH238746   3.936   4.008  13.830 -0.3967 -0.3185  0.2646
 5752TIP3    H138747   3.927   3.915  13.810  1.7730 -0.7730  1.0666
 5752TIP3    H238748   3.946   4.051  13.745 -2.9012 -0.5576 -0.2137
 5753TIP3   OH238749   1.038   0.508   5.294  0.5522 -0.7008 -0.0166
 5753TIP3    H138750   0.990   0.587   5.319  0.1849 -0.4634 -1.4103
 5753TIP3    H238751   1.103   0.538   5.231  1.2476 -1.3282  0.3839
 5754TIP3   OH238752   2.883   4.883   6.063  0.5267 -0.1722 -0.4373
 5754TIP3    H138753   2.932   4.926   6.133  1.6498  0.7202 -1.7170
 5754TIP3    H238754   2.951   4.851   6.003 -0.4263  0.9399 -2.1724
 5755TIP3   OH238755   2.900   4.378   1.507  0.2998 -0.0859  0.2260
 5755TIP3    H138756   2.918   4.290   1.471 -1.1245 -0.3956  0.2050
 5755TIP3    H238757   2.973   4.431   1.476  0.1370 -0.7955 -1.5447
 5756TIP3   OH238758   3.424   5.224  13.728 -0.4350  0.1022  0.4342
 5756TIP3    H138759   3.511   5.264  13.736 -1.1253  1.9817 -0.8582
 5756TIP3    H238760   3.393   5.214  13.818  0.7143  0.2853  0.8700
 5757TIP3   OH238761   4.525   6.045  13.902 -0.3408 -0.0639 -0.2303
 5757TIP3    H138762   4.542   5.974  13.964  0.8391  1.0569  0.7810
 5757TIP3    H238763   4.565   6.016  13.820 -0.4307 -0.8377 -0.0052
 5758TIP3   OH238764   4.944   3.764  12.155 -0.6315  0.0280  0.0746
 5758TIP3    H138765   4.872   3.720  12.200 -1.1770  1.5331  0.7691
 5758TIP3    H238766   4.905   3.799  12.075  0.2570 -2.3439 -1.4999
 5759TIP3   OH238767   5.953   1.680   0.410 -0.3362  0.0559  0.0295
 5759TIP3    H138768   5.999   1.751   0.366  0.8403 -2.1862 -2.7060
 5759TIP3    H238769   6.017   1.644   0.471  0.7852 -1.4078 -1.8901
 5760TIP3   OH238770   5.273   2.009  12.620  0.0399  0.5759 -0.4237
 5760TIP3    H138771   5.291   1.986  12.529 -0.8715  0.7404 -0.6600
 5760TIP3    H238772   5.255   1.925  12.663  1.5528  0.3773 -0.1152
 5761TIP3   OH238773   0.686   1.906   4.872  0.7519 -0.5417  0.0012
 5761TIP3    H138774   0.757   1.885   4.811  0.7381 -0.6558  0.0259
 5761TIP3    H238775   0.637   1.825   4.882 -1.2590  0.2532 -2.4051
 5762TIP3   OH238776   4.275   4.224  12.968 -0.0202  0.4427  0.2769
 5762TIP3    H138777   4.179   4.230  12.959 -0.0690 -0.9620 -0.3416
 5762TIP3    H238778   4.291   4.248  13.059 -1.0351 -0.0111  0.5951
 5763TIP3   OH238779   5.478   6.549  16.431 -0.0747 -0.0043  0.6520
 5763TIP3    H138780   5.438   6.464  16.411  0.3242 -0.2860  1.0538
 5763TIP3    H238781   5.405   6.611  16.426 -0.3291 -0.3363  0.1536
 5764TIP3   OH238782   6.179   2.784  12.620 -0.6104 -0.0093 -0.0708
 5764TIP3    H138783   6.189   2.712  12.681 -0.7914 -0.2913 -0.3687
 5764TIP3    H238784   6.140   2.744  12.542 -1.1193  0.4875 -0.0812
 5765TIP3   OH238785   0.214   6.311   0.248 -0.1517 -0.5098  0.2267
 5765TIP3    H138786   0.130   6.355   0.239  0.1096  0.8518  3.2572
 5765TIP3    H238787   0.246   6.299   0.158 -2.1011  1.7999 -0.8532
 5766TIP3   OH238788   1.233   3.053  10.554 -0.1180 -0.1382  0.0686
 5766TIP3    H138789   1.161   3.005  10.596 -0.0941  0.6059  0.9773
 5766TIP3    H238790   1.303   3.054  10.620 -0.3367  1.6676  0.3129
 5767TIP3   OH238791   2.535   6.399   2.794  0.0013  0.3532 -0.0644
 5767TIP3    H138792   2.460   6.453   2.820 -0.7808 -0.1469 -1.2289
 5767TIP3    H238793   2.498   6.329   2.742  0.7934 -2.2108  2.5421
 5768TIP3   OH238794   2.044   6.392   1.173  0.3719 -0.4495  0.8333
 5768TIP3    H138795   1.960   6.431   1.148  1.1148  1.4853  1.2282
 5768TIP3    H238796   2.069   6.340   1.097  0.7389  2.2517 -1.0381
 5769TIP3   OH238797   5.236   4.860  14.703 -0.1303 -0.1077 -0.7951
 5769TIP3    H138798   5.286   4.796  14.653  0.7377  0.1427 -0.2673
 5769TIP3    H238799   5.287   4.941  14.697  0.4022 -0.2506  1.0900
 5770TIP3   OH238800   1.142   5.784  13.333  0.2199 -0.3450  0.2156
 5770TIP3    H138801   1.053   5.752  13.318  0.5857 -1.5349  0.4330
 5770TIP3    H238802   1.196   5.705  13.328  1.3863  0.4995 -0.8420
 5771TIP3   OH238803   3.056   3.282   4.659 -0.5610  0.4783 -0.2518
 5771TIP3    H138804   3.034   3.238   4.577  1.4654 -1.2608  0.0379
 5771TIP3    H238805   3.074   3.210   4.720  1.8929  1.6766  0.5462
 5772TIP3   OH238806   2.661   0.997  17.161  0.3980  0.1054  0.9308
 5772TIP3    H138807   2.672   0.946  17.242 -0.9878 -0.9972  0.4549
 5772TIP3    H238808   2.725   1.068  17.169  1.1229 -0.6672  2.4448
 5773TIP3   OH238809   3.927   4.918   3.796 -0.1819 -0.0536  0.6520
 5773TIP3    H138810   3.854   4.973   3.767 -1.0007 -1.3355  0.2012
 5773TIP3    H238811   3.960   4.878   3.715  0.8537  0.2719  0.8890
 5774TIP3   OH238812   3.791   6.045  14.270  0.1969 -0.1650 -0.0619
 5774TIP3    H138813   3.721   6.000  14.317  1.0723  0.0182  1.4684
 5774TIP3    H238814   3.748   6.119  14.227 -0.6973 -0.5802  0.1007
 5775TIP3   OH238815   3.920   1.713   4.485  0.5650 -0.5249 -0.3014
 5775TIP3    H138816   3.836   1.758   4.490  1.2719  0.8155 -0.1163
 5775TIP3    H238817   3.929   1.687   4.393  0.1981 -0.1877 -0.4296
 5776TIP3   OH238818   2.285   6.737  10.862 -0.2747 -0.0481 -0.1671
 5776TIP3    H138819   2.205   6.721  10.912  0.4835 -1.1397  0.7679
 5776TIP3    H238820   2.255   6.753  10.773 -1.6634  1.8584  0.5680
 5777TIP3   OH238821   4.525   0.213   2.607  0.4076  0.2630  0.0687
 5777TIP3    H138822   4.477   0.130   2.600 -1.3225  1.2473 -0.4555
 5777TIP3    H238823   4.456   0.280   2.613  1.7507  1.6419  0.9671
 5778TIP3   OH238824   3.031   2.763   5.755  0.3470 -0.0052 -0.3289
 5778TIP3    H138825   3.096   2.766   5.684 -0.2929  0.2476 -0.9254
 5778TIP3    H238826   2.946   2.766   5.709 -0.1010 -1.0439  0.3947
 5779TIP3   OH238827   1.859   4.095  12.183  0.3714 -0.0804 -0.0056
 5779TIP3    H138828   1.849   4.191  12.182 -0.7185 -0.1827 -0.5658
 5779TIP3    H238829   1.953   4.081  12.197  0.8072  1.1014 -1.4327
 5780TIP3   OH238830   3.708   6.705  12.552  0.0887  0.0191 -0.1132
 5780TIP3    H138831   3.795   6.743  12.546 -0.2143  0.6847 -0.3801
 5780TIP3    H238832   3.674   6.707  12.463 -0.2319 -0.1595  0.0005
 5781TIP3   OH238833   0.687   1.777   0.585  0.7659 -0.3196 -0.4071
 5781TIP3    H138834   0.710   1.763   0.676 -0.3071 -1.2922 -0.2554
 5781TIP3    H238835   0.694   1.690   0.545 -0.8512 -0.3323 -0.7321
 5782TIP3   OH238836   4.373   2.861  12.909 -0.4737 -0.0539 -0.6127
 5782TIP3    H138837   4.396   2.806  12.834 -0.5043 -2.3502  0.9406
 5782TIP3    H238838   4.289   2.900  12.886 -0.5731 -0.8663 -1.6969
 5783TIP3   OH238839   1.639   3.104   4.566  0.8023  0.8421 -0.0552
 5783TIP3    H138840   1.729   3.103   4.598  0.4345 -0.2174  0.9898
 5783TIP3    H238841   1.646   3.145   4.480  2.4878 -0.3922 -0.5811
 5784TIP3   OH238842   5.349   2.323  16.112 -0.2694 -0.1618 -0.2061
 5784TIP3    H138843   5.347   2.302  16.018  0.0166 -0.1189 -0.2235
 5784TIP3    H238844   5.373   2.241  16.154  1.7888  0.3104 -0.3540
 5785TIP3   OH238845   3.067   6.685   5.975  0.1738  0.6573  0.3502
 5785TIP3    H138846   3.007   6.642   5.914  1.6045  1.2267 -1.5761
 5785TIP3    H238847   3.077   6.622   6.047 -1.2321 -0.2442 -0.1930
 5786TIP3   OH238848   6.322   2.879  16.265  0.4532  0.1229  0.8629
 5786TIP3    H138849   6.384   2.822  16.220  0.2088  0.4627  0.0928
 5786TIP3    H238850   6.237   2.834  16.255  0.3556  0.3304  0.7562
 5787TIP3   OH238851   4.865   2.642   2.691  0.2766  0.2224 -0.3916
 5787TIP3    H138852   4.796   2.695   2.730  0.0175 -0.1554 -0.3300
 5787TIP3    H238853   4.907   2.700   2.626 -0.3781  0.3124 -0.7362
 5788TIP3   OH238854   3.162   3.869  13.753  0.4956  0.6225  0.2527
 5788TIP3    H138855   3.144   3.850  13.660 -2.4138 -3.6913  1.3827
 5788TIP3    H238856   3.257   3.875  13.758  0.9498 -1.6018 -2.7286
 5789TIP3   OH238857   2.468   1.124   3.195 -0.0561  0.3820 -0.2395
 5789TIP3    H138858   2.557   1.126   3.159 -0.7263  2.6121 -2.0591
 5789TIP3    H238859   2.418   1.073   3.131 -0.2035 -0.5716  0.6035
 5790TIP3   OH238860   2.414   3.769  11.924 -0.3652 -0.1405 -0.6596
 5790TIP3    H138861   2.355   3.756  11.999  1.0061 -0.2361  0.4347
 5790TIP3    H238862   2.405   3.861  11.902 -2.0482 -0.4642 -1.5055
 5791TIP3   OH238863   5.598   1.867  11.038 -1.0848 -0.6566 -0.0918
 5791TIP3    H138864   5.612   1.852  10.945 -2.1515 -1.7359 -0.1072
 5791TIP3    H238865   5.660   1.807  11.081  0.1554  0.5901 -0.0654
 5792TIP3   OH238866   6.463   5.045  13.577  0.5941 -0.2170  0.9300
 5792TIP3    H138867   6.406   5.019  13.505  1.8408 -2.2969  0.6347
 5792TIP3    H238868   6.425   5.003  13.655  1.7771 -1.7942  0.6973
 5793TIP3   OH238869   1.518   3.881  15.024  0.3883 -0.1295  0.6217
 5793TIP3    H138870   1.472   3.901  15.106  0.2510  0.0563  0.4999
 5793TIP3    H238871   1.600   3.930  15.030  0.0784  0.4315  0.3487
 5794TIP3   OH238872   0.699   5.618   3.417 -0.0716  0.2654  0.6848
 5794TIP3    H138873   0.712   5.670   3.496  0.1419 -0.3467  1.0605
 5794TIP3    H238874   0.605   5.624   3.399 -0.2957 -0.4206  1.5777
 5795TIP3   OH238875   2.584   6.095   2.122  0.2333  0.1997  0.6804
 5795TIP3    H138876   2.544   6.162   2.177  0.1287  0.2194  0.5804
 5795TIP3    H238877   2.581   6.015   2.176 -0.5288  0.0539  0.4257
 5796TIP3   OH238878   4.990   4.760   2.832 -0.0896  0.0068  0.2618
 5796TIP3    H138879   5.006   4.678   2.879  0.0611 -0.6186 -0.8356
 5796TIP3    H238880   5.016   4.829   2.893 -0.7869 -0.7317  1.4329
 5797TIP3   OH238881   6.587   2.030   1.049 -0.5187  0.0264 -0.1832
 5797TIP3    H138882   6.575   2.077   0.967  2.0985 -0.3371 -0.8534
 5797TIP3    H238883   6.525   1.957   1.044  0.1313 -0.4483 -2.2203
 5798TIP3   OH238884   6.459   3.866   3.436 -0.7271  0.9271 -0.3699
 5798TIP3    H138885   6.507   3.948   3.426 -0.8518  1.1240  0.5114
 5798TIP3    H238886   6.413   3.875   3.520  2.1229 -1.4774  1.6698
 5799TIP3   OH238887   5.007   2.184   0.418 -0.4281 -0.0201  0.3200
 5799TIP3    H138888   4.934   2.218   0.471 -0.5908  0.4744 -0.2105
 5799TIP3    H238889   5.013   2.092   0.442 -1.4998 -0.1686  0.0868
 5800TIP3   OH238890   4.348   4.163   0.697  0.3849 -0.1741 -0.7603
 5800TIP3    H138891   4.358   4.258   0.706  0.3520  0.0479 -2.6418
 5800TIP3    H238892   4.254   4.148   0.705  0.5217 -0.2487  0.9578
 5801TIP3   OH238893   3.670   0.163   3.397  0.0090  0.5051 -0.3882
 5801TIP3    H138894   3.614   0.190   3.324  1.9139 -0.8085 -2.5209
 5801TIP3    H238895   3.617   0.100   3.446 -0.7454  0.0232 -1.7537
 5802TIP3   OH238896   1.712   0.795  17.134 -0.2761 -0.0175  0.0544
 5802TIP3    H138897   1.726   0.806  17.228 -1.3473 -1.1509  0.3849
 5802TIP3    H238898   1.738   0.704  17.116 -0.0368  0.1981 -0.7488
 5803TIP3   OH238899   4.102   4.975  12.618  0.7989  0.2832 -0.1552
 5803TIP3    H138900   4.182   4.949  12.663  0.5517 -0.4620 -0.1405
 5803TIP3    H238901   4.073   4.896  12.572 -0.1304  0.4439  0.1375
 5804TIP3   OH238902   4.481   4.930  15.726  0.6366 -0.4977  0.5386
 5804TIP3    H138903   4.566   4.886  15.727  0.3571 -1.0644  0.1832
 5804TIP3    H238904   4.492   5.005  15.784  1.9296  0.4973 -0.9066
 5805TIP3   OH238905   0.988   3.575  11.905  0.3240  0.7300  0.3471
 5805TIP3    H138906   1.082   3.577  11.922  0.6144  0.1582 -1.0502
 5805TIP3    H238907   0.959   3.666  11.917  1.3343  1.1938 -0.6066
 5806TIP3   OH238908   1.327   2.605  11.891  0.2664 -0.0661  0.2717
 5806TIP3    H138909   1.382   2.642  11.823  0.0463 -0.0134  0.1194
 5806TIP3    H238910   1.382   2.540  11.935 -0.1248 -1.3543 -1.0595
 5807TIP3   OH238911   4.561   1.203  13.402  0.5658 -0.0830  0.0796
 5807TIP3    H138912   4.608   1.194  13.485  0.0324  1.7144  0.6115
 5807TIP3    H238913   4.520   1.289  13.407 -0.0426 -0.2327 -1.7748
 5808TIP3   OH238914   2.950   3.532  12.837  0.6988  0.1525  0.0009
 5808TIP3    H138915   3.010   3.607  12.830 -0.1764  0.9503  0.8182
 5808TIP3    H238916   2.879   3.552  12.777  1.3400 -0.9365 -1.1914
 5809TIP3   OH238917   4.089   5.827  14.066  0.4234 -0.1375  0.6430
 5809TIP3    H138918   4.118   5.891  14.131  0.3475 -1.3110  1.8714
 5809TIP3    H238919   4.029   5.769  14.114 -1.6145  0.4208 -1.0778
 5810TIP3   OH238920   1.132   5.624   3.855 -0.6076  0.2485  0.1160
 5810TIP3    H138921   1.112   5.541   3.898 -0.7121  0.0729 -0.2602
 5810TIP3    H238922   1.156   5.599   3.765 -0.1702  0.5821  0.1317
 5811TIP3   OH238923   6.297   0.154  12.231 -0.4156 -0.5880 -0.0171
 5811TIP3    H138924   6.216   0.148  12.180 -0.1911 -2.9687 -0.2424
 5811TIP3    H238925   6.358   0.094  12.186  0.1167 -2.0003  2.3960
 5812TIP3   OH238926   4.861   5.813   5.046  0.1643 -0.2403 -0.2037
 5812TIP3    H138927   4.953   5.788   5.034  0.3642 -0.3598  1.2776
 5812TIP3    H238928   4.844   5.795   5.139 -1.5898 -0.9486 -0.6167
 5813TIP3   OH238929   1.634   3.052   2.641  0.4941 -0.3795 -0.2912
 5813TIP3    H138930   1.717   3.087   2.674 -0.3512  0.9531  0.5088
 5813TIP3    H238931   1.572   3.066   2.713 -0.8607  0.3602 -1.5498
 5814TIP3   OH238932   2.585   2.187   1.603  0.4767 -0.3110  0.1612
 5814TIP3    H138933   2.581   2.169   1.696 -0.5142  0.7343  0.3544
 5814TIP3    H238934   2.574   2.102   1.561 -0.4127 -0.6374  1.0102
 5815TIP3   OH238935   1.783   5.354  13.225  0.8132 -0.4705 -0.3297
 5815TIP3    H138936   1.740   5.404  13.295  1.4979 -0.1677 -0.1143
 5815TIP3    H238937   1.718   5.352  13.155  0.3270 -0.2900  0.1006
 5816TIP3   OH238938   1.547   5.999   4.446  0.5066 -0.6052  0.6190
 5816TIP3    H138939   1.526   6.078   4.397  0.4112 -0.6781  0.5408
 5816TIP3    H238940   1.577   6.030   4.531  1.1696 -0.4618  0.3333
 5817TIP3   OH238941   2.540   5.966   4.354  0.7172  0.2785 -0.4388
 5817TIP3    H138942   2.480   6.008   4.292 -0.2913  0.7419  0.8082
 5817TIP3    H238943   2.585   5.899   4.302  2.2168  2.6738 -2.4228
 5818TIP3   OH238944   3.358   0.238  11.805 -0.0327  0.1440 -0.0548
 5818TIP3    H138945   3.296   0.182  11.853  0.6037 -0.4388  0.0990
 5818TIP3    H238946   3.339   0.327  11.837  0.0114 -0.1728  0.8776
 5819TIP3   OH238947   2.618   2.382  12.102 -0.2295 -0.6518 -0.0220
 5819TIP3    H138948   2.628   2.475  12.080  0.1227 -0.6184  0.2748
 5819TIP3    H238949   2.551   2.381  12.171  1.9907 -0.2956  2.2602
 5820TIP3   OH238950   3.405   4.701  10.598  0.1506  0.0577  0.2934
 5820TIP3    H138951   3.337   4.751  10.554 -1.3287 -0.2236  2.1358
 5820TIP3    H238952   3.398   4.726  10.690 -0.8147 -3.5621  1.3711
 5821TIP3   OH238953   1.633   1.649  15.079  0.5230 -0.1551 -0.2090
 5821TIP3    H138954   1.557   1.625  15.132  0.3269  3.5336  1.5507
 5821TIP3    H238955   1.595   1.688  15.000  0.5820  0.4032  0.0306
 5822TIP3   OH238956   4.922   1.155  13.387  0.3792 -0.2306 -0.0710
 5822TIP3    H138957   4.921   1.237  13.337  0.0254 -0.7677 -0.9650
 5822TIP3    H238958   5.014   1.136  13.400  0.4759 -0.1660 -0.6559
 5823TIP3   OH238959   0.147   3.251   3.243 -0.1420 -0.0612  0.0130
 5823TIP3    H138960   0.200   3.197   3.302 -0.1261  0.0866  0.1339
 5823TIP3    H238961   0.202   3.327   3.223 -1.2095  1.3836  2.1535
 5824TIP3   OH238962   0.037   6.039  11.458  0.0190 -0.5408 -0.2760
 5824TIP3    H138963   0.026   5.946  11.473  0.6889 -0.8780 -1.6609
 5824TIP3    H238964  -0.043   6.067  11.414  1.1323 -1.2351 -2.9307
 5825TIP3   OH238965   5.929   6.475  16.490 -0.0752 -0.8242 -0.2480
 5825TIP3    H138966   5.943   6.491  16.584  0.6518 -2.6142 -0.0183
 5825TIP3    H238967   5.989   6.535  16.447 -1.2888  0.9111  0.3501
 5826TIP3   OH238968   2.793   4.992   5.587  0.3015 -0.4975 -0.3035
 5826TIP3    H138969   2.809   5.078   5.625  0.1058 -0.4660 -0.2887
 5826TIP3    H238970   2.717   4.958   5.635  1.5407 -1.4945  1.0239
 5827TIP3   OH238971   0.699   3.303   1.999 -0.2020 -0.3202  0.1284
 5827TIP3    H138972   0.734   3.267   2.081  0.0321 -2.8168 -0.9794
 5827TIP3    H238973   0.620   3.252   1.982 -0.4501  0.4107 -1.0149
 5828TIP3   OH238974   1.994   1.599   2.816 -0.4735  0.4126  0.1843
 5828TIP3    H138975   1.945   1.589   2.735  1.4903  0.2947 -1.0470
 5828TIP3    H238976   1.927   1.599   2.885 -2.1838  0.4741 -1.4052
 5829TIP3   OH238977   0.704   4.828  16.582 -1.0275  0.4516 -0.1415
 5829TIP3    H138978   0.732   4.794  16.666 -0.3441 -0.7337 -0.8197
 5829TIP3    H238979   0.773   4.888  16.555 -0.7757  0.1022 -0.2818
 5830TIP3   OH238980   2.784   3.402  15.149  0.4376  0.0996 -0.2504
 5830TIP3    H138981   2.782   3.329  15.210  2.2267 -0.5699 -0.9353
 5830TIP3    H238982   2.770   3.479  15.204 -2.4511 -0.7397  0.3566
 5831TIP3   OH238983   4.697   3.849  16.832 -0.2190 -0.4845 -0.1516
 5831TIP3    H138984   4.724   3.761  16.856  3.0042  0.4576  0.1640
 5831TIP3    H238985   4.763   3.878  16.768 -0.0680  2.2801  1.1103
 5832TIP3   OH238986   2.569   0.549  15.360  0.4261 -0.0949 -0.0762
 5832TIP3    H138987   2.528   0.633  15.379 -0.1022 -0.1268 -1.0096
 5832TIP3    H238988   2.505   0.503  15.306  0.6344 -1.1736  0.5704
 5833TIP3   OH238989   4.549   1.154   3.900  0.2793  0.6720 -0.1865
 5833TIP3    H138990   4.503   1.236   3.882 -1.2111  0.3768  1.8243
 5833TIP3    H238991   4.517   1.093   3.834 -0.5296  1.0927 -0.1943
 5834TIP3   OH238992   0.970   4.604  15.967  0.4213  0.1385 -0.1494
 5834TIP3    H138993   0.882   4.622  16.000 -0.5595 -0.4416 -2.2559
 5834TIP3    H238994   0.964   4.516  15.930  1.9713 -0.0151 -0.0887
 5835TIP3   OH238995   5.990   1.725  13.509 -0.9825 -0.1384 -0.1965
 5835TIP3    H138996   6.076   1.759  13.531 -1.1433 -0.0671  0.3239
 5835TIP3    H238997   5.942   1.723  13.592 -0.4942 -3.0308  0.1364
 5836TIP3   OH238998   4.267   3.870  16.265  0.5429 -0.0521  0.7514
 5836TIP3    H138999   4.175   3.843  16.267  0.1029  1.4390  2.3870
 5836TIP3    H239000   4.283   3.894  16.174 -0.4772 -0.9496  0.3115
 5837TIP3   OH239001   1.223   0.004  13.373  0.0744 -0.3514 -0.5005
 5837TIP3    H139002   1.186  -0.071  13.419 -2.5891  0.5867 -0.9167
 5837TIP3    H239003   1.291  -0.033  13.317  0.6307 -2.0550  1.2017
 5838TIP3   OH239004   6.786   3.178  13.925 -0.1797 -0.3425  0.0656
 5838TIP3    H139005   6.721   3.218  13.983 -0.9842 -0.5129 -0.6941
 5838TIP3    H239006   6.744   3.098  13.894  0.6050 -0.7213 -0.0452
 5839TIP3   OH239007   4.766   0.221  16.600  0.3808  0.4115 -0.6248
 5839TIP3    H139008   4.785   0.254  16.688  0.4451  0.0395 -0.4981
 5839TIP3    H239009   4.735   0.298  16.552  2.5276  1.1453 -0.9394
 5840TIP3   OH239010   0.487   5.940   1.333  0.7837  0.8883 -0.3754
 5840TIP3    H139011   0.480   5.869   1.397  0.6985  2.1387  1.0558
 5840TIP3    H239012   0.409   5.993   1.347  0.8764  1.3253 -1.3787
 5841TIP3   OH239013   6.636   1.421   2.113  0.3047 -0.1388 -0.1193
 5841TIP3    H139014   6.656   1.433   2.020 -1.7714  3.0024 -0.3416
 5841TIP3    H239015   6.560   1.363   2.113 -0.5648  0.9576 -0.5564
 5842TIP3   OH239016   3.179   1.773   2.911 -0.2399  0.4407 -0.5374
 5842TIP3    H139017   3.105   1.818   2.870 -1.2129 -0.9968 -0.4476
 5842TIP3    H239018   3.152   1.760   3.002  0.9206  1.5134 -0.0088
 5843TIP3   OH239019   0.048   3.523  15.151 -0.3750  0.1874  0.9681
 5843TIP3    H139020   0.033   3.541  15.058  0.8322  0.4671  0.8117
 5843TIP3    H239021   0.043   3.609  15.193 -1.8601 -0.0462  1.3251
 5844TIP3   OH239022   1.431   5.397  15.217 -0.0462 -0.0047 -0.1847
 5844TIP3    H139023   1.376   5.362  15.146  0.0834 -1.4337  0.3872
 5844TIP3    H239024   1.457   5.320  15.267  2.4936  0.6138 -0.4265
 5845TIP3   OH239025   6.470   5.100   3.083 -0.4832 -0.0118 -0.3303
 5845TIP3    H139026   6.508   5.132   3.164 -0.6229 -0.4964 -0.0667
 5845TIP3    H239027   6.515   5.017   3.067 -2.8329 -1.6899  1.1220
 5846TIP3   OH239028   4.476   0.275  12.496  0.4432 -0.1435  0.1419
 5846TIP3    H139029   4.466   0.215  12.570 -1.1726  0.7341  0.6897
 5846TIP3    H239030   4.413   0.345  12.513 -0.1534 -0.0218 -2.1771
 5847TIP3   OH239031   0.410   3.917   5.800  0.0560  0.0146  0.8142
 5847TIP3    H139032   0.489   3.910   5.855 -0.1266  0.1752  1.0986
 5847TIP3    H239033   0.413   3.839   5.745  0.9228  0.4973  0.1543
 5848TIP3   OH239034   1.342   5.928  16.152 -0.5335 -0.4691 -0.4463
 5848TIP3    H139035   1.419   5.951  16.101  0.9757  0.1985  1.9518
 5848TIP3    H239036   1.370   5.857  16.209 -1.1735  0.7255  1.4870
 5849TIP3   OH239037   4.717   3.294   5.839  0.0356  0.3004 -0.1695
 5849TIP3    H139038   4.647   3.274   5.777  0.6202  0.4475 -0.8982
 5849TIP3    H239039   4.794   3.310   5.783  0.5770  0.4164  0.5978
 5850TIP3   OH239040   0.391   2.746   2.830  0.6525  0.6511 -0.1828
 5850TIP3    H139041   0.361   2.744   2.921  0.4718  1.1199 -0.2293
 5850TIP3    H239042   0.460   2.680   2.826 -0.5245 -0.6372 -0.1231
 5851TIP3   OH239043   4.059   3.988  15.961  0.3321  0.4139 -0.4690
 5851TIP3    H139044   4.034   4.080  15.973  0.1499  0.5067 -1.5103
 5851TIP3    H239045   4.138   3.991  15.907  1.0996  0.0024  0.5893
 5852TIP3   OH239046   4.544   4.521   3.994  0.3414  0.0491 -0.5650
 5852TIP3    H139047   4.546   4.612   3.965 -1.3378  0.0775 -0.7085
 5852TIP3    H239048   4.561   4.526   4.088 -0.4967  0.6116 -0.4279
 5853TIP3   OH239049   6.659   6.043   4.306 -0.3423  0.0035  0.1249
 5853TIP3    H139050   6.744   6.082   4.326 -0.1780  0.0778 -0.6828
 5853TIP3    H239051   6.679   5.955   4.276 -0.6657 -0.4779  1.2694
 5854TIP3   OH239052   0.810   4.379  13.407  0.0244 -0.2553 -0.7225
 5854TIP3    H139053   0.791   4.387  13.313  0.9174 -0.3005 -0.9166
 5854TIP3    H239054   0.906   4.377  13.412  0.0386  1.0847  0.2983
 5855TIP3   OH239055   3.053   5.057  12.403 -0.2515 -0.7301 -0.3369
 5855TIP3    H139056   3.137   5.042  12.361  0.9748  1.4002  1.1670
 5855TIP3    H239057   3.006   5.114  12.341 -0.7988 -2.2210 -1.3482
 5856TIP3   OH239058   4.990   3.514  13.257  0.0003 -0.1437 -0.0233
 5856TIP3    H139059   5.072   3.475  13.226  0.1296  0.2096 -0.1348
 5856TIP3    H239060   4.935   3.440  13.282 -0.4240 -0.5136 -1.8880
 5857TIP3   OH239061   4.015   6.666   1.687 -0.0269 -0.9159 -0.1866
 5857TIP3    H139062   3.975   6.638   1.770  0.9994  1.5606  1.2571
 5857TIP3    H239063   4.102   6.697   1.711 -0.2878  1.4080 -1.8824
 5858TIP3   OH239064   0.067   4.474   0.699  0.5119  0.1552 -0.2075
 5858TIP3    H139065   0.127   4.432   0.760 -0.1109  0.2871  0.5155
 5858TIP3    H239066   0.122   4.529   0.644  1.0894  0.0089  0.2232
 5859TIP3   OH239067   6.096   4.477   2.659 -0.0518  0.2052 -0.8048
 5859TIP3    H139068   6.000   4.479   2.655 -0.5165 -1.9009  3.1860
 5859TIP3    H239069   6.122   4.416   2.590 -2.0909 -2.1683  0.3412
 5860TIP3   OH239070   0.030   2.177  11.246 -0.0568 -0.2580 -0.4187
 5860TIP3    H139071  -0.030   2.105  11.264 -0.1108 -0.0380  0.3028
 5860TIP3    H239072   0.111   2.135  11.218 -0.8260 -0.5503 -2.3964
 5861TIP3   OH239073   1.110   2.276  15.565 -0.9270 -0.4489 -1.0895
 5861TIP3    H139074   1.117   2.359  15.612  0.5413 -1.1276 -0.0300
 5861TIP3    H239075   1.059   2.297  15.486 -3.3660  0.7356  0.6882
 5862TIP3   OH239076   2.790   5.521   4.129 -0.3571 -0.3519  1.0114
 5862TIP3    H139077   2.760   5.588   4.068 -0.0110  0.3497  1.5835
 5862TIP3    H239078   2.874   5.492   4.094 -0.7160 -0.8041  0.5263
 5863TIP3   OH239079   6.442   0.051  10.994  0.5091  0.3795  0.7785
 5863TIP3    H139080   6.470   0.030  10.905  0.3763 -0.9207  1.0305
 5863TIP3    H239081   6.449   0.147  10.999  0.0893  0.5145 -0.7643
 5864TIP3   OH239082   2.636   5.218  11.606  0.2375  0.1711 -0.4561
 5864TIP3    H139083   2.589   5.288  11.651 -1.5200 -1.8649  1.1171
 5864TIP3    H239084   2.715   5.205  11.659  0.6021  0.9911 -0.7911
 5865TIP3   OH239085   3.323   2.410   4.490  0.1447  0.0402 -0.2884
 5865TIP3    H139086   3.320   2.345   4.560  1.7542 -0.8083 -0.9644
 5865TIP3    H239087   3.243   2.394   4.439  0.6126 -1.5916 -0.5683
 5866TIP3   OH239088   2.437   6.800  12.537 -0.4388  0.4527  0.0491
 5866TIP3    H139089   2.484   6.871  12.581 -0.5935  0.0830  0.8210
 5866TIP3    H239090   2.419   6.736  12.606  0.8354 -0.9651 -0.8865
 5867TIP3   OH239091   2.949   0.841   3.532 -0.1867 -0.4547  0.4752
 5867TIP3    H139092   2.913   0.753   3.522 -0.5832 -0.2981  0.5101
 5867TIP3    H239093   2.874   0.895   3.558 -0.0857  0.0287 -0.2105
 5868TIP3   OH239094   1.952   5.455  11.529 -0.4697 -0.6603  0.5496
 5868TIP3    H139095   1.999   5.489  11.453 -0.3667  0.3301  1.0397
 5868TIP3    H239096   1.979   5.363  11.535  1.1776 -0.1911  0.6556
 5869TIP3   OH239097   6.764   6.665   3.969  0.5704  0.5096  0.1893
 5869TIP3    H139098   6.721   6.635   4.049  0.0406  1.3931  0.2460
 5869TIP3    H239099   6.824   6.594   3.947 -2.0539 -1.5663 -0.8242
 5870TIP3   OH239100   6.561   3.935   0.652  0.0407 -0.3669  0.2543
 5870TIP3    H139101   6.575   3.843   0.673  0.5222 -1.0087 -2.4118
 5870TIP3    H239102   6.474   3.955   0.687 -0.5974 -2.2080 -0.1516
 5871TIP3   OH239103   5.802   4.279   5.179 -0.3084 -0.2644  0.3265
 5871TIP3    H139104   5.712   4.284   5.148  0.2893 -1.0552 -1.7493
 5871TIP3    H239105   5.838   4.201   5.135  1.2546 -0.2429  1.4661
 5872TIP3   OH239106   1.846   6.360  12.975 -0.0583  0.0410 -0.1785
 5872TIP3    H139107   1.758   6.329  12.954  0.7042 -0.9098 -2.2345
 5872TIP3    H239108   1.863   6.325  13.062 -1.6244  0.0858  0.1859
 5873TIP3   OH239109   4.730   2.313  12.032 -0.1261  0.2210 -0.0360
 5873TIP3    H139110   4.745   2.233  11.980 -2.4386 -0.1458 -0.2526
 5873TIP3    H239111   4.663   2.360  11.983  0.8465  2.1073  0.3610
 5874TIP3   OH239112   1.041   6.462  12.399 -0.0805  0.0823 -0.3327
 5874TIP3    H139113   1.087   6.526  12.345 -2.1605  0.2172 -2.0847
 5874TIP3    H239114   0.959   6.506  12.423 -1.0486 -1.4780 -0.6179
 5875TIP3   OH239115   3.662   4.210  10.766  0.1575  0.2690  0.3309
 5875TIP3    H139116   3.738   4.266  10.749 -0.5896  0.6878 -1.9648
 5875TIP3    H239117   3.700   4.125  10.787  1.2744  0.9499  1.2027
 5876TIP3   OH239118   4.278   1.009   5.696  0.0395 -0.1350 -0.0879
 5876TIP3    H139119   4.330   0.930   5.683  0.5613  0.0159  1.0229
 5876TIP3    H239120   4.294   1.035   5.786  1.0948  2.1029 -0.8225
 5877TIP3   OH239121   2.442   1.058  12.195  0.6172  0.0254 -0.0722
 5877TIP3    H139122   2.463   1.137  12.147 -0.3062  0.0078 -0.5370
 5877TIP3    H239123   2.496   0.990  12.155  1.2087  0.3574  0.1500
 5878TIP3   OH239124   1.153   2.431  12.110  0.3240 -0.2407 -0.5063
 5878TIP3    H139125   1.191   2.456  12.026  2.3099  0.1010  0.4306
 5878TIP3    H239126   1.192   2.346  12.129  0.1988 -0.1365  0.2388
 5879TIP3   OH239127   5.157   3.675   3.000 -0.1129  0.0007  0.6159
 5879TIP3    H139128   5.066   3.654   2.981 -0.4186  2.3284 -0.9223
 5879TIP3    H239129   5.152   3.740   3.071  0.0700  2.2078 -1.2701
 5880TIP3   OH239130   0.878   3.931  13.916 -0.4764  0.1184 -0.1734
 5880TIP3    H139131   0.873   3.857  13.976 -0.9033  0.4950  0.2709
 5880TIP3    H239132   0.898   4.006  13.972  3.0100 -0.0788 -0.9603
 5881TIP3   OH239133   3.420   0.279  12.957  0.1878  0.1757 -0.3271
 5881TIP3    H139134   3.446   0.294  13.048 -1.7198  0.3952  0.2192
 5881TIP3    H239135   3.455   0.354  12.909  2.7710 -0.8211 -0.1547
 5882TIP3   OH239136   5.662   4.061  14.039 -0.4037 -0.1212  0.2674
 5882TIP3    H139137   5.732   4.035  14.098 -0.0924  1.0896  0.4681
 5882TIP3    H239138   5.697   4.137  13.992 -0.3882 -1.4688 -2.0145
 5883TIP3   OH239139   1.909   4.362   3.678 -0.2791 -0.6318  0.2149
 5883TIP3    H139140   1.837   4.365   3.741 -0.5227  2.8076 -0.0283
 5883TIP3    H239141   1.875   4.310   3.606 -1.8158 -0.6737  0.9110
 5884TIP3   OH239142   4.677   6.746  14.738  0.0792 -0.1753 -0.3901
 5884TIP3    H139143   4.769   6.772  14.742 -0.0245  0.5633 -2.1388
 5884TIP3    H239144   4.650   6.765  14.648 -2.3508  1.5052  0.5984
 5885TIP3   OH239145   5.501   4.286   2.599 -0.0059  0.6807 -0.1501
 5885TIP3    H139146   5.565   4.346   2.638  1.0253 -0.8572  0.6410
 5885TIP3    H239147   5.546   4.248   2.524 -0.3312  0.2899 -0.1506
 5886TIP3   OH239148   1.727   2.294  13.892  0.1298 -0.6384  0.4312
 5886TIP3    H139149   1.790   2.329  13.954 -1.3546  0.0506  1.6028
 5886TIP3    H239150   1.642   2.321  13.926 -0.7877 -1.1243 -1.3572
 5887TIP3   OH239151   3.420   4.337   2.439  0.6800 -0.0408 -0.3147
 5887TIP3    H139152   3.387   4.276   2.374  0.7222  0.9791 -1.3401
 5887TIP3    H239153   3.370   4.417   2.425  0.1067 -0.0430  1.4885
 5888TIP3   OH239154   4.360   4.623   5.161  0.4145  0.1274  1.0623
 5888TIP3    H139155   4.312   4.541   5.157 -1.7046  1.3021 -2.1054
 5888TIP3    H239156   4.307   4.679   5.218 -0.3974  0.4809 -0.0055
 5889TIP3   OH239157   2.533   0.852   1.554 -0.3135 -1.0960  0.4529
 5889TIP3    H139158   2.475   0.789   1.595 -0.5943  0.1541  2.0438
 5889TIP3    H239159   2.490   0.936   1.565  0.6446 -0.4431 -0.5263
 5890TIP3   OH239160   4.346   0.407  11.057 -0.1303 -0.7053  0.5165
 5890TIP3    H139161   4.338   0.403  10.962 -2.1927 -0.3523  0.6330
 5890TIP3    H239162   4.398   0.486  11.073 -0.3629 -0.3813 -0.2943
 5891TIP3   OH239163   3.757   1.880   1.595 -0.1217 -0.1434  0.1678
 5891TIP3    H139164   3.698   1.882   1.520 -0.2722  1.2813  0.3018
 5891TIP3    H239165   3.713   1.825   1.659 -0.9460  0.2894 -0.0219
 5892TIP3   OH239166   6.007   2.462  11.150 -0.1427  0.0167 -0.1559
 5892TIP3    H139167   6.082   2.461  11.090  0.3503  0.5724  0.4426
 5892TIP3    H239168   5.999   2.553  11.178  1.5041 -0.6103  2.8893
 5893TIP3   OH239169   2.420   3.295  12.538 -0.6456 -0.1686 -0.2397
 5893TIP3    H139170   2.411   3.313  12.444  0.5527  0.2571 -0.2928
 5893TIP3    H239171   2.357   3.225  12.555 -0.4009 -0.7264 -1.5046
 5894TIP3   OH239172   1.804   5.953   6.706 -0.0140 -0.9417 -0.0930
 5894TIP3    H139173   1.787   5.992   6.791  1.8067  0.5022 -0.3097
 5894TIP3    H239174   1.720   5.958   6.660 -0.3392  0.9590  0.6131
 5895TIP3   OH239175   4.101   5.316   0.613 -0.6063  0.0515 -0.9151
 5895TIP3    H139176   4.115   5.234   0.659 -0.5548 -0.4360 -1.7750
 5895TIP3    H239177   4.069   5.376   0.680  2.3255  0.2781  0.4241
 5896TIP3   OH239178   2.443   5.241   6.037 -0.3787 -0.3915  0.2148
 5896TIP3    H139179   2.439   5.314   6.099  1.1850 -0.9196  0.9978
 5896TIP3    H239180   2.357   5.240   5.996 -0.3443  2.1419 -0.1289
 5897TIP3   OH239181   3.736   1.670   5.463  0.1149 -0.4458  0.2277
 5897TIP3    H139182   3.778   1.633   5.385  1.8542  1.1015  0.3542
 5897TIP3    H239183   3.691   1.596   5.504 -2.1830 -1.0384 -3.0077
 5898TIP3   OH239184   4.456   1.270  13.829  0.7706  0.1353  0.3787
 5898TIP3    H139185   4.460   1.198  13.892  2.1447  0.3888  0.6070
 5898TIP3    H239186   4.373   1.257  13.783  0.4886 -0.9574  1.1694
 5899TIP3   OH239187   0.619   1.912   6.080 -0.5586  0.4361  0.1431
 5899TIP3    H139188   0.662   1.974   6.138  2.2229  0.3657 -1.6241
 5899TIP3    H239189   0.526   1.929   6.091  0.0146  3.8072  0.9234
 5900TIP3   OH239190   0.442   6.385  11.171 -0.1240 -0.0816  0.0861
 5900TIP3    H139191   0.495   6.444  11.225  0.3862 -0.8600  0.4644
 5900TIP3    H239192   0.476   6.395  11.083 -1.6604  2.0004 -0.3587
 5901TIP3   OH239193   1.015   5.471   0.012 -0.0526 -0.6434 -0.7745
 5901TIP3    H139194   1.090   5.529   0.004  0.8493 -1.8361 -1.3847
 5901TIP3    H239195   0.939   5.528   0.007  0.8067  0.6696  0.5244
 5902TIP3   OH239196   3.533   1.832  16.990 -0.5529 -0.3381  0.3212
 5902TIP3    H139197   3.442   1.861  16.985 -1.3151 -2.6108 -0.0896
 5902TIP3    H239198   3.561   1.827  16.899 -0.2032 -0.2025  0.4203
 5903TIP3   OH239199   1.174   6.108  15.443  0.6233  0.5751  0.5108
 5903TIP3    H139200   1.258   6.115  15.489  0.2756  0.5220  1.1599
 5903TIP3    H239201   1.165   6.015  15.423 -0.6001  0.0968  2.9825
 5904TIP3   OH239202   0.508   5.060   4.775  0.3135 -0.1738  0.1550
 5904TIP3    H139203   0.457   5.134   4.742  0.0786 -0.6264 -0.5278
 5904TIP3    H239204   0.445   5.006   4.823 -0.5795 -2.1024 -2.8439
 5905TIP3   OH239205   1.333   6.655   3.804  0.6435  0.3201  0.1448
 5905TIP3    H139206   1.240   6.665   3.822  0.2730  0.6146 -1.6754
 5905TIP3    H239207   1.370   6.618   3.884 -1.4505 -2.1006  0.0970
 5906TIP3   OH239208   5.634   6.341  16.979 -0.2474  0.1457  0.0362
 5906TIP3    H139209   5.595   6.367  17.063 -0.5510  1.6973 -0.5590
 5906TIP3    H239210   5.588   6.393  16.914  0.6029 -0.3793 -1.0127
 5907TIP3   OH239211   4.134   4.111  16.790 -0.2061  0.0294  0.4957
 5907TIP3    H139212   4.201   4.179  16.778  0.3386 -0.5936 -0.0335
 5907TIP3    H239213   4.159   4.042  16.729 -2.7117  0.7994 -1.6043
 5908TIP3   OH239214   2.880   6.234  15.195 -0.0834  0.5587  0.1521
 5908TIP3    H139215   2.822   6.239  15.271  1.1940  1.7368  1.1066
 5908TIP3    H239216   2.908   6.142  15.192  0.1664  0.5783  1.3698
 5909TIP3   OH239217   1.785   2.646   0.283  0.1370 -0.1451 -0.0694
 5909TIP3    H139218   1.861   2.681   0.236  0.5074  1.5303  1.6565
 5909TIP3    H239219   1.823   2.586   0.348  0.2393  2.0730  2.0256
 5910TIP3   OH239220   1.014   6.565  13.233 -0.0985 -0.1880 -0.6526
 5910TIP3    H139221   0.940   6.625  13.235 -0.8268 -1.0707  0.6663
 5910TIP3    H239222   0.987   6.496  13.172 -0.4419 -0.5832 -0.0643
 5911TIP3   OH239223   6.617   1.865  11.490 -0.1554 -0.0492 -0.5760
 5911TIP3    H139224   6.533   1.869  11.534  0.7657 -0.9741  1.4060
 5911TIP3    H239225   6.602   1.904  11.404 -2.1963  1.2979  0.3314
 5912TIP3   OH239226   1.249   0.305  15.016 -0.0536 -0.6226  0.7079
 5912TIP3    H139227   1.327   0.355  15.037  0.6166 -0.2225 -2.3119
 5912TIP3    H239228   1.176   0.362  15.041  0.6877  0.9881 -0.6316
 5913TIP3   OH239229   1.118   2.595   3.022 -0.2683  0.0054  0.3927
 5913TIP3    H139230   1.135   2.687   3.042  2.7181 -0.3560 -0.1311
 5913TIP3    H239231   1.025   2.593   2.997 -0.2087  3.0075 -0.4432
 5914TIP3   OH239232   3.628   4.658   5.613  0.1403 -0.0247  0.1094
 5914TIP3    H139233   3.689   4.619   5.549 -0.0571  0.2777 -0.2662
 5914TIP3    H239234   3.674   4.735   5.645 -0.0620  0.2292 -0.2086
 5915TIP3   OH239235   6.270   1.414  13.926  0.3831  0.2187  0.3325
 5915TIP3    H139236   6.354   1.371  13.943 -0.2778 -0.8739  0.9119
 5915TIP3    H239237   6.272   1.432  13.832  0.9466 -0.4964  0.1925
 5916TIP3   OH239238   0.642   3.309  16.326 -0.2121 -0.3635  0.5446
 5916TIP3    H139239   0.619   3.348  16.411 -3.6530  0.3008 -0.5242
 5916TIP3    H239240   0.591   3.227  16.323  0.6622 -0.8960 -0.4868
 5917TIP3   OH239241   5.257   0.921   5.518 -0.0623 -0.5966  0.3016
 5917TIP3    H139242   5.244   1.015   5.532  0.0107 -0.2819 -1.5202
 5917TIP3    H239243   5.250   0.883   5.606  0.4009  1.1496  1.1482
 5918TIP3   OH239244   5.132   3.262   4.325 -0.4641  0.2758 -0.0165
 5918TIP3    H139245   5.221   3.267   4.291 -0.4920 -0.7937 -0.3020
 5918TIP3    H239246   5.138   3.203   4.400 -0.7707  0.9702  0.5720
 5919TIP3   OH239247   4.243   0.037  16.336 -0.0113 -0.1034  0.2231
 5919TIP3    H139248   4.157   0.008  16.366 -0.4815 -0.2375 -1.1957
 5919TIP3    H239249   4.259  -0.013  16.257  0.1827  1.7996 -1.0062
 5920TIP3   OH239250   3.003   4.287   1.762  0.0177  0.2684  0.0428
 5920TIP3    H139251   3.085   4.281   1.712 -0.1921  2.5569 -0.6847
 5920TIP3    H239252   2.937   4.311   1.697 -1.4017 -1.9589  0.5322
 5921TIP3   OH239253   4.535   3.307   1.423  0.1066  0.7615  0.5760
 5921TIP3    H139254   4.464   3.252   1.389 -0.1735  1.7042 -0.4313
 5921TIP3    H239255   4.612   3.278   1.373 -0.0236  1.2069  0.1068
 5922TIP3   OH239256   6.511   1.645  17.140  0.4400 -0.2978 -0.2426
 5922TIP3    H139257   6.505   1.624  17.047 -0.8520  0.1543 -0.2821
 5922TIP3    H239258   6.489   1.564  17.185  1.7057 -0.6986 -0.2965
 5923TIP3   OH239259   6.081   1.379  16.338 -0.0664 -0.0793 -0.3347
 5923TIP3    H139260   6.003   1.394  16.285 -0.3671  0.1518  0.1631
 5923TIP3    H239261   6.099   1.464  16.379 -0.0975 -0.3644  0.2806
 5924TIP3   OH239262   1.686   0.040  15.636  0.0325 -0.1000 -0.0942
 5924TIP3    H139263   1.598   0.034  15.599 -1.5503  1.1931  3.0719
 5924TIP3    H239264   1.701   0.134  15.646  0.1832 -0.3540  2.7123
 5925TIP3   OH239265   0.688   3.031   4.564 -0.2663 -0.2451  0.2684
 5925TIP3    H139266   0.729   3.102   4.615 -2.5867  0.2562  1.5712
 5925TIP3    H239267   0.722   2.951   4.602  2.6916  0.0313 -1.4600
 5926TIP3   OH239268   2.530   4.678   6.182 -0.5097 -0.2894  0.6275
 5926TIP3    H139269   2.541   4.584   6.164 -1.1523 -0.3801  0.6774
 5926TIP3    H239270   2.596   4.697   6.249  1.9470  0.0595 -1.7360
 5927TIP3   OH239271   0.699   5.605   1.169 -0.3258 -0.6368  0.7498
 5927TIP3    H139272   0.717   5.661   1.245 -0.3768 -2.0967  1.8887
 5927TIP3    H239273   0.623   5.645   1.127  1.0253  1.4362  0.1572
 5928TIP3   OH239274   4.625   3.251  12.325 -0.1713 -0.3623 -0.3416
 5928TIP3    H139275   4.622   3.172  12.380 -2.4672  0.3404  0.6737
 5928TIP3    H239276   4.620   3.217  12.235 -1.7669 -1.3862  0.0920
 5929TIP3   OH239277   0.018   1.266   5.298 -0.5758  0.3067 -0.9245
 5929TIP3    H139278   0.038   1.356   5.271 -0.4474  1.0304  1.3498
 5929TIP3    H239279  -0.059   1.275   5.355 -0.5623 -1.0409 -0.6675
 5930TIP3   OH239280   1.864   5.709   1.288 -0.5997 -0.5965 -0.3449
 5930TIP3    H139281   1.913   5.703   1.206  0.1159  0.8673 -0.0600
 5930TIP3    H239282   1.772   5.715   1.260 -0.2407  2.3248 -1.2539
 5931TIP3   OH239283   6.181   6.201   5.356 -0.3210  0.1142 -0.8354
 5931TIP3    H139284   6.097   6.231   5.389 -0.6757 -1.1034 -0.6098
 5931TIP3    H239285   6.159   6.140   5.286  0.3495 -0.6864 -0.3676
 5932TIP3   OH239286   5.704   3.904   0.380  0.2275  0.3378  0.0892
 5932TIP3    H139287   5.772   3.836   0.374  0.9344  1.0908 -0.6011
 5932TIP3    H239288   5.626   3.861   0.346  0.0492 -0.8949  1.9134
 5933TIP3   OH239289   1.961   6.265   0.048  0.0909  0.0794  0.7680
 5933TIP3    H139290   2.037   6.258   0.105  0.2912 -1.2248  0.3759
 5933TIP3    H239291   1.915   6.181   0.058 -0.4144  0.2212 -0.2126
 5934TIP3   OH239292   0.212   1.491  12.389 -0.3825 -0.3619  0.1064
 5934TIP3    H139293   0.294   1.540  12.396 -0.3175 -0.5155  0.3899
 5934TIP3    H239294   0.148   1.545  12.434 -0.8533  0.6901 -1.7107
 5935TIP3   OH239295   2.284   3.647  14.842 -0.1722 -0.1342 -0.0529
 5935TIP3    H139296   2.363   3.662  14.790 -1.9187  0.6857 -2.6669
 5935TIP3    H239297   2.279   3.552  14.851  1.8911 -0.1688  1.6183
 5936TIP3   OH239298   6.765   3.234   5.925  0.6968 -0.1282 -0.2363
 5936TIP3    H139299   6.809   3.319   5.936  1.8073 -0.7346  0.0888
 5936TIP3    H239300   6.833   3.176   5.892  0.1621 -1.1063  0.3474
 5937TIP3   OH239301   2.467   2.472  14.827 -0.1158  0.5161 -0.4169
 5937TIP3    H139302   2.487   2.551  14.877  1.0597  0.3892 -0.6573
 5937TIP3    H239303   2.533   2.408  14.856 -0.1158  0.0959 -1.3134
 5938TIP3   OH239304   5.323   0.257  14.493 -0.1162 -0.1131 -0.1355
 5938TIP3    H139305   5.336   0.166  14.522  2.0103  0.7373  1.8251
 5938TIP3    H239306   5.386   0.268  14.422  2.2477  0.7325  1.9360
 5939TIP3   OH239307   6.776   6.063  16.886  0.6652  0.6987  0.3455
 5939TIP3    H139308   6.685   6.036  16.873  0.7595  0.4191  0.2607
 5939TIP3    H239309   6.770   6.147  16.931  0.3335  1.4346 -1.0211
 5940TIP3   OH239310   3.057   0.332   1.912 -0.2072  0.0697  0.3685
 5940TIP3    H139311   3.075   0.239   1.898 -2.6902 -0.4426  0.1831
 5940TIP3    H239312   3.074   0.372   1.826 -0.6794 -0.5128 -0.0125
 5941TIP3   OH239313   1.326   0.421   0.805 -0.7446 -0.5061 -0.8415
 5941TIP3    H139314   1.393   0.357   0.781 -0.6187 -1.0197  0.7466
 5941TIP3    H239315   1.372   0.505   0.803 -0.2976 -0.7435 -0.6837
 5942TIP3   OH239316   0.652   3.466   2.729  0.1243 -0.0048  0.1538
 5942TIP3    H139317   0.639   3.445   2.822  0.5583 -0.1754  0.1803
 5942TIP3    H239318   0.654   3.562   2.726  1.3556 -0.0004  0.5120
 5943TIP3   OH239319   0.522   4.861   4.260  0.7338  0.0693 -0.2123
 5943TIP3    H139320   0.519   4.956   4.251  1.8503  0.0973 -0.4719
 5943TIP3    H239321   0.440   4.830   4.222 -1.4182  1.1143  3.0998
 5944TIP3   OH239322   2.045   6.065  12.610 -0.8168 -0.2346  1.1374
 5944TIP3    H139323   2.068   6.060  12.517  2.2492 -0.4006  1.7645
 5944TIP3    H239324   1.950   6.074  12.612 -1.1930 -2.0821 -1.9501
 5945TIP3   OH239325   2.413   6.228   2.607 -0.2459  0.4196 -0.4601
 5945TIP3    H139326   2.327   6.242   2.567 -1.0383 -0.3727  0.8998
 5945TIP3    H239327   2.440   6.141   2.577  0.1173  0.6803 -0.9113
 5946TIP3   OH239328   4.638   3.000  14.022  0.3816 -0.9840  0.9783
 5946TIP3    H139329   4.704   3.049  14.072 -1.0300 -0.1177  2.0746
 5946TIP3    H239330   4.633   2.915  14.065  1.6531 -1.5420  0.0970
 5947TIP3   OH239331   0.662   0.407   2.721  0.2499 -0.9801 -0.2640
 5947TIP3    H139332   0.663   0.502   2.733  2.1622 -1.2253  2.2078
 5947TIP3    H239333   0.754   0.381   2.724 -0.3167 -3.0743  0.8172
 5948TIP3   OH239334   6.456   0.056  15.838 -0.1338 -0.7711 -0.0851
 5948TIP3    H139335   6.490   0.007  15.763 -0.8012 -1.1411 -0.1482
 5948TIP3    H239336   6.535   0.089  15.882  0.2818 -1.0241 -0.6248
 5949TIP3   OH239337   1.421   5.436  11.190  0.2504 -0.0012 -0.6676
 5949TIP3    H139338   1.493   5.487  11.229  0.2771 -1.4820  1.4175
 5949TIP3    H239339   1.344   5.462  11.240 -0.0346 -0.7934 -0.6803
 5950TIP3   OH239340   0.020   2.260   1.473  0.4170 -0.6087 -0.3553
 5950TIP3    H139341   0.113   2.240   1.465  0.5757  0.5069 -1.7609
 5950TIP3    H239342  -0.024   2.195   1.418  0.5124 -0.2301 -0.8921
 5951TIP3   OH239343   5.029   6.390   0.073  0.0653 -0.8562  0.0405
 5951TIP3    H139344   5.050   6.374  -0.019  0.3273 -1.0144  0.1273
 5951TIP3    H239345   5.088   6.332   0.122  0.2467 -0.4439  0.3210
 5952TIP3   OH239346   1.897   1.782   2.528  0.3895  0.1833 -0.5664
 5952TIP3    H139347   1.900   1.693   2.563 -0.2781  1.0428  1.9147
 5952TIP3    H239348   1.985   1.817   2.544  0.9149 -0.2584 -2.3209
 5953TIP3   OH239349   0.346   6.325   4.031 -0.0757  0.1945 -0.3278
 5953TIP3    H139350   0.393   6.408   4.022  1.5096 -0.3809  1.8222
 5953TIP3    H239351   0.375   6.274   3.955  1.8021  0.3414  0.2401
 5954TIP3   OH239352   4.200   5.449  16.588  0.1327  0.6308  0.4171
 5954TIP3    H139353   4.123   5.470  16.640  1.5632  4.1991  1.3959
 5954TIP3    H239354   4.199   5.514  16.517  1.4415 -0.2163 -0.4128
 5955TIP3   OH239355   0.537   2.805   5.997  0.0857  0.2927 -0.7984
 5955TIP3    H139356   0.462   2.861   5.976  1.2230  1.3593 -2.2084
 5955TIP3    H239357   0.614   2.856   5.971  1.1848 -2.2376 -3.0653
 5956TIP3   OH239358   4.139   4.466  16.111 -0.4717 -0.6544  0.4919
 5956TIP3    H139359   4.165   4.423  16.192 -0.1073  0.3079  0.9084
 5956TIP3    H239360   4.139   4.559  16.132 -1.9562 -0.4675 -0.1718
 5957TIP3   OH239361   1.900   0.370  13.929 -0.3951  0.0780 -0.2148
 5957TIP3    H139362   1.827   0.332  13.880 -1.5190 -0.6975  1.9365
 5957TIP3    H239363   1.892   0.464  13.913 -1.8392  0.0097 -0.0704
 5958TIP3   OH239364   6.638   5.788  13.589  0.0234  0.3386 -0.5194
 5958TIP3    H139365   6.620   5.694  13.592  1.2795  0.1021  0.1513
 5958TIP3    H239366   6.639   5.809  13.495  0.2348 -0.4196 -0.6966
 5959TIP3   OH239367   1.261   3.404  13.388 -0.0494  1.0785  0.2617
 5959TIP3    H139368   1.344   3.437  13.355  0.4726 -1.0932 -0.7323
 5959TIP3    H239369   1.268   3.412  13.483  1.3280  0.8859  0.1974
 5960TIP3   OH239370   6.798   3.329  16.126  0.2411 -0.1972 -0.1811
 5960TIP3    H139371   6.844   3.316  16.044 -1.1552 -1.6678 -0.7815
 5960TIP3    H239372   6.858   3.380  16.180  1.0551  1.0808 -2.2095
 5961TIP3   OH239373   4.172   6.007  11.241  0.5791  0.1484  0.3342
 5961TIP3    H139374   4.258   6.001  11.283  0.2730 -0.4809  0.8908
 5961TIP3    H239375   4.181   5.953  11.162  1.1485  1.3177 -0.4172
 5962TIP3   OH239376   5.496   1.929  11.288 -0.1444  0.2667 -0.4880
 5962TIP3    H139377   5.543   1.928  11.205  1.7171  0.4273  0.5248
 5962TIP3    H239378   5.490   2.022  11.310 -0.6968  0.2271 -0.4448
 5963TIP3   OH239379   3.020   3.673   1.925 -0.2538  0.1189  0.3431
 5963TIP3    H139380   2.971   3.600   1.962  0.1110 -0.5234 -0.4331
 5963TIP3    H239381   2.963   3.710   1.858  1.3760 -2.5216 -2.7614
 5964TIP3   OH239382   3.489   6.394  14.018 -0.1855 -0.4829  0.3804
 5964TIP3    H139383   3.423   6.384  13.950  1.1181 -1.3324 -0.8203
 5964TIP3    H239384   3.567   6.350  13.983  1.3950  1.4526  1.2164
 5965TIP3   OH239385   0.554   4.681   4.751 -0.1870 -0.1550  0.3167
 5965TIP3    H139386   0.566   4.736   4.674  1.1104 -0.7616  0.0535
 5965TIP3    H239387   0.460   4.664   4.754 -0.4950  1.3227 -0.0967
 5966TIP3   OH239388   6.721   2.366   4.424  0.1078 -0.4046  0.3831
 5966TIP3    H139389   6.745   2.313   4.500  1.1134 -0.2508  0.1811
 5966TIP3    H239390   6.634   2.401   4.446  0.7411  0.3484  1.8563
 5967TIP3   OH239391   3.035   6.353  17.167 -0.0523  0.6047  0.4042
 5967TIP3    H139392   2.976   6.298  17.116  0.5600 -0.7687  1.1313
 5967TIP3    H239393   3.122   6.334  17.131  0.2416  0.5625  1.1258
 5968TIP3   OH239394   5.322   3.616   2.773  0.0641  0.4075  0.2133
 5968TIP3    H139395   5.279   3.654   2.850 -1.4337 -0.5096 -0.1468
 5968TIP3    H239396   5.269   3.644   2.699 -1.9864 -3.3624  0.0209
 5969TIP3   OH239397   4.573   5.661   2.791  0.1953  0.1924  0.2294
 5969TIP3    H139398   4.661   5.666   2.828  0.9652 -3.0369 -0.8634
 5969TIP3    H239399   4.585   5.620   2.705 -2.4774 -2.2839  0.8689
 5970TIP3   OH239400   0.686   1.784  12.697 -0.0658 -0.2857 -0.0315
 5970TIP3    H139401   0.597   1.756  12.721 -0.9281  2.2437  0.0969
 5970TIP3    H239402   0.697   1.755  12.607 -0.5452 -1.6544  0.3276
 5971TIP3   OH239403   1.672   4.703   1.254 -0.2876 -0.3260 -0.1478
 5971TIP3    H139404   1.722   4.783   1.241 -0.1627 -0.5234 -0.9526
 5971TIP3    H239405   1.674   4.689   1.349  4.4127 -2.2960 -0.2210
 5972TIP3   OH239406   5.767   3.809   1.767  0.1369 -0.5280  0.3406
 5972TIP3    H139407   5.774   3.754   1.689 -0.1029 -0.3177  0.1702
 5972TIP3    H239408   5.679   3.793   1.801  0.1120 -0.3495  0.3647
 5973TIP3   OH239409   5.565   4.691   3.142 -0.1126 -0.0428  0.6884
 5973TIP3    H139410   5.598   4.659   3.226 -1.5525 -1.9035  0.5852
 5973TIP3    H239411   5.497   4.754   3.166  0.8515  0.9851  0.8686
 5974TIP3   OH239412   1.741   1.379   1.629  0.0913 -0.7447  0.4843
 5974TIP3    H139413   1.762   1.294   1.668  0.3241  0.3811  3.0717
 5974TIP3    H239414   1.709   1.431   1.703 -1.8522  0.8670 -1.3615
 5975TIP3   OH239415   2.457   3.740  12.842 -0.2530  0.3593 -0.1836
 5975TIP3    H139416   2.410   3.797  12.782 -0.5123  0.1636 -0.1701
 5975TIP3    H239417   2.396   3.727  12.915  0.2496  0.9983  0.3615
 5976TIP3   OH239418   5.260   0.829  14.165 -0.0147 -0.5205 -0.0756
 5976TIP3    H139419   5.196   0.884  14.119  0.7565  1.1973  0.8215
 5976TIP3    H239420   5.219   0.742  14.168 -1.5213  0.1143 -1.0463
 5977TIP3   OH239421   4.152   3.325   2.313  0.3941 -0.3808  0.9427
 5977TIP3    H139422   4.074   3.316   2.368 -0.1834  2.4181  0.7294
 5977TIP3    H239423   4.205   3.391   2.357 -1.3733  4.2388 -2.9198
 5978TIP3   OH239424   4.559   3.537   1.045 -0.3464  0.4873  0.6936
 5978TIP3    H139425   4.572   3.445   1.024 -0.0857  0.0063  2.7579
 5978TIP3    H239426   4.629   3.582   0.999  1.6383 -0.7681  2.2951
 5979TIP3   OH239427   5.806   5.414  14.758 -0.0933  0.8593  0.0792
 5979TIP3    H139428   5.774   5.324  14.753 -0.4886  1.0490 -1.1163
 5979TIP3    H239429   5.839   5.432  14.670 -2.5795  2.7938 -0.5714
 5980TIP3   OH239430   2.503   5.509   0.908 -0.8897 -0.0261  0.0689
 5980TIP3    H139431   2.513   5.548   0.994 -0.1879 -0.2904  0.1120
 5980TIP3    H239432   2.448   5.432   0.924  1.1443 -1.4206  0.7065
 5981TIP3   OH239433   4.630   4.624   4.244 -0.9600  0.4820  0.2792
 5981TIP3    H139434   4.596   4.702   4.288 -1.4413 -0.0346  0.8427
 5981TIP3    H239435   4.723   4.642   4.233 -1.2203  1.4879 -0.3607
 5982TIP3   OH239436   1.087   0.783  15.297 -0.3641  0.2907 -0.9469
 5982TIP3    H139437   1.131   0.864  15.274  2.1403 -0.9210 -0.7629
 5982TIP3    H239438   1.120   0.718  15.235 -0.3233 -1.1081  0.4535
 5983TIP3   OH239439   2.173   3.179  15.576 -0.2727  0.0572 -0.4456
 5983TIP3    H139440   2.092   3.130  15.581 -1.4141  1.7794 -1.2613
 5983TIP3    H239441   2.160   3.253  15.637  0.4168  0.6992 -1.0580
 5984TIP3   OH239442   4.211   0.309   0.230 -0.2302 -0.2386  0.2878
 5984TIP3    H139443   4.214   0.213   0.240  3.1271 -0.0497  3.0763
 5984TIP3    H239444   4.285   0.329   0.173 -1.6854  0.7087 -1.3412
 5985TIP3   OH239445   2.056   5.921   0.004 -0.0359  0.6432  0.1601
 5985TIP3    H139446   2.107   5.979   0.060  0.8380 -0.4278  0.5084
 5985TIP3    H239447   2.073   5.952  -0.085  0.8296  0.6176  0.3081
 5986TIP3   OH239448   3.819   3.598   2.268 -0.6748  0.5870  0.4849
 5986TIP3    H139449   3.757   3.671   2.267 -0.4279  0.8051 -0.5995
 5986TIP3    H239450   3.813   3.562   2.356  0.2531  2.8243  1.5408
 5987TIP3   OH239451   6.097   5.170   0.385 -0.0553 -0.4340 -0.2102
 5987TIP3    H139452   6.154   5.100   0.352  0.4421  0.0427 -0.3780
 5987TIP3    H239453   6.140   5.200   0.465 -0.8491 -1.0556  0.4603
 5988TIP3   OH239454   3.430   2.878  11.618  0.8421  0.6498  0.4352
 5988TIP3    H139455   3.375   2.809  11.581  3.3124 -0.9209 -0.5390
 5988TIP3    H239456   3.502   2.888  11.556  3.0013  0.8010  2.8020
 5989TIP3   OH239457   4.382   4.897  13.374 -0.1651  0.6320  0.1674
 5989TIP3    H139458   4.338   4.865  13.453 -0.4807  0.9833  0.1375
 5989TIP3    H239459   4.417   4.983  13.399 -0.3406  0.7828 -0.0981
 5990TIP3   OH239460   1.695   5.085   5.875  0.4196 -0.1357 -0.3310
 5990TIP3    H139461   1.633   5.031   5.827  1.5957 -1.3794 -0.5129
 5990TIP3    H239462   1.701   5.045   5.961  0.3745  0.4468 -0.0549
 5991TIP3   OH239463   4.845   4.003   4.868 -0.6656 -0.2273  0.5223
 5991TIP3    H139464   4.804   3.975   4.786  1.3598 -0.6433 -0.4169
 5991TIP3    H239465   4.861   3.922   4.916 -0.5281 -0.1216  0.6569
 5992TIP3   OH239466   5.916   3.746   4.051 -0.3153  0.1318 -0.0974
 5992TIP3    H139467   5.995   3.704   4.016 -0.6327  0.5830 -1.3955
 5992TIP3    H239468   5.942   3.776   4.138  0.6647 -0.5339 -0.1368
 5993TIP3   OH239469   1.933   3.763   0.940 -0.4999  0.0467 -0.1701
 5993TIP3    H139470   1.841   3.788   0.934 -0.3858  0.4469 -0.2854
 5993TIP3    H239471   1.944   3.732   1.031 -0.6556  0.3748 -0.0389
 5994TIP3   OH239472   2.752   3.156  12.741  0.1625 -0.2930 -0.3814
 5994TIP3    H139473   2.700   3.221  12.695 -1.3315 -0.1750  1.3744
 5994TIP3    H239474   2.726   3.072  12.702  1.1924  0.0097 -1.8024
 5995TIP3   OH239475   0.196   3.156   6.397  0.1945 -0.2191  0.4804
 5995TIP3    H139476   0.102   3.145   6.386  0.3849 -0.6544 -0.9175
 5995TIP3    H239477   0.207   3.244   6.431 -0.6926  0.0030  0.1918
 5996TIP3   OH239478   1.404   3.674   3.011 -0.7996 -0.2726 -0.1096
 5996TIP3    H139479   1.376   3.712   2.928  0.0195 -0.1282 -0.3329
 5996TIP3    H239480   1.362   3.727   3.078  1.9275  2.4716 -0.3525
 5997TIP3   OH239481   5.286   2.723  16.575 -0.7827  0.7355  0.9227
 5997TIP3    H139482   5.315   2.782  16.505 -1.8973 -1.5522 -1.6456
 5997TIP3    H239483   5.191   2.736  16.580 -0.7175  0.8684  2.0390
 5998TIP3   OH239484   3.299   4.792  13.213  0.3472  0.1278  0.9595
 5998TIP3    H139485   3.366   4.861  13.217 -0.2354  1.0383 -2.3197
 5998TIP3    H239486   3.216   4.838  13.220 -0.0551 -0.7767  2.8516
 5999TIP3   OH239487   5.536   1.904   5.382 -0.0995 -0.8682  0.0067
 5999TIP3    H139488   5.587   1.825   5.362 -2.1433 -2.2611  0.0023
 5999TIP3    H239489   5.463   1.901   5.321  0.5054  1.8379 -0.9576
 6000TIP3   OH239490   1.386   1.988   2.005 -0.5771 -0.1786  0.4433
 6000TIP3    H139491   1.464   2.037   1.978  0.0024 -0.3491  1.7500
 6000TIP3    H239492   1.420   1.903   2.034 -1.3522 -0.5921  0.1689
 6001TIP3   OH239493   3.973   6.357  15.107 -0.4620  0.1890  0.3607
 6001TIP3    H139494   3.969   6.364  15.011  1.8017 -0.6856  0.1639
 6001TIP3    H239495   4.039   6.291  15.124  0.5549  1.6472  2.5539
 6002TIP3   OH239496   0.063   5.311  14.853 -0.7298 -0.3157  0.1011
 6002TIP3    H139497   0.072   5.395  14.898 -0.5680 -0.0144 -0.4832
 6002TIP3    H239498  -0.021   5.277  14.882 -2.2141  1.4059 -1.8287
 6003TIP3   OH239499   2.730   5.659   1.086  0.8365  0.4355  0.3286
 6003TIP3    H139500   2.690   5.739   1.118 -0.2498 -0.6043  1.6455
 6003TIP3    H239501   2.782   5.626   1.159  1.4018  0.0043 -0.2476
 6004TIP3   OH239502   1.835   6.497   1.019 -0.6570  0.2015  0.0270
 6004TIP3    H139503   1.844   6.504   0.924  0.8276 -1.3538 -0.0070
 6004TIP3    H239504   1.751   6.454   1.032 -2.4825  3.3995 -0.3622
 6005TIP3   OH239505   1.224   3.555   0.449 -0.1940 -0.1194 -0.0655
 6005TIP3    H139506   1.198   3.555   0.356 -1.2095  3.3261  0.0663
 6005TIP3    H239507   1.319   3.555   0.446 -0.2053  0.5025 -1.1610
 6006TIP3   OH239508   3.719   3.592  16.150  0.4400  0.3051 -0.0937
 6006TIP3    H139509   3.699   3.534  16.076  0.8411  1.0687 -0.8066
 6006TIP3    H239510   3.747   3.532  16.220 -2.6569 -0.7048  0.4452
 6007TIP3   OH239511   1.295   5.709   2.411  0.4233  0.1192  0.0942
 6007TIP3    H139512   1.310   5.614   2.411  0.9209  0.0303 -3.7006
 6007TIP3    H239513   1.380   5.747   2.429  0.8568 -0.2508 -1.0336
 6008TIP3   OH239514   0.546   6.751  15.198  0.3323  0.3169 -0.3338
 6008TIP3    H139515   0.619   6.714  15.148  1.9464  1.3737  1.1181
 6008TIP3    H239516   0.536   6.840  15.164  0.6896  0.6496  0.3870
 6009TIP3   OH239517   5.678   0.482  16.919 -0.1897 -0.3993 -1.1012
 6009TIP3    H139518   5.726   0.561  16.894 -2.4256  1.0894 -0.9991
 6009TIP3    H239519   5.632   0.455  16.840 -1.2767 -0.2011 -0.5522
 6010TIP3   OH239520   3.642   6.694  12.277  0.4973 -0.2439  0.1647
 6010TIP3    H139521   3.733   6.663  12.288  0.5236 -0.8587 -1.4809
 6010TIP3    H239522   3.640   6.730  12.188 -1.6362 -3.2421 -1.1779
 6011TIP3   OH239523   1.070   3.393  13.207  0.0303 -0.3170 -0.5762
 6011TIP3    H139524   1.137   3.421  13.268 -0.3788  2.9631 -1.4415
 6011TIP3    H239525   1.057   3.299  13.225  2.5570 -0.3135  1.6910
 6012TIP3   OH239526   4.722   0.556   2.551  0.1771 -0.0454 -0.1604
 6012TIP3    H139527   4.785   0.485   2.534  0.6332  0.4981 -0.8101
 6012TIP3    H239528   4.777   0.630   2.576 -0.2468  0.2792 -0.1948
 6013TIP3   OH239529   2.751   3.606  11.942  0.5394  0.7139  0.1397
 6013TIP3    H139530   2.729   3.584  11.852 -2.4443  1.9372  0.4551
 6013TIP3    H239531   2.776   3.698  11.939  2.6305  0.2065  0.3168
 6014TIP3   OH239532   1.583   5.992  15.136 -0.2504  0.0574  0.4181
 6014TIP3    H139533   1.533   6.054  15.082 -2.4739 -2.0839 -0.1721
 6014TIP3    H239534   1.522   5.966  15.205  0.8665 -0.9423  1.0647
 6015TIP3   OH239535   5.504   1.085   5.317  0.2833  0.0134 -0.4148
 6015TIP3    H139536   5.443   1.103   5.246  0.7693  0.6718 -0.6798
 6015TIP3    H239537   5.491   0.992   5.337  0.5516 -0.3410 -1.7676
 6016TIP3   OH239538   4.053   5.324  13.821 -0.0865 -0.2706 -0.0077
 6016TIP3    H139539   4.142   5.352  13.798 -1.0096  0.0547 -3.9852
 6016TIP3    H239540   4.064   5.273  13.901  3.9087 -1.3348 -0.9798
 6017TIP3   OH239541   2.434   3.468   2.408 -0.3222  0.3033 -0.0728
 6017TIP3    H139542   2.474   3.517   2.336 -0.4809  0.6223  0.0501
 6017TIP3    H239543   2.507   3.443   2.464 -0.1727 -0.1467 -0.4601
 6018TIP3   OH239544   1.195   0.341   1.436 -0.0757  0.4032  0.5445
 6018TIP3    H139545   1.161   0.252   1.441 -1.8931  0.9945 -0.1483
 6018TIP3    H239546   1.129   0.389   1.385 -0.0408  2.5362  2.3167
 6019TIP3   OH239547   5.164   2.912   1.435  0.5857  0.1837 -0.3056
 6019TIP3    H139548   5.185   2.819   1.442 -3.2503 -0.8842 -0.8454
 6019TIP3    H239549   5.111   2.919   1.355 -2.8199  1.9750  1.8916
 6020TIP3   OH239550   1.122   6.311   5.810  0.1392 -0.4743 -0.2925
 6020TIP3    H139551   1.178   6.356   5.874  0.0092 -0.5395 -0.1333
 6020TIP3    H239552   1.046   6.282   5.860 -1.0229  1.3732 -0.8700
 6021TIP3   OH239553   2.336   5.856   6.086 -0.0564 -0.1379 -0.3703
 6021TIP3    H139554   2.344   5.806   6.167 -2.6378 -0.8827 -0.4837
 6021TIP3    H239555   2.378   5.801   6.019  1.7723  0.3221  0.3340
 6022TIP3   OH239556   4.717   4.778  15.711  0.0182 -0.2461  0.6400
 6022TIP3    H139557   4.746   4.766  15.621 -1.9050  1.2882 -0.2610
 6022TIP3    H239558   4.723   4.691  15.750 -1.0304 -1.3964 -1.5899
 6023TIP3   OH239559   2.395   4.530  17.100  0.5847  0.4839  0.1125
 6023TIP3    H139560   2.438   4.611  17.127  2.0687  0.2331 -1.3735
 6023TIP3    H239561   2.333   4.558  17.033  1.2145  0.3900 -0.5193
 6024TIP3   OH239562   4.926   0.374   1.585  0.1590 -0.5385 -0.1782
 6024TIP3    H139563   5.016   0.390   1.613 -0.3294 -1.3988  2.1080
 6024TIP3    H239564   4.928   0.287   1.546  0.6889  0.3290 -2.1842
 6025TIP3   OH239565   0.566   5.331   0.462 -0.0419  0.2321  0.6823
 6025TIP3    H139566   0.525   5.400   0.410 -0.7227 -1.4988 -1.2473
 6025TIP3    H239567   0.626   5.377   0.520  0.0897  2.3992 -1.0221
 6026TIP3   OH239568   2.554   1.338  13.531  0.4745  0.2034  0.0833
 6026TIP3    H139569   2.521   1.269  13.588  0.7296 -0.9445 -1.1156
 6026TIP3    H239570   2.585   1.406  13.591 -0.2119 -0.5098  1.2828
 6027TIP3   OH239571   3.717   0.956  17.074  0.1351 -0.0182 -0.0394
 6027TIP3    H139572   3.682   1.042  17.094  0.5341  0.1800 -0.1744
 6027TIP3    H239573   3.811   0.971  17.060 -0.0623 -0.2019 -1.7090
 6028TIP3   OH239574   1.297   0.184   5.709 -0.1180  1.1180  0.1772
 6028TIP3    H139575   1.362   0.242   5.669  0.4388 -0.7489 -1.8703
 6028TIP3    H239576   1.327   0.173   5.799  0.5903  2.7617  0.1769
 6029TIP3   OH239577   3.765   0.029   6.438  0.1278  0.3159  0.1987
 6029TIP3    H139578   3.710   0.091   6.487  2.3869  1.6008  1.3332
 6029TIP3    H239579   3.761   0.059   6.348  0.8279  1.9668  0.6612
 6030TIP3   OH239580   2.590   4.564  16.070 -0.3656 -0.1537 -0.1753
 6030TIP3    H139581   2.537   4.617  16.011  0.4779 -2.4861 -3.2768
 6030TIP3    H239582   2.681   4.586  16.049  0.0106  0.5664  1.9231
 6031TIP3   OH239583   2.024   5.581  14.087  0.0712 -0.2093  0.6286
 6031TIP3    H139584   2.064   5.608  14.004  1.3945  1.4652  1.7268
 6031TIP3    H239585   1.969   5.507  14.065  1.9941 -1.1370 -1.4127
 6032TIP3   OH239586   0.247   4.633   4.321  0.3453 -0.4811 -0.4553
 6032TIP3    H139587   0.233   4.681   4.403  1.8566 -0.1357 -0.3680
 6032TIP3    H239588   0.203   4.686   4.254  0.1603 -0.1144 -0.0519
 6033TIP3   OH239589   4.250   5.936   5.380  0.4563 -0.1362 -0.5234
 6033TIP3    H139590   4.163   5.910   5.350  0.7336  0.6106 -2.1261
 6033TIP3    H239591   4.236   6.019   5.425 -0.0574 -1.5900  2.1804
 6034TIP3   OH239592   2.493   6.609  17.102  0.5313  0.2536  0.0449
 6034TIP3    H139593   2.528   6.538  17.155  0.3632 -0.0595 -0.2603
 6034TIP3    H239594   2.570   6.661  17.079  0.9944 -1.0539 -1.5634
 6035TIP3   OH239595   5.056   3.073   2.906 -0.3402 -0.1035 -0.4953
 6035TIP3    H139596   5.082   3.147   2.961 -1.3341  0.3278 -0.5722
 6035TIP3    H239597   5.027   3.114   2.824 -2.9090 -0.3617  0.1974
 6036TIP3   OH239598   2.517   0.529   5.767 -0.0214 -0.3029  0.6152
 6036TIP3    H139599   2.529   0.616   5.808  2.7483 -0.0486 -0.4815
 6036TIP3    H239600   2.456   0.545   5.695 -1.5876  0.1424  1.9829
 6037TIP3   OH239601   0.915   3.677   6.523  0.0148  0.3281 -0.1931
 6037TIP3    H139602   0.994   3.645   6.565 -1.6179 -3.1871  0.5373
 6037TIP3    H239603   0.859   3.706   6.595 -0.3197  0.4416 -0.4935
 6038TIP3   OH239604   3.956   6.267  16.866  0.4967  0.3221 -0.2351
 6038TIP3    H139605   3.902   6.343  16.887  0.2752  0.1618 -0.2140
 6038TIP3    H239606   3.914   6.195  16.913  1.2756  0.3639  0.5546
 6039TIP3   OH239607   2.374   1.874   6.362  0.1552 -0.2469 -0.6052
 6039TIP3    H139608   2.282   1.848   6.372  0.0179  0.6947  0.7758
 6039TIP3    H239609   2.416   1.845   6.442  0.9633 -0.2057 -1.0087
 6040TIP3   OH239610   3.317   0.004   0.461 -0.0249 -0.5043 -0.6073
 6040TIP3    H139611   3.405   0.042   0.459  0.0305 -0.6025  0.0043
 6040TIP3    H239612   3.313  -0.044   0.543 -1.2786  0.9984  0.2695
 6041TIP3   OH239613   5.495   1.795  15.820  0.2907  0.0220 -0.0773
 6041TIP3    H139614   5.420   1.763  15.772 -0.1283  1.1599 -0.2107
 6041TIP3    H239615   5.486   1.891  15.819  1.7261  0.1806 -0.0888
 6042TIP3   OH239616   4.872   3.985   1.691 -0.3797 -0.2268 -0.3508
 6042TIP3    H139617   4.908   3.905   1.653 -0.3652 -0.7938  0.8057
 6042TIP3    H239618   4.881   4.051   1.622 -0.6808 -1.2850 -1.4300
 6043TIP3   OH239619   2.904   3.343   0.379 -0.2367  0.5380  0.1847
 6043TIP3    H139620   2.917   3.437   0.393 -1.3072  0.9421 -1.3314
 6043TIP3    H239621   2.861   3.312   0.459  2.0936  0.8508  1.6446
 6044TIP3   OH239622   4.933   2.571   1.761 -0.1967 -0.0241  0.1848
 6044TIP3    H139623   4.950   2.657   1.723  0.2587 -0.0728  0.2663
 6044TIP3    H239624   4.964   2.509   1.696 -1.3921 -0.1552 -0.2847
 6045TIP3   OH239625   1.454   0.100  11.945  0.1761  0.3549  0.6545
 6045TIP3    H139626   1.411   0.063  11.868  0.7060  3.7802 -1.5061
 6045TIP3    H239627   1.383   0.140  11.995 -0.1797 -1.9386  2.1650
 6046TIP3   OH239628   3.691   3.476  15.157  0.2787 -0.1330 -0.3242
 6046TIP3    H139629   3.667   3.532  15.230  0.5588 -0.6420  0.1640
 6046TIP3    H239630   3.756   3.527  15.108  2.1236 -0.7962  1.2713
 6047TIP3   OH239631   0.134   4.633  12.292 -0.2967  0.3017 -0.0494
 6047TIP3    H139632   0.068   4.678  12.345 -0.8961  0.6940 -1.0962
 6047TIP3    H239633   0.120   4.666  12.203  0.4121 -0.6412 -0.5279
 6048TIP3   OH239634   3.117   2.375  14.437 -0.1992 -0.0213 -0.3381
 6048TIP3    H139635   3.105   2.470  14.427 -0.7865 -0.2050 -1.4797
 6048TIP3    H239636   3.028   2.341  14.446 -0.0106 -0.5121 -0.3419
 6049TIP3   OH239637   4.494   1.171  12.196 -0.2553 -0.4184 -0.0423
 6049TIP3    H139638   4.567   1.216  12.153 -0.4404  1.6516  1.6111
 6049TIP3    H239639   4.505   1.192  12.289 -1.5831 -2.1310  0.5533
 6050TIP3   OH239640   3.054   2.104   5.910 -0.3746 -0.3804 -0.2101
 6050TIP3    H139641   3.107   2.107   5.989 -1.0266  0.9015  0.2019
 6050TIP3    H239642   3.016   2.016   5.910  0.3751 -0.7125  0.4015
 6051TIP3   OH239643   0.236   0.488  12.730 -0.6908  0.6156 -0.4638
 6051TIP3    H139644   0.212   0.455  12.816 -0.4167  1.4931 -0.0410
 6051TIP3    H239645   0.266   0.578  12.746  2.3359 -0.1855 -0.9902
 6052TIP3   OH239646   2.611   2.517  17.149  0.2626 -0.3534 -0.0616
 6052TIP3    H139647   2.603   2.520  17.244  0.0260  2.0171 -0.0743
 6052TIP3    H239648   2.533   2.563  17.117  0.5049 -0.8101 -1.3733
 6053TIP3   OH239649   6.356   1.864  16.815 -0.1324  0.0650 -0.0673
 6053TIP3    H139650   6.380   1.771  16.814 -1.2641 -0.2564  0.4797
 6053TIP3    H239651   6.340   1.883  16.907 -0.7177  0.5791 -0.2688
 6054TIP3   OH239652   4.707   4.613  11.422  0.0134  0.1812  0.4927
 6054TIP3    H139653   4.667   4.527  11.411  0.3382  0.3213 -2.8624
 6054TIP3    H239654   4.655   4.671  11.367  0.5679  1.8889  1.6796
 6055TIP3   OH239655   5.803   3.547   4.913  0.6488  0.2201  0.5837
 6055TIP3    H139656   5.837   3.627   4.873 -2.0313  0.7168 -0.9400
 6055TIP3    H239657   5.752   3.506   4.844  2.1005 -3.0178  1.2470
 6056TIP3   OH239658   1.462   1.607  16.631  0.2907  0.2039  0.0438
 6056TIP3    H139659   1.380   1.604  16.581 -0.9609  0.1474  1.9880
 6056TIP3    H239660   1.453   1.686  16.685  1.3040 -0.0873  0.6508
 6057TIP3   OH239661   5.582   6.434   1.198  0.4768  0.1522  0.0404
 6057TIP3    H139662   5.509   6.420   1.137  0.7929  2.8433 -1.0814
 6057TIP3    H239663   5.653   6.379   1.163  0.9805  2.3410 -2.8042
 6058TIP3   OH239664   0.416   5.054   6.454 -0.4153 -0.1964  0.4829
 6058TIP3    H139665   0.367   5.048   6.536  2.6133  0.2802  2.4745
 6058TIP3    H239666   0.405   4.968   6.413 -0.7618 -0.9648  2.1446
 6059TIP3   OH239667   6.675   1.225   3.913  0.5250 -0.5149  0.3662
 6059TIP3    H139668   6.758   1.265   3.887  0.2468  0.6504  1.1830
 6059TIP3    H239669   6.642   1.184   3.834  2.9382 -2.9944  0.5042
 6060TIP3   OH239670   5.773   2.842   2.305 -0.1630  0.4846  0.3431
 6060TIP3    H139671   5.691   2.794   2.299  0.6915 -0.9360 -0.5887
 6060TIP3    H239672   5.775   2.897   2.227  0.5767 -0.8953 -0.6642
 6061TIP3   OH239673   6.311   0.065   4.196  0.0061 -0.4302  0.3994
 6061TIP3    H139674   6.331  -0.025   4.173  1.8130 -0.4646  1.8777
 6061TIP3    H239675   6.258   0.059   4.276 -0.1928 -0.1819  0.2909
 6062TIP3   OH239676   6.103   1.699  13.227  0.2417 -0.2109  0.2177
 6062TIP3    H139677   6.060   1.638  13.167  0.0201 -0.0007  0.1633
 6062TIP3    H239678   6.059   1.685  13.311 -0.1404  0.2169  0.0927
 6063TIP3   OH239679   5.467   5.420  12.222  0.1503 -0.0053 -0.8213
 6063TIP3    H139680   5.374   5.437  12.208  0.1155 -0.6337 -1.4155
 6063TIP3    H239681   5.470   5.373  12.305 -0.2576 -1.4949 -1.6015
 6064TIP3   OH239682   5.117   3.766  11.401  0.2956 -0.0278  0.4432
 6064TIP3    H139683   5.109   3.799  11.491 -0.9678 -1.6315  0.9501
 6064TIP3    H239684   5.108   3.844  11.346 -2.9720  0.5438  1.5814
 6065TIP3   OH239685   1.891   3.760  13.787 -0.3301 -0.0627 -0.0426
 6065TIP3    H139686   1.806   3.720  13.805 -0.7120  1.2169  1.1875
 6065TIP3    H239687   1.877   3.812  13.708  0.1044 -2.0654 -1.5006
 6066TIP3   OH239688   5.625   2.264  15.686 -0.0625  0.3226 -0.6907
 6066TIP3    H139689   5.716   2.237  15.698 -0.0042  0.0083 -1.7277
 6066TIP3    H239690   5.607   2.323  15.759  1.0746  0.6333 -0.6446
 6067TIP3   OH239691   6.083   0.244   0.536  0.3678 -0.1894 -0.2621
 6067TIP3    H139692   6.074   0.214   0.446  0.7471 -1.3415  0.0729
 6067TIP3    H239693   6.010   0.203   0.583  0.7763 -0.4435  0.1627
 6068TIP3   OH239694   5.945   2.422   1.465 -0.1882  0.0789 -0.3236
 6068TIP3    H139695   5.893   2.351   1.427 -0.1165  0.2765 -0.7918
 6068TIP3    H239696   5.922   2.421   1.558 -1.9542  0.9276 -0.7042
 6069TIP3   OH239697   4.961   4.863  13.031 -0.5422  0.4970 -0.3769
 6069TIP3    H139698   4.926   4.778  13.006  0.3623  0.3461 -1.1992
 6069TIP3    H239699   4.884   4.916  13.051 -1.2101  0.0217 -1.5827
 6070TIP3   OH239700   5.670   4.576  13.214  0.0683 -0.4832 -0.2457
 6070TIP3    H139701   5.693   4.668  13.201 -0.3889 -0.2385  0.6183
 6070TIP3    H239702   5.640   4.571  13.305  1.3049 -1.7347  0.1221
 6071TIP3   OH239703   1.614   3.311   2.085 -0.1545  0.3357 -0.1235
 6071TIP3    H139704   1.530   3.334   2.045  0.4366  1.8738 -0.5512
 6071TIP3    H239705   1.678   3.324   2.015  0.5437  0.0506  0.4454
 6072TIP3   OH239706   3.338   2.105  15.263 -0.0612 -0.3761  0.1206
 6072TIP3    H139707   3.260   2.056  15.288 -0.4121 -0.5116 -1.1955
 6072TIP3    H239708   3.306   2.174  15.205  0.7960 -0.3901 -0.3896
 6073TIP3   OH239709   1.028   5.824  14.813 -0.1750  0.0745  0.2212
 6073TIP3    H139710   1.112   5.818  14.768 -0.2330  1.8492 -0.1958
 6073TIP3    H239711   0.968   5.773  14.758  0.1190  0.8224 -0.8255
 6074TIP3   OH239712   1.604   3.290  14.180  0.4909  0.1384  0.4838
 6074TIP3    H139713   1.605   3.374  14.135  0.7795  0.2106  0.6190
 6074TIP3    H239714   1.603   3.225  14.109  0.4965  0.2550  0.3768
 6075TIP3   OH239715   3.709   3.780  12.938 -0.0798  0.0339  0.5082
 6075TIP3    H139716   3.786   3.830  12.967 -0.6221  1.3076 -0.1781
 6075TIP3    H239717   3.656   3.770  13.016  1.0637 -1.4793  1.1646
 6076TIP3   OH239718   1.927   3.004  11.804  0.6715 -0.0113  0.0233
 6076TIP3    H139719   1.898   3.014  11.894  0.8691  1.8313 -0.0664
 6076TIP3    H239720   2.020   3.030  11.805  0.9114 -0.8039 -0.5632
 6077TIP3   OH239721   0.208   4.046  12.359 -0.1413  0.2679 -0.0600
 6077TIP3    H139722   0.193   4.054  12.265 -1.2670  0.1802  0.1061
 6077TIP3    H239723   0.144   3.982  12.389 -0.5694  1.1348  0.9497
 6078TIP3   OH239724   0.131   5.666   2.458  0.2592 -0.2237 -0.0651
 6078TIP3    H139725   0.148   5.572   2.448  2.1315  0.2538 -2.0782
 6078TIP3    H239726   0.074   5.688   2.384  0.7160  0.4325 -0.2217
 6079TIP3   OH239727   0.998   1.874   1.192  0.6604 -0.5729  0.0686
 6079TIP3    H139728   1.005   1.837   1.104  2.1235 -0.9935  0.3323
 6079TIP3    H239729   1.011   1.799   1.251  3.9548  0.2639  0.6104
 6080TIP3   OH239730   5.433   4.995   2.237 -0.0004 -0.3383  0.2529
 6080TIP3    H139731   5.481   4.940   2.174 -0.0111 -1.1128  0.9026
 6080TIP3    H239732   5.487   4.993   2.316 -0.6307 -0.4416  0.6820
 6081TIP3   OH239733   5.712   3.654  13.010 -0.1182 -0.7998 -0.3129
 6081TIP3    H139734   5.786   3.593  13.014  2.1460  1.6515 -1.5868
 6081TIP3    H239735   5.663   3.627  12.933  0.1352 -1.7356 -0.1538
 6082TIP3   OH239736   3.883   0.235  11.477 -0.1029  0.1630 -0.2992
 6082TIP3    H139737   3.828   0.184  11.537 -0.6324  2.0417  0.9054
 6082TIP3    H239738   3.831   0.242  11.397 -0.8573  0.3983  0.2007
 6083TIP3   OH239739   5.267   2.381   4.486  0.1649 -0.3539  0.8331
 6083TIP3    H139740   5.181   2.395   4.445  0.2428  2.2195  1.3880
 6083TIP3    H239741   5.323   2.352   4.414 -0.4115  1.1747 -0.2848
 6084TIP3   OH239742   3.412   4.378  10.855 -0.0207 -0.9621  0.3680
 6084TIP3    H139743   3.490   4.354  10.905  1.6918  0.6369 -1.3654
 6084TIP3    H239744   3.367   4.442  10.911  0.1566 -1.5527  1.2005
 6085TIP3   OH239745   0.660   1.514   2.979 -0.5119 -0.2407  0.0575
 6085TIP3    H139746   0.670   1.591   3.034 -1.1015  0.1706 -0.4098
 6085TIP3    H239747   0.750   1.492   2.951 -0.5086  1.3995 -1.3446
 6086TIP3   OH239748   1.860   6.101   4.202  0.7289  0.0006 -0.1258
 6086TIP3    H139749   1.930   6.148   4.248  0.8309 -0.5305  0.2750
 6086TIP3    H239750   1.798   6.170   4.176  1.3186  0.4595 -0.3498
 6087TIP3   OH239751   2.919   3.471   5.716 -0.1366 -0.1143 -0.0648
 6087TIP3    H139752   2.990   3.415   5.748  0.6565  0.9519  0.1048
 6087TIP3    H239753   2.866   3.487   5.794 -0.5313 -0.8442 -0.1727
 6088TIP3   OH239754   2.139   2.147  10.764  0.5838 -0.0296  0.2258
 6088TIP3    H139755   2.148   2.060  10.802 -1.0711 -0.5703 -0.5074
 6088TIP3    H239756   2.045   2.165  10.768  0.6603  0.9187 -1.3094
 6089TIP3   OH239757   4.556   2.334   1.849  0.3709  0.1758 -0.5395
 6089TIP3    H139758   4.621   2.295   1.908  0.0092 -2.0585 -1.5174
 6089TIP3    H239759   4.508   2.395   1.904  2.4839  1.0162  0.5076
 6090TIP3   OH239760   4.564   6.648  15.679  0.0095  1.3343  0.3398
 6090TIP3    H139761   4.634   6.689  15.730  1.4625  1.7884 -1.8642
 6090TIP3    H239762   4.486   6.699  15.701  0.0448  0.1545  3.6575
 6091TIP3   OH239763   2.817   3.565  16.335 -0.3108 -0.6893 -0.1143
 6091TIP3    H139764   2.754   3.623  16.292 -0.8143  0.3150  1.8304
 6091TIP3    H239765   2.763   3.498  16.376 -0.0196 -0.5781  0.4645
 6092TIP3   OH239766   6.182   2.641   1.754 -0.4048  0.4336 -0.1739
 6092TIP3    H139767   6.256   2.597   1.796  0.2429  0.4792 -1.2401
 6092TIP3    H239768   6.193   2.733   1.777 -0.9285  0.2662  0.8191
 6093TIP3   OH239769   6.370   0.636  14.132  0.2109  0.5221 -0.2261
 6093TIP3    H139770   6.281   0.613  14.106  0.4947 -0.0276 -0.7441
 6093TIP3    H239771   6.424   0.563  14.100  0.6577  0.1060  1.3729
 6094TIP3   OH239772   1.269   2.516   3.618  0.4876  0.4044  0.5389
 6094TIP3    H139773   1.268   2.483   3.528 -1.3448  1.8986 -0.0547
 6094TIP3    H239774   1.177   2.518   3.644  0.6188  3.4534  1.0874
 6095TIP3   OH239775   2.343   2.970  12.462 -0.4454  0.1884 -0.1075
 6095TIP3    H139776   2.379   2.907  12.400  0.7476  0.6980  0.0408
 6095TIP3    H239777   2.270   3.011  12.415  0.3641  0.4818 -1.1367
 6096TIP3   OH239778   4.597   3.581   0.729 -0.3648  0.2598  0.2584
 6096TIP3    H139779   4.524   3.534   0.689 -0.5703 -0.0427  0.9797
 6096TIP3    H239780   4.669   3.517   0.730 -0.7145 -0.1224  1.4553
 6097TIP3   OH239781   4.661   4.461   1.201  0.2193  0.4887  0.1908
 6097TIP3    H139782   4.649   4.555   1.216  1.5672  0.5061  1.3246
 6097TIP3    H239783   4.755   4.450   1.187 -0.0999 -0.5135 -1.4329
 6098TIP3   OH239784   6.662   5.116  11.244 -0.5008 -0.1424  0.5144
 6098TIP3    H139785   6.741   5.072  11.213  0.2614  1.2808  0.3244
 6098TIP3    H239786   6.606   5.122  11.167 -0.7104 -0.9489  0.5947
 6099TIP3   OH239787   0.973   0.736   2.935  0.2045  0.1135  0.1909
 6099TIP3    H139788   0.987   0.679   3.011 -0.0672  0.5827  0.6002
 6099TIP3    H239789   0.892   0.783   2.955  0.4868  0.7251 -0.0863
 6100TIP3   OH239790   6.702   2.717   2.672  0.1054 -0.3552  0.0367
 6100TIP3    H139791   6.733   2.743   2.759 -0.7759  1.6816 -0.1811
 6100TIP3    H239792   6.624   2.664   2.689 -0.4112  0.5273  0.5135
 6101TIP3   OH239793   3.481   3.377   6.227  0.6355  0.0456  0.2325
 6101TIP3    H139794   3.534   3.338   6.296 -1.2358 -1.8328  0.7180
 6101TIP3    H239795   3.537   3.445   6.189  2.9577 -1.1124  1.3734
 6102TIP3   OH239796   5.255   2.187  14.644 -0.3243 -0.0462 -0.2117
 6102TIP3    H139797   5.222   2.221  14.561 -0.1269 -1.6760 -1.0040
 6102TIP3    H239798   5.299   2.105  14.620 -0.2371 -0.5316  1.5035
 6103TIP3   OH239799   1.995   5.931  16.741  0.5336  0.1450  0.0483
 6103TIP3    H139800   1.975   5.889  16.658  1.4443 -0.6479  0.2133
 6103TIP3    H239801   2.077   5.892  16.769 -0.0353 -0.0250  1.5957
 6104TIP3   OH239802   1.157   2.464   5.199  0.1665  0.3945  0.1053
 6104TIP3    H139803   1.063   2.464   5.181  0.0843 -0.9966  0.4060
 6104TIP3    H239804   1.198   2.475   5.113 -0.2597  1.8810  0.0696
 6105TIP3   OH239805   0.366   0.245  14.684 -0.5921 -0.0806  0.4576
 6105TIP3    H139806   0.275   0.227  14.705  0.0692 -3.8077  0.9260
 6105TIP3    H239807   0.372   0.230  14.589 -0.1889 -1.9488  0.7271
 6106TIP3   OH239808   5.509   3.331  12.174  0.2343 -0.3310  0.3156
 6106TIP3    H139809   5.538   3.391  12.243 -1.3031  1.5886 -0.5786
 6106TIP3    H239810   5.563   3.354  12.098  1.7986 -2.3116  0.7452
 6107TIP3   OH239811   5.848   0.753  13.196  0.4533  0.0727 -0.1938
 6107TIP3    H139812   5.894   0.835  13.211  0.1295  0.3995 -0.9497
 6107TIP3    H239813   5.909   0.685  13.227  0.7481  0.5849  0.3629
 6108TIP3   OH239814   0.728   4.097   4.030  0.5719  0.4108  0.3493
 6108TIP3    H139815   0.662   4.049   4.081 -0.3930  0.2363 -0.9816
 6108TIP3    H239816   0.807   4.093   4.082  0.1743 -1.5500  0.8816
 6109TIP3   OH239817   0.496   0.327  15.426  0.2943 -0.3167 -0.6116
 6109TIP3    H139818   0.499   0.383  15.349 -2.3618 -1.0003 -1.3188
 6109TIP3    H239819   0.557   0.367  15.488  1.4131  1.0602 -2.5164
 6110TIP3   OH239820   6.730   1.887   5.179 -0.7016 -0.2929 -0.5162
 6110TIP3    H139821   6.709   1.961   5.123 -0.3434 -0.4054 -0.8062
 6110TIP3    H239822   6.682   1.813   5.141 -1.0412 -0.2151 -0.2407
 6111TIP3   OH239823   2.559   4.644   0.391  0.2498  0.1794 -0.5695
 6111TIP3    H139824   2.641   4.640   0.440  0.7407 -1.5602 -1.4544
 6111TIP3    H239825   2.541   4.553   0.366 -1.4985  0.6306 -1.1418
 6112TIP3   OH239826   1.112   5.722  16.219 -0.5095 -0.6380 -0.1269
 6112TIP3    H139827   1.198   5.694  16.188  0.5036  0.7206  1.2791
 6112TIP3    H239828   1.053   5.709  16.144  0.8878 -1.6745 -1.0819
 6113TIP3   OH239829   3.012   1.287   5.376 -0.4408 -0.1470 -0.4054
 6113TIP3    H139830   3.013   1.316   5.284 -1.0863  0.0767 -0.3474
 6113TIP3    H239831   3.099   1.249   5.390  0.0625  0.8201 -0.7909
 6114TIP3   OH239832   4.281   0.673   3.189 -0.3071  0.6954  0.1251
 6114TIP3    H139833   4.320   0.758   3.166  1.3300  0.2432  1.0251
 6114TIP3    H239834   4.355   0.623   3.224 -1.9474  0.1772  3.1076
 6115TIP3   OH239835   6.588   0.069  16.875 -0.5930  0.1116 -0.2094
 6115TIP3    H139836   6.602   0.140  16.813 -1.2270  0.2044 -0.2538
 6115TIP3    H239837   6.510   0.025  16.843 -0.9150  0.1498  0.5067
 6116TIP3   OH239838   2.088   0.691   2.498 -0.5477 -0.2569  0.4979
 6116TIP3    H139839   2.166   0.635   2.491  0.1440  0.8450 -1.2795
 6116TIP3    H239840   2.121   0.775   2.528 -0.6649  0.8302 -2.1645
 6117TIP3   OH239841   4.103   4.236   5.709 -0.3080 -0.6308  0.4112
 6117TIP3    H139842   4.116   4.174   5.637 -2.0130  1.2992 -1.7408
 6117TIP3    H239843   4.029   4.199   5.758  0.1770 -1.4266  0.5722
 6118TIP3   OH239844   5.605   3.035   3.461 -0.7637  0.9519 -0.4595
 6118TIP3    H139845   5.594   3.027   3.555  1.0219 -0.4060 -0.3049
 6118TIP3    H239846   5.655   3.117   3.450 -0.5165  0.8447 -0.1665
 6119TIP3   OH239847   2.694   1.646  16.029 -0.6247 -0.0215 -0.0731
 6119TIP3    H139848   2.774   1.698  16.029 -0.5245 -0.1725  0.1080
 6119TIP3    H239849   2.712   1.574  16.090 -0.4246 -0.7796 -1.0050
 6120TIP3   OH239850   3.485   2.840  12.659  0.2035  0.0179  0.5148
 6120TIP3    H139851   3.565   2.787  12.656 -0.1918 -0.5543 -0.6994
 6120TIP3    H239852   3.484   2.878  12.746  2.3582  0.8744  0.2323
 6121TIP3   OH239853   2.605   4.040  15.298 -0.0024  0.0483  0.0213
 6121TIP3    H139854   2.518   4.080  15.311  0.1832  0.5309 -0.1959
 6121TIP3    H239855   2.661   4.086  15.361  0.2178  0.1317 -0.2377
 6122TIP3   OH239856   0.809   1.677   4.674  0.0580 -0.6308  0.0644
 6122TIP3    H139857   0.772   1.740   4.612 -1.2850 -0.3813  1.0743
 6122TIP3    H239858   0.803   1.593   4.629 -1.4513 -0.5395  0.0380
 6123TIP3   OH239859   5.769   2.738   5.764 -0.5129  0.3148 -0.4223
 6123TIP3    H139860   5.675   2.725   5.778 -0.5184  0.4133 -0.3657
 6123TIP3    H239861   5.805   2.744   5.853 -0.5749  1.1523 -0.4476
 6124TIP3   OH239862   2.282   1.836  11.051 -0.3991 -0.7306  0.6756
 6124TIP3    H139863   2.373   1.810  11.060  0.2590  0.2217 -2.2166
 6124TIP3    H239864   2.238   1.758  11.015 -0.0060 -0.2328 -0.9466
 6125TIP3   OH239865   6.232   1.919  16.319 -0.2388  0.9617 -0.0531
 6125TIP3    H139866   6.155   1.864  16.306  0.0972  0.2030  0.9972
 6125TIP3    H239867   6.220   1.992  16.258 -0.8606 -0.0884 -1.2504
 6126TIP3   OH239868   3.079   1.319  16.711  0.3043 -0.4705 -0.1225
 6126TIP3    H139869   3.075   1.376  16.788  0.1721 -2.7379  1.6472
 6126TIP3    H239870   2.990   1.318  16.677  0.2020 -0.0188  0.1231
 6127TIP3   OH239871   2.442   4.436  13.686  0.1867 -0.3328  0.4776
 6127TIP3    H139872   2.425   4.479  13.602 -1.6715  0.8537  1.3900
 6127TIP3    H239873   2.452   4.508  13.748  0.5082 -1.2091  1.4685
 6128TIP3   OH239874   0.004   3.511  16.525  0.7643  0.0812 -0.7114
 6128TIP3    H139875   0.036   3.514  16.616 -0.4868  0.2597 -0.2473
 6128TIP3    H239876  -0.055   3.587  16.519  1.0119  0.1992 -1.7475
 6129TIP3   OH239877   1.964   4.221   1.174 -0.0351  0.0514 -0.3631
 6129TIP3    H139878   2.032   4.167   1.213  0.0995  0.8094  0.4817
 6129TIP3    H239879   2.000   4.246   1.088 -0.1023 -1.1657 -0.7633
 6130TIP3   OH239880   4.813   6.758   1.062 -0.6023 -0.2314  0.1076
 6130TIP3    H139881   4.868   6.814   1.007  0.5526  0.8106  2.2171
 6130TIP3    H239882   4.848   6.670   1.049  0.6754  0.2184  0.3328
 6131TIP3   OH239883   1.045   4.579  14.232 -0.1662 -0.1817 -0.3629
 6131TIP3    H139884   1.102   4.652  14.255 -2.2163  1.0032  1.3406
 6131TIP3    H239885   0.980   4.617  14.173  0.5639 -1.4515 -2.0830
 6132TIP3   OH239886   2.436   4.100  14.435 -0.2227 -0.0434  0.4909
 6132TIP3    H139887   2.365   4.066  14.382  0.8432 -1.4851 -0.0819
 6132TIP3    H239888   2.436   4.194  14.417 -1.9616 -0.0080  0.5227
 6133TIP3   OH239889   5.518   5.979   3.043  0.3973  0.0022 -0.0558
 6133TIP3    H139890   5.468   5.900   3.025 -0.9417  0.7995  0.0382
 6133TIP3    H239891   5.457   6.037   3.089  1.8985  0.3847  1.5764
 6134TIP3   OH239892   5.786   4.947   5.674  0.0189  0.3020  0.1102
 6134TIP3    H139893   5.874   4.984   5.679  0.7935 -1.0111 -2.1855
 6134TIP3    H239894   5.796   4.858   5.707 -0.1567 -0.2273 -1.2113
 6135TIP3   OH239895   2.281   2.960  11.292 -0.0337 -0.1630  0.7606
 6135TIP3    H139896   2.267   2.925  11.204 -2.4972  0.1862  0.9192
 6135TIP3    H239897   2.260   3.054  11.284 -0.6391 -0.1944  1.7492
 6136TIP3   OH239898   0.560   4.133   0.172  0.0179 -0.4570  0.1056
 6136TIP3    H139899   0.517   4.182   0.242  0.9305  0.2847  0.1600
 6136TIP3    H239900   0.533   4.178   0.092 -1.2164 -1.4468 -0.0686
 6137TIP3   OH239901   5.604   3.849   4.491 -0.0666  0.2857  0.3089
 6137TIP3    H139902   5.549   3.837   4.413  0.2503  0.5043  0.0510
 6137TIP3    H239903   5.652   3.767   4.499  0.0099  0.3168  0.1840
 6138TIP3   OH239904   2.787   4.572   4.433  0.1001  0.8029  0.2185
 6138TIP3    H139905   2.821   4.483   4.421 -0.8696  0.5342 -0.6701
 6138TIP3    H239906   2.701   4.571   4.392  0.3704  2.3532 -0.4912
 6139TIP3   OH239907   5.926   0.106   2.105 -0.3569 -0.2625  0.6634
 6139TIP3    H139908   5.912   0.187   2.154 -0.7461 -0.5307  0.9959
 6139TIP3    H239909   5.886   0.038   2.158 -3.2130 -0.2314 -1.2312
 6140TIP3   OH239910   2.034   6.074   1.775 -0.2468 -0.4113 -0.4822
 6140TIP3    H139911   1.947   6.067   1.735 -1.1273 -1.3814  1.4464
 6140TIP3    H239912   2.055   5.985   1.802  0.7293  0.0478  0.3188
 6141TIP3   OH239913   0.268   0.044   1.883  0.6696 -0.4471 -0.1664
 6141TIP3    H139914   0.285  -0.033   1.829  1.3755 -1.0637  0.8938
 6141TIP3    H239915   0.265   0.116   1.821  3.5890 -0.8085 -0.8715
 6142TIP3   OH239916   1.435   6.228  16.915 -0.2878  0.0066 -0.3229
 6142TIP3    H139917   1.521   6.210  16.954 -1.0179  0.9513  1.8703
 6142TIP3    H239918   1.455   6.281  16.838  1.0512  2.1257  1.3642
 6143TIP3   OH239919   2.654   0.281   5.430 -0.1212 -0.3161  0.5176
 6143TIP3    H139920   2.659   0.185   5.434  0.4772 -0.2701  1.2058
 6143TIP3    H239921   2.675   0.309   5.519  0.3249  0.4755  0.1693
 6144TIP3   OH239922   0.785   0.020   5.917 -0.9970 -0.0251  0.2635
 6144TIP3    H139923   0.778   0.104   5.872 -2.6650 -0.6822 -0.7821
 6144TIP3    H239924   0.737   0.033   5.999 -2.2739 -0.2706 -0.4232
 6145TIP3   OH239925   0.483   0.230   2.641  0.0759  0.0480 -0.1578
 6145TIP3    H139926   0.553   0.279   2.686  0.8911 -1.3482  0.1363
 6145TIP3    H239927   0.402   0.272   2.671  0.7693  2.0626 -0.9284
 6146TIP3   OH239928   6.498   1.744   4.108 -0.1616  0.0604 -0.1696
 6146TIP3    H139929   6.417   1.694   4.119 -0.9553  1.7782  2.7769
 6146TIP3    H239930   6.473   1.816   4.050  0.2538 -1.2364 -2.0736
 6147TIP3   OH239931   5.882   1.001  15.263 -0.1841 -0.3706 -0.4217
 6147TIP3    H139932   5.917   1.017  15.350 -1.4047  3.0005 -0.4136
 6147TIP3    H239933   5.802   0.950  15.279 -0.1516 -0.1801  0.4174
 6148TIP3   OH239934   1.971   2.117  14.238 -0.3095 -0.4220 -0.0822
 6148TIP3    H139935   2.009   2.070  14.163 -3.0486 -2.0518 -0.5953
 6148TIP3    H239936   1.943   2.200  14.202 -0.7573 -0.8147 -0.6624
 6149TIP3   OH239937   6.207   3.327  15.531  0.2331  0.0277 -0.2504
 6149TIP3    H139938   6.225   3.252  15.475 -0.9773 -0.5063  0.0573
 6149TIP3    H239939   6.214   3.293  15.620 -1.1396  0.0621 -0.1127
 6150TIP3   OH239940   0.096   3.603  16.781  0.3935  0.0900 -0.4218
 6150TIP3    H139941   0.141   3.675  16.826 -1.2043  0.5531  0.5473
 6150TIP3    H239942   0.108   3.528  16.839  1.7751 -0.3788 -1.2689
 6151TIP3   OH239943   6.415   1.145   2.822  0.5595 -0.1056  0.1379
 6151TIP3    H139944   6.417   1.241   2.820 -0.4019 -0.0690  0.2490
 6151TIP3    H239945   6.342   1.124   2.880  0.1182 -0.9027 -0.6821
 6152TIP3   OH239946   6.428   1.605   3.540 -0.1942  0.0736  0.0203
 6152TIP3    H139947   6.410   1.664   3.466  1.6011 -0.7859 -1.1852
 6152TIP3    H239948   6.439   1.664   3.615 -0.9360  1.0681 -0.6254
 6153TIP3   OH239949   4.666   5.262  17.056 -0.2678  0.1363 -0.3302
 6153TIP3    H139950   4.677   5.241  17.149 -2.5641  1.4313  0.3253
 6153TIP3    H239951   4.677   5.178  17.011 -2.2990 -1.2031  1.4542
 6154TIP3   OH239952   5.862   1.478   4.902 -0.2274  0.2671  0.3391
 6154TIP3    H139953   5.767   1.471   4.902 -0.1142 -2.3528 -0.0096
 6154TIP3    H239954   5.885   1.499   4.993 -1.0668 -1.7118  1.0640
 6155TIP3   OH239955   0.327   4.791   1.894 -0.7548  0.4116  0.0972
 6155TIP3    H139956   0.237   4.818   1.875 -0.8948  0.0217  0.1931
 6155TIP3    H239957   0.320   4.698   1.916 -0.2762  0.2922 -0.2395
 6156TIP3   OH239958   3.901   3.743  15.179 -0.3986 -0.4792  0.3994
 6156TIP3    H139959   3.979   3.754  15.233  0.4090 -0.9111 -0.6489
 6156TIP3    H239960   3.848   3.820  15.197  0.4567  0.0173  0.8287
 6157TIP3   OH239961   5.946   6.366   3.539 -0.4603 -0.1150 -0.0601
 6157TIP3    H139962   5.894   6.303   3.587 -0.5702 -0.2252 -0.3234
 6157TIP3    H239963   5.886   6.438   3.520 -0.2291  0.2595  0.6001
 6158TIP3   OH239964   5.323   6.557  13.898 -0.0039 -0.2755 -0.1617
 6158TIP3    H139965   5.315   6.646  13.933  0.3614  0.1564 -1.1256
 6158TIP3    H239966   5.366   6.507  13.967 -0.0423  0.3519  0.3181
 6159TIP3   OH239967   1.589   0.853   1.689  0.3072  0.6747 -0.3532
 6159TIP3    H139968   1.543   0.794   1.749  0.9842  1.1577  0.6540
 6159TIP3    H239969   1.613   0.797   1.615 -0.5952  0.0875 -0.2118
 6160TIP3   OH239970   5.128   1.426  14.306  0.8039 -0.3817 -0.1716
 6160TIP3    H139971   5.096   1.473  14.230  0.5709 -3.0059 -1.8096
 6160TIP3    H239972   5.209   1.383  14.276 -0.0731 -2.6752  0.5225
 6161TIP3   OH239973   1.682   2.782  12.873 -0.2024 -0.0853 -0.3885
 6161TIP3    H139974   1.653   2.701  12.831  1.0149 -1.0749  0.6226
 6161TIP3    H239975   1.658   2.851  12.810 -3.5343 -0.8923 -0.2105
 6162TIP3   OH239976   0.334   2.125  15.698 -0.1657 -0.0539 -0.6106
 6162TIP3    H139977   0.298   2.113  15.786 -0.3904 -0.0289 -0.6988
 6162TIP3    H239978   0.366   2.216  15.697  2.3471 -0.8537  0.3605
 6163TIP3   OH239979   5.561   0.551  15.770  0.0441 -0.1722 -0.4807
 6163TIP3    H139980   5.563   0.601  15.852  1.3121 -0.3459 -0.3791
 6163TIP3    H239981   5.477   0.506  15.771 -2.6323  4.2113 -1.9918
 6164TIP3   OH239982   2.667   6.520   0.600  0.0048  0.8788  0.3339
 6164TIP3    H139983   2.636   6.430   0.612  0.4856  0.8221  1.2550
 6164TIP3    H239984   2.728   6.534   0.673  0.4680  1.7137 -0.2016
 6165TIP3   OH239985   4.030   2.906   0.710 -0.1574  0.1239  0.0901
 6165TIP3    H139986   3.988   2.947   0.785  0.2279 -0.0673  0.4126
 6165TIP3    H239987   4.051   2.818   0.739  0.1353  0.0990 -0.1888
 6166TIP3   OH239988   4.870   4.680  10.239 -0.3731 -0.0560  0.2681
 6166TIP3    H139989   4.836   4.758  10.282 -1.0494 -0.6337  0.8015
 6166TIP3    H239990   4.896   4.710  10.152  1.7619  1.3258  1.2880
 6167TIP3   OH239991   6.046   5.805   5.481 -0.1213  0.1879  0.0425
 6167TIP3    H139992   5.998   5.736   5.436  0.3090  0.9059 -1.6274
 6167TIP3    H239993   5.982   5.845   5.540 -1.1799  0.1513 -1.0370
 6168TIP3   OH239994   2.955   3.439  15.733  0.0962  0.0608 -0.4644
 6168TIP3    H139995   2.934   3.453  15.826 -1.0296 -0.5283 -0.6133
 6168TIP3    H239996   3.046   3.409  15.734 -0.4174 -1.6136  0.6263
 6169TIP3   OH239997   4.903   0.798   1.530 -0.6883  0.0228  0.3878
 6169TIP3    H139998   4.916   0.791   1.435  2.1281 -1.2887  0.7475
 6169TIP3    H239999   4.988   0.827   1.563 -1.2045 -0.8249  2.6133
 6170TIP3   OH240000   2.579   6.581  12.931  0.1255 -0.0056 -0.1271
 6170TIP3    H140001   2.534   6.507  12.972 -1.4807  0.7274 -0.5105
 6170TIP3    H240002   2.643   6.540  12.872  0.9509 -1.0613  1.4329
 6171TIP3   OH240003   3.269   2.985  14.758 -0.1997  0.2296  0.5825
 6171TIP3    H140004   3.202   3.053  14.759  0.1652  0.5870  1.2577
 6171TIP3    H240005   3.226   2.909  14.718 -0.4230  1.0378 -0.7650
 6172TIP3   OH240006   0.505   0.818   2.637  0.0159 -0.3421  0.5558
 6172TIP3    H140007   0.505   0.899   2.689  1.0212  0.2763 -0.3577
 6172TIP3    H240008   0.445   0.836   2.565 -0.7516 -0.8996  1.0414
 6173TIP3   OH240009   6.108   1.680   6.197 -0.5872 -0.1792  0.3548
 6173TIP3    H140010   6.198   1.668   6.227 -0.1876 -0.6702 -0.9507
 6173TIP3    H240011   6.064   1.727   6.268  0.9729  1.0080  0.5690
 6174TIP3   OH240012   1.415   2.760   2.570 -0.4753 -0.7653 -0.4035
 6174TIP3    H140013   1.335   2.773   2.620  0.4432  0.1267  0.8960
 6174TIP3    H240014   1.403   2.814   2.491 -0.6972  0.2953  0.3343
 6175TIP3   OH240015   5.520   5.559   5.816 -0.0572  0.1254  0.3358
 6175TIP3    H140016   5.607   5.545   5.854 -0.4466 -0.0440  1.1946
 6175TIP3    H240017   5.465   5.491   5.856 -0.7069  0.5766  0.2291
 6176TIP3   OH240018   5.056   3.862  11.117 -0.6084 -0.3026 -0.0579
 6176TIP3    H140019   5.065   3.897  11.028 -2.8849  2.4502  0.6799
 6176TIP3    H240020   4.964   3.840  11.125  0.0527 -3.3014  0.8113
 6177TIP3   OH240021   6.550   0.289  11.791  0.5860 -0.0924 -0.2823
 6177TIP3    H140022   6.506   0.373  11.806  1.8025  0.5296 -0.1400
 6177TIP3    H240023   6.640   0.303  11.821  0.8565 -1.3947 -0.4322
 6178TIP3   OH240024   0.613   5.495  16.073 -0.0009 -0.2509 -0.1141
 6178TIP3    H140025   0.705   5.522  16.076 -0.2989  0.8953  2.9757
 6178TIP3    H240026   0.564   5.577  16.069 -0.8828 -0.7662 -0.2412
 6179TIP3   OH240027   0.442   0.539  14.550 -0.6969 -0.3038 -0.0388
 6179TIP3    H140028   0.372   0.583  14.599 -2.1635  1.0011 -3.0420
 6179TIP3    H240029   0.397   0.472  14.499  0.8859 -2.1744  0.8846
 6180TIP3   OH240030   3.987   3.333  15.113  0.0826 -0.1261 -0.4569
 6180TIP3    H140031   4.060   3.286  15.153  0.6815  2.2592  1.4988
 6180TIP3    H240032   3.910   3.304  15.162  0.2033 -0.2944 -0.3665
 6181TIP3   OH240033   2.685   5.172   5.087 -0.3549  0.5697  0.5063
 6181TIP3    H140034   2.665   5.145   5.176  1.6579 -0.2179  0.7527
 6181TIP3    H240035   2.723   5.095   5.046 -0.9233  1.0275 -0.9467
 6182TIP3   OH240036   4.234   1.109  15.911  0.7947  0.1228  0.1812
 6182TIP3    H140037   4.281   1.027  15.931 -0.1673 -0.3191  0.6888
 6182TIP3    H240038   4.183   1.090  15.833  0.7857  0.3251  0.1374
 6183TIP3   OH240039   3.734   5.443   0.214  0.1984 -0.1614  0.2485
 6183TIP3    H140040   3.790   5.477   0.144 -1.3702  0.5829 -0.7041
 6183TIP3    H240041   3.726   5.350   0.194  1.0359 -0.2727  0.3778
 6184TIP3   OH240042   1.586   3.884  11.852  0.0201  0.5072 -0.1471
 6184TIP3    H140043   1.624   3.954  11.906 -0.8372  1.0179 -0.1852
 6184TIP3    H240044   1.653   3.866  11.786  0.1816  1.4178 -0.2491
 6185TIP3   OH240045   2.604   5.943  12.232  0.4134 -0.0824  0.6654
 6185TIP3    H140046   2.692   5.907  12.245  0.8428  0.8445  0.4312
 6185TIP3    H240047   2.549   5.867  12.215  1.4129 -0.5848 -0.5146
 6186TIP3   OH240048   0.386   1.609  13.152 -0.3047  0.4593 -0.0254
 6186TIP3    H140049   0.461   1.642  13.103 -0.4685  1.2123  0.2187
 6186TIP3    H240050   0.313   1.662  13.122 -0.8800 -0.6823 -0.7283
 6187TIP3   OH240051   0.671   5.373   5.585 -0.8600  0.7558  0.5373
 6187TIP3    H140052   0.685   5.326   5.667 -0.4749 -0.1999 -0.0537
 6187TIP3    H240053   0.709   5.316   5.518 -2.0792  1.0251 -0.4308
 6188TIP3   OH240054   4.713   3.231   3.201  0.4402 -0.8297 -0.5336
 6188TIP3    H140055   4.723   3.177   3.279  0.3126 -0.2993 -0.1398
 6188TIP3    H240056   4.798   3.273   3.189  0.3334 -0.5737 -0.4173
 6189TIP3   OH240057   0.678   1.397   4.897  0.2042  0.1199 -0.1599
 6189TIP3    H140058   0.762   1.352   4.888  1.1219  1.8332 -0.6276
 6189TIP3    H240059   0.621   1.355   4.832  0.8901 -0.6534 -0.2701
 6190TIP3   OH240060   4.298   5.803   1.737  0.1119 -0.2371 -0.6577
 6190TIP3    H140061   4.276   5.802   1.830  0.2279  1.0152 -0.6012
 6190TIP3    H240062   4.252   5.727   1.701  0.7689 -1.2545  0.5645
 6191TIP3   OH240063   0.776   6.062   0.333 -0.4082 -0.3259  0.6079
 6191TIP3    H140064   0.870   6.045   0.336 -0.0286  1.3315 -0.3373
 6191TIP3    H240065   0.753   6.054   0.240 -1.3992 -1.5373  0.9258
 6192TIP3   OH240066   2.740   1.775   2.452  0.1679 -0.2440 -0.6038
 6192TIP3    H140067   2.783   1.756   2.368  1.0431  0.5550 -0.3602
 6192TIP3    H240068   2.656   1.814   2.428  0.8158  0.8743 -1.1373
 6193TIP3   OH240069   3.473   6.228  10.018  0.1389 -1.0740  0.0327
 6193TIP3    H140070   3.517   6.311  10.004 -2.1388  0.1656 -0.1924
 6193TIP3    H240071   3.504   6.199  10.104  1.6416 -0.4675 -0.2809
 6194TIP3   OH240072   5.170   5.518  16.373  0.4921  0.2909 -0.0399
 6194TIP3    H140073   5.258   5.482  16.357  1.4893  2.1680  0.8791
 6194TIP3    H240074   5.177   5.557  16.461 -0.8740  1.6020 -0.4828
 6195TIP3   OH240075   6.480   4.887  11.425  0.5874  0.3188  0.1832
 6195TIP3    H140076   6.533   4.947  11.478  2.4736 -1.0080 -0.0675
 6195TIP3    H240077   6.497   4.914  11.335  0.9034 -0.1170  0.1029
 6196TIP3   OH240078   6.330   2.480  15.546 -0.2910  0.1475 -0.0483
 6196TIP3    H140079   6.334   2.563  15.499  0.1077  0.0471 -0.1994
 6196TIP3    H240080   6.265   2.428  15.498  0.2035 -0.0019 -0.5793
 6197TIP3   OH240081   3.935   4.791  13.400 -0.0520 -0.3272  0.3492
 6197TIP3    H140082   3.879   4.729  13.353 -0.4917  0.8859 -0.8037
 6197TIP3    H240083   3.873   4.850  13.444  0.2356  1.4222 -1.4544
 6198TIP3   OH240084   5.552   4.508  14.958  0.0274 -0.0612 -0.0109
 6198TIP3    H140085   5.554   4.416  14.933  2.3099  0.0983 -0.6614
 6198TIP3    H240086   5.525   4.554  14.878 -1.0512 -0.1386  0.2959
 6199TIP3   OH240087   3.882   6.715  13.792 -0.0250 -0.0518  0.6321
 6199TIP3    H140088   3.830   6.738  13.715  1.1747 -0.1319 -0.2359
 6199TIP3    H240089   3.832   6.646  13.836 -2.0465  1.8232  1.4470
 6200TIP3   OH240090   5.556   5.110   4.068 -0.1691 -0.1943  0.2286
 6200TIP3    H140091   5.524   5.192   4.106  1.9621  0.6619  0.3334
 6200TIP3    H240092   5.625   5.082   4.127  0.4109 -1.0547 -0.8186
 6201TIP3   OH240093   1.696   5.662  13.127 -0.4402 -0.5877  0.1497
 6201TIP3    H140094   1.667   5.646  13.217 -2.6351 -2.2704 -0.7391
 6201TIP3    H240095   1.669   5.583  13.080 -0.4416  0.7420 -2.2142
 6202TIP3   OH240096   6.431   0.583   1.354  0.4464 -0.9020  0.4457
 6202TIP3    H140097   6.448   0.526   1.280 -0.2336 -0.4274 -0.0913
 6202TIP3    H240098   6.518   0.605   1.388  0.9159  0.5618 -1.5185
 6203TIP3   OH240099   1.843   0.239   1.549 -0.2985 -1.3248 -0.3924
 6203TIP3    H140100   1.858   0.206   1.638 -1.2948  0.7146  0.6182
 6203TIP3    H240101   1.753   0.272   1.551  0.2802  0.4852 -1.5717
 6204TIP3   OH240102   1.225   4.080   1.409 -0.8707  0.5097 -0.3927
 6204TIP3    H140103   1.276   3.999   1.413  1.3235  1.8228  0.0148
 6204TIP3    H240104   1.136   4.052   1.391 -0.1684 -1.9828 -0.2898
 6205TIP3   OH240105   2.516   2.920   0.181 -0.5541 -0.4313 -0.5442
 6205TIP3    H140106   2.578   2.870   0.127  0.9407 -2.0552  2.4257
 6205TIP3    H240107   2.520   3.009   0.146  1.6071 -1.0152 -1.9981
 6206TIP3   OH240108   6.162   6.160  15.340  0.0255  0.5641 -0.1203
 6206TIP3    H140109   6.143   6.070  15.314 -2.4444  1.1077 -0.4879
 6206TIP3    H240110   6.094   6.182  15.403  0.1813  2.3687 -0.5224
 6207TIP3   OH240111   2.435   4.612   2.582  0.8771  0.2669 -0.2775
 6207TIP3    H140112   2.481   4.688   2.545  1.4313  0.5479  0.9380
 6207TIP3    H240113   2.349   4.614   2.540  0.6233  1.9966  0.2289
 6208TIP3   OH240114   5.449   6.228   2.019  0.5583 -0.1173  0.1907
 6208TIP3    H140115   5.446   6.316   2.056  0.6390  0.3838 -0.9358
 6208TIP3    H240116   5.542   6.214   1.999  0.6802 -0.8471  1.2512
 6209TIP3   OH240117   3.814   6.365  13.530  0.2749 -0.0786  0.1774
 6209TIP3    H140118   3.827   6.390  13.438 -1.0893  0.6275  0.1673
 6209TIP3    H240119   3.743   6.301  13.528  0.1559  0.0313  0.7609
 6210TIP3   OH240120   4.042   1.447  12.240  0.0253 -0.3825  0.0404
 6210TIP3    H140121   4.098   1.370  12.237  0.6648  0.1025 -1.9710
 6210TIP3    H240122   3.956   1.413  12.267  0.0580 -1.9635 -1.6638
 6211TIP3   OH240123   4.404   6.228   2.617 -0.1232 -0.1533  0.3224
 6211TIP3    H140124   4.452   6.170   2.559 -0.8334 -0.6602  0.2338
 6211TIP3    H240125   4.464   6.243   2.691  0.7612  0.4570 -0.4979
 6212TIP3   OH240126   0.265   5.967   5.517 -0.0988 -0.6764 -0.0105
 6212TIP3    H140127   0.337   5.970   5.580  0.3253 -0.1505 -0.5090
 6212TIP3    H240128   0.186   5.971   5.570  0.2499 -0.4350  0.4965
 6213TIP3   OH240129   6.486   1.946   0.254  0.7146  0.3068 -0.1661
 6213TIP3    H140130   6.461   1.942   0.346 -0.0038  1.7192 -0.2806
 6213TIP3    H240131   6.429   1.882   0.211 -0.9390  1.6264 -0.0272
 6214TIP3   OH240132   1.907   2.430  16.391  0.5801 -0.6847 -0.1832
 6214TIP3    H140133   1.819   2.459  16.412  0.6756 -0.2720 -0.3486
 6214TIP3    H240134   1.955   2.434  16.474  0.2597 -1.6020  0.0611
 6215TIP3   OH240135   1.201   4.527  14.016  0.5453  0.3601 -0.5840
 6215TIP3    H140136   1.165   4.538  14.103  0.4025 -0.2426 -0.5629
 6215TIP3    H240137   1.294   4.510  14.030  0.0791 -2.6173 -0.3249
 6216TIP3   OH240138   6.381   3.504  14.099 -0.1571 -0.5870  0.1190
 6216TIP3    H140139   6.432   3.570  14.148  0.5172 -0.7870 -0.3059
 6216TIP3    H240140   6.290   3.533  14.109  0.2003  1.2505 -1.2407
 6217TIP3   OH240141   1.097   0.520  13.382  0.1755 -0.2555  0.5861
 6217TIP3    H140142   1.065   0.439  13.344 -1.7891  0.0588  1.4671
 6217TIP3    H240143   1.106   0.580  13.308 -1.2550 -0.3782  0.2998
 6218TIP3   OH240144   2.113   5.293   4.920  0.4795  0.0145 -0.0923
 6218TIP3    H140145   2.177   5.342   4.971  1.0924 -0.5248 -0.3308
 6218TIP3    H240146   2.138   5.307   4.829 -0.9371  1.4222 -0.3101
 6219TIP3   OH240147   6.007   0.506   1.588 -0.3973  0.3284  0.5492
 6219TIP3    H140148   6.028   0.443   1.657  2.0906 -1.6996 -1.8317
 6219TIP3    H240149   5.984   0.586   1.635  0.7230 -1.0337  3.7123
 6220TIP3   OH240150   0.032   1.814   3.486  0.4488 -0.7972 -0.0774
 6220TIP3    H140151  -0.006   1.730   3.511  1.8160 -1.0038  1.4717
 6220TIP3    H240152  -0.013   1.878   3.540  0.8993 -0.8122  0.3266
 6221TIP3   OH240153   3.123   1.452   3.707 -0.1397 -0.2050  0.1635
 6221TIP3    H140154   3.043   1.504   3.706 -1.0502 -1.5460 -0.6912
 6221TIP3    H240155   3.176   1.489   3.635 -0.3089  0.2132  0.2512
 6222TIP3   OH240156   1.741   1.574  10.607 -0.3622  0.3242 -0.3126
 6222TIP3    H140157   1.771   1.635  10.674 -1.4283 -1.0570  1.4965
 6222TIP3    H240158   1.677   1.624  10.556  0.8652  1.5595 -0.7012
 6223TIP3   OH240159   4.744   3.026   2.270  0.7420 -0.3703  0.7870
 6223TIP3    H140160   4.710   3.056   2.186  0.5857  2.0336  1.6210
 6223TIP3    H240161   4.734   2.931   2.268  1.4183 -0.4905 -2.1734
 6224TIP3   OH240162   6.473   4.889   2.429 -0.2771  0.0089  0.1048
 6224TIP3    H140163   6.541   4.879   2.496  0.0061  0.2390 -0.1475
 6224TIP3    H240164   6.391   4.881   2.477 -0.1372  2.5607  0.8852
 6225TIP3   OH240165   3.006   2.592   4.475 -0.3329  0.0862  0.1594
 6225TIP3    H140166   2.919   2.579   4.515 -0.8380  1.8013 -0.2850
 6225TIP3    H240167   3.038   2.673   4.515  0.4307  0.2587 -0.7853
 6226TIP3   OH240168   0.522   1.384   0.075  0.1904 -0.2502  0.4256
 6226TIP3    H140169   0.536   1.388   0.169 -0.7235 -1.7827  0.6511
 6226TIP3    H240170   0.504   1.475   0.049 -0.1694  0.0911  1.8169
 6227TIP3   OH240171   1.642   0.018   5.622 -0.4147  0.2612  0.1155
 6227TIP3    H140172   1.558  -0.029   5.624  0.0061 -0.5434 -0.4145
 6227TIP3    H240173   1.699  -0.037   5.568 -0.6637  2.6530 -2.8468
 6228TIP3   OH240174   1.334   3.783  12.988 -0.3829  0.0048 -0.6629
 6228TIP3    H140175   1.317   3.715  12.922 -1.5400  0.3065 -0.7031
 6228TIP3    H240176   1.312   3.742  13.071 -0.0359 -0.0088 -0.5761
 6229TIP3   OH240177   2.341   4.774  11.299  0.0784 -0.0467 -0.1029
 6229TIP3    H140178   2.332   4.771  11.394  0.2643 -1.2750 -0.1091
 6229TIP3    H240179   2.363   4.865  11.279  0.8746  0.0354  1.1052
 6230TIP3   OH240180   2.793   2.860   0.428  0.6192  0.1839 -0.1878
 6230TIP3    H140181   2.857   2.916   0.472 -1.7172  1.1371  2.2507
 6230TIP3    H240182   2.751   2.917   0.364  0.4291  0.3043  0.0440
 6231TIP3   OH240183   3.534   4.927  15.918 -0.4511 -0.1765 -0.1574
 6231TIP3    H140184   3.544   4.832  15.916  0.6115 -0.0672 -0.2135
 6231TIP3    H240185   3.454   4.941  15.969  0.0354 -1.0587  0.8906
 6232TIP3   OH240186   5.847   0.643  15.403  0.3670 -0.8860  0.2579
 6232TIP3    H140187   5.783   0.701  15.362  0.1885 -0.3526  1.2633
 6232TIP3    H240188   5.809   0.620  15.488  1.0158 -1.4470  0.4052
 6233TIP3   OH240189   2.398   2.687  11.925  0.5121 -0.7165 -0.0687
 6233TIP3    H140190   2.406   2.640  11.842  0.5157 -0.7439 -0.0526
 6233TIP3    H240191   2.479   2.666  11.972  0.5661 -0.6028 -0.1084
 6234TIP3   OH240192   1.077   3.058   1.845 -0.2199  0.0324 -0.0128
 6234TIP3    H140193   1.026   3.139   1.848  0.4338  0.4373  1.4469
 6234TIP3    H240194   1.058   3.015   1.929  0.5546 -0.6200 -0.1599
 6235TIP3   OH240195   5.601   4.891   1.983 -0.0871 -0.4071 -0.1808
 6235TIP3    H140196   5.602   4.883   1.888  0.7043  0.6033 -0.2833
 6235TIP3    H240197   5.690   4.870   2.010 -0.3166 -0.7286  0.3462
 6236TIP3   OH240198   3.837   4.010  12.805 -0.2348  0.2994 -0.0512
 6236TIP3    H140199   3.928   4.020  12.779  0.0718 -1.1494  0.3536
 6236TIP3    H240200   3.811   3.925  12.768 -0.9131 -0.0643  1.2026
 6237TIP3   OH240201   6.219   5.900   5.207 -0.2002  0.1006 -0.5100
 6237TIP3    H140202   6.313   5.912   5.221 -0.2980 -0.4270  0.7724
 6237TIP3    H240203   6.187   5.862   5.289 -1.8365  1.8818 -0.2581
 6238TIP3   OH240204   2.132   6.390   2.231  0.3125  0.2806  0.0183
 6238TIP3    H140205   2.097   6.310   2.269  1.6048 -0.7292 -0.8322
 6238TIP3    H240206   2.111   6.383   2.137  0.4584  0.9280 -0.0641
 6239TIP3   OH240207   0.302   6.332  12.978 -0.2938  0.1107 -0.1087
 6239TIP3    H140208   0.234   6.377  13.028  0.3898 -0.4471  1.3850
 6239TIP3    H240209   0.381   6.384  12.994 -0.2110  0.3637 -1.2670
 6240TIP3   OH240210   2.486   0.199  10.582 -0.1977 -0.1391  0.3285
 6240TIP3    H140211   2.559   0.139  10.597 -0.7590 -0.8654  0.2785
 6240TIP3    H240212   2.522   0.268  10.526  0.2985 -0.8224 -0.2205
 6241TIP3   OH240213   3.821   2.581   4.096  0.0071  0.4005 -0.1032
 6241TIP3    H140214   3.784   2.666   4.073  0.2068  0.6309  0.4112
 6241TIP3    H240215   3.802   2.571   4.189  1.3149  0.5707  0.1981
 6242TIP3   OH240216   4.770   3.338   2.912  0.0359 -0.5157  0.2592
 6242TIP3    H140217   4.824   3.321   2.989 -0.2443  0.3666  0.6648
 6242TIP3    H240218   4.822   3.397   2.858  0.1715 -1.0177 -0.1599
 6243TIP3   OH240219   1.449   2.766   3.254 -0.3193 -0.2895  0.0865
 6243TIP3    H140220   1.359   2.755   3.284 -0.5486 -0.4158 -0.6428
 6243TIP3    H240221   1.441   2.801   3.166  0.3341 -1.4122 -0.4387
 6244TIP3   OH240222   3.191   5.605  15.412  0.1427 -0.2173 -0.2563
 6244TIP3    H140223   3.128   5.534  15.401 -0.5484  0.0715  1.5246
 6244TIP3    H240224   3.265   5.564  15.458 -0.7910  0.4109  1.9364
 6245TIP3   OH240225   5.392   6.316  16.104  0.2460 -0.2304 -0.3503
 6245TIP3    H140226   5.485   6.322  16.128 -0.2669 -3.0056  3.2370
 6245TIP3    H240227   5.346   6.332  16.186 -2.5582  1.1180 -2.0402
 6246TIP3   OH240228   3.360   5.256   2.047  0.1732  0.0822  0.1494
 6246TIP3    H140229   3.351   5.340   2.092  0.8969  0.2413  0.0016
 6246TIP3    H240230   3.454   5.244   2.037  0.2286 -1.6992  1.9690
 6247TIP3   OH240231   5.631   0.109  10.668  0.3134 -0.0655  0.4603
 6247TIP3    H140232   5.602   0.026  10.706 -0.8842 -0.2489 -0.7836
 6247TIP3    H240233   5.691   0.083  10.597 -2.5795 -0.1445 -2.1587
 6248TIP3   OH240234   0.457   5.997  13.290 -0.5091  0.6397 -0.4852
 6248TIP3    H140235   0.483   5.906  13.302  1.1681  1.3147  1.6032
 6248TIP3    H240236   0.393   5.995  13.219 -1.2085 -2.2566  0.1372
 6249TIP3   OH240237   4.458   6.615  17.103 -0.0442 -0.1758  0.9348
 6249TIP3    H140238   4.493   6.628  17.014 -0.8498  0.2599  0.6776
 6249TIP3    H240239   4.372   6.575  17.089  0.2233 -0.9975  1.5607
 6250TIP3   OH240240   3.575   1.944  16.197 -0.3465  0.9140  0.3173
 6250TIP3    H140241   3.660   1.900  16.190 -0.0144  1.6963 -1.0581
 6250TIP3    H240242   3.538   1.911  16.278  1.0486  0.1536  0.6917
 6251TIP3   OH240243   3.255   2.213   5.742  0.1896 -0.5492 -0.6696
 6251TIP3    H140244   3.182   2.168   5.785  0.2068  0.2658  0.2362
 6251TIP3    H240245   3.299   2.145   5.692 -1.7335 -0.8945 -1.9972
 6252TIP3   OH240246   0.821   0.684   1.826  0.7104 -0.6242 -0.0283
 6252TIP3    H140247   0.784   0.632   1.897  0.0059  0.0610  0.1229
 6252TIP3    H240248   0.889   0.628   1.787 -0.2469 -1.7877 -0.0790
 6253TIP3   OH240249   6.142   0.739  11.208 -0.3213 -0.1798 -0.5912
 6253TIP3    H140250   6.094   0.754  11.126 -2.2052  1.2945  0.6758
 6253TIP3    H240251   6.201   0.814  11.215 -1.4875  0.7077  0.2215
 6254TIP3   OH240252   5.967   4.140   2.453 -0.3921 -0.0896  0.8923
 6254TIP3    H140253   5.889   4.158   2.505 -0.8741  2.1449 -0.4809
 6254TIP3    H240254   5.933   4.114   2.367  0.2635  2.7806 -0.3304
 6255TIP3   OH240255   0.307   2.389  10.619  0.3251  0.2413  0.1977
 6255TIP3    H140256   0.264   2.329  10.557  0.2355 -0.8553  1.2807
 6255TIP3    H240257   0.382   2.423  10.570  0.2476 -0.5919 -0.5405
 6256TIP3   OH240258   1.354   4.199  13.991 -0.0691 -0.8142  0.3941
 6256TIP3    H140259   1.370   4.282  14.036  1.3442 -1.6312  1.4847
 6256TIP3    H240260   1.441   4.168  13.966 -0.7542 -0.6698 -2.4997
 6257TIP3   OH240261   5.633   2.835   1.321 -0.0052 -0.0682 -0.2288
 6257TIP3    H140262   5.571   2.873   1.384 -1.7009 -1.9220 -0.6623
 6257TIP3    H240263   5.620   2.740   1.330  1.8573 -0.4686 -1.3031
 6258TIP3   OH240264   2.904   1.975  14.986 -0.5200 -0.0292 -0.0005
 6258TIP3    H140265   2.861   2.021  15.058  2.7806  2.7094  0.4509
 6258TIP3    H240266   2.892   2.033  14.911  0.0239 -0.5862 -0.5265
 6259TIP3   OH240267   6.039   4.090  14.007 -0.4149  0.1642  0.3244
 6259TIP3    H140268   6.015   4.181  14.025 -2.3746 -0.3227  0.3639
 6259TIP3    H240269   6.087   4.093  13.924  2.3291  1.5636  1.8386
 6260TIP3   OH240270   1.017   0.843  12.283  0.2539  0.0368  0.0945
 6260TIP3    H140271   0.972   0.868  12.364  0.2548  1.2313 -0.2550
 6260TIP3    H240272   1.106   0.875  12.295  0.1984  0.3997 -0.4605
 6261TIP3   OH240273   6.170   1.173   1.121 -0.0067  0.1120 -0.0175
 6261TIP3    H140274   6.103   1.220   1.171 -0.2222 -0.3475  0.1325
 6261TIP3    H240275   6.194   1.099   1.177  0.3100  0.0256 -0.2639
 6262TIP3   OH240276   6.318   5.032   1.322 -0.3570 -0.1152 -0.0809
 6262TIP3    H140277   6.239   5.039   1.376 -0.3458 -0.0474 -0.0726
 6262TIP3    H240278   6.300   5.089   1.247 -0.2450  0.0387  0.0092
 6263TIP3   OH240279   4.780   0.438   3.390 -0.1948 -0.0872  0.3779
 6263TIP3    H140280   4.706   0.471   3.441 -0.6060  2.0920 -1.4472
 6263TIP3    H240281   4.855   0.487   3.422 -0.4305  1.1861 -0.8933
 6264TIP3   OH240282   0.078   0.352   5.195 -0.6521  0.0410 -0.0280
 6264TIP3    H140283   0.057   0.363   5.102  0.9537  1.3418 -0.2814
 6264TIP3    H240284   0.118   0.265   5.200 -1.9464 -0.5995 -0.2877
 6265TIP3   OH240285   3.089   3.826   3.070  0.3665 -0.1355  0.3645
 6265TIP3    H140286   3.121   3.736   3.072 -0.1366 -0.3134  0.8662
 6265TIP3    H240287   3.117   3.864   3.153 -0.6081 -0.2627  0.7619
 6266TIP3   OH240288   1.231   4.949   6.125 -0.2383  0.3288 -0.5163
 6266TIP3    H140289   1.207   4.984   6.039 -2.7902  0.7212  0.2674
 6266TIP3    H240290   1.238   4.855   6.112  0.9892  0.5314 -1.4562
 6267TIP3   OH240291   1.794   4.995  14.807 -0.0330  0.3295 -0.2099
 6267TIP3    H140292   1.857   4.940  14.853  1.6003  1.8178 -0.5368
 6267TIP3    H240293   1.747   5.042  14.876  0.8476  0.9011  0.0161
 6268TIP3   OH240294   4.500   5.815  14.099 -0.5246 -0.1165 -0.2885
 6268TIP3    H140295   4.463   5.745  14.044 -0.1038  0.6795 -1.6140
 6268TIP3    H240296   4.438   5.823  14.171 -1.3956 -0.8118 -0.9298
 6269TIP3   OH240297   4.497   0.074  15.170 -0.2261  0.0267 -0.4893
 6269TIP3    H140298   4.541   0.159  15.171  1.1661 -0.6516 -0.7728
 6269TIP3    H240299   4.495   0.050  15.077  0.4705 -0.7612 -0.3128
 6270TIP3   OH240300   5.629   5.780  11.855  0.4072  0.3465 -0.2629
 6270TIP3    H140301   5.642   5.686  11.845  0.4778  0.4203 -0.9386
 6270TIP3    H240302   5.536   5.790  11.875  0.6764  0.0430  1.2404
 6271TIP3   OH240303   1.613   4.178   0.660 -0.0336  0.3242 -0.0474
 6271TIP3    H140304   1.540   4.238   0.675 -0.0442  0.8750 -2.0161
 6271TIP3    H240305   1.580   4.093   0.688 -1.6937  0.4341 -1.5079
 6272TIP3   OH240306   0.377   2.989   3.187 -0.5268 -0.0745 -0.4876
 6272TIP3    H140307   0.387   2.921   3.254 -0.6598  0.9279  0.5871
 6272TIP3    H240308   0.287   2.979   3.156 -1.4449  1.1765  1.5221
 6273TIP3   OH240309   6.481   2.244  13.959  0.2944  0.2555 -0.3690
 6273TIP3    H140310   6.436   2.279  13.882 -0.4180  0.4984  0.1457
 6273TIP3    H240311   6.517   2.321  14.002  0.0267  0.2057 -0.0496
 6274TIP3   OH240312   6.133   1.757  14.674  0.7426 -0.5010 -0.9787
 6274TIP3    H140313   6.211   1.811  14.671  0.5695  0.4368  3.7360
 6274TIP3    H240314   6.163   1.673  14.708  0.0666 -1.1959 -2.0287
 6275TIP3   OH240315   0.246   4.205  12.581  0.2556 -0.1485  0.3099
 6275TIP3    H140316   0.339   4.185  12.583  0.6472  0.7107 -3.0537
 6275TIP3    H240317   0.209   4.142  12.520 -0.7042  1.5235 -0.9319
 6276TIP3   OH240318   4.726   6.099   3.110 -0.2283  0.4076  0.8435
 6276TIP3    H140319   4.791   6.042   3.151  1.2318  1.0833 -0.4226
 6276TIP3    H240320   4.713   6.170   3.172 -0.3292 -0.1268  1.4354
 6277TIP3   OH240321   4.491   0.921  13.001  0.4134  0.1843 -0.1770
 6277TIP3    H140322   4.573   0.969  13.014  0.1883  0.5931 -0.2429
 6277TIP3    H240323   4.518   0.837  12.964  0.6927  1.0793 -2.1480
 6278TIP3   OH240324   2.800   3.223   5.900 -0.1896  0.1148 -0.1439
 6278TIP3    H140325   2.717   3.221   5.854  0.4913  0.0030 -1.4045
 6278TIP3    H240326   2.813   3.316   5.923 -0.3688  0.2243 -0.4848
 6279TIP3   OH240327   3.189   3.464   2.356 -0.8550  0.1282  0.4108
 6279TIP3    H140328   3.195   3.533   2.422  0.2158  0.3960  0.0543
 6279TIP3    H240329   3.150   3.390   2.402 -1.8999  0.9074  0.8338
 6280TIP3   OH240330   4.013   6.129  13.783  0.1178  0.2192 -0.1593
 6280TIP3    H140331   4.086   6.126  13.845 -1.5144  1.2451  1.9388
 6280TIP3    H240332   4.007   6.221  13.758 -1.1351  0.3756  0.6186
 6281TIP3   OH240333   4.270   2.122   4.430 -0.3707 -0.1290 -0.9421
 6281TIP3    H140334   4.197   2.160   4.382  0.6148  0.2685 -2.2017
 6281TIP3    H240335   4.248   2.029   4.439 -0.6247 -0.1993 -2.1317
 6282TIP3   OH240336   2.462   1.591   1.187 -0.0383 -0.3247 -0.1498
 6282TIP3    H140337   2.377   1.625   1.160 -0.9745 -2.2905  0.1600
 6282TIP3    H240338   2.490   1.535   1.116  1.1943  0.5378 -0.3885
 6283TIP3   OH240339   2.158   3.576  13.396  0.0030 -0.0620  0.0855
 6283TIP3    H140340   2.142   3.488  13.429  1.0589 -0.0855  0.5694
 6283TIP3    H240341   2.249   3.575  13.367  0.1032  0.9305  0.3228
 6284TIP3   OH240342   5.371   0.428  11.496  0.6451 -0.3103  0.4614
 6284TIP3    H140343   5.401   0.396  11.411  1.5631  1.0188  0.2428
 6284TIP3    H240344   5.276   0.432  11.489  0.6736 -0.8783 -0.2531
 6285TIP3   OH240345   4.652   4.347  13.233 -0.1851 -0.1956 -0.4042
 6285TIP3    H140346   4.639   4.418  13.171 -0.3625  0.8663  0.8155
 6285TIP3    H240347   4.574   4.350  13.290 -0.6376 -1.9310 -0.8561
 6286TIP3   OH240348   5.561   2.837  12.029  0.0872  0.8672 -0.2672
 6286TIP3    H140349   5.503   2.910  12.053 -0.0894  0.0027  2.2641
 6286TIP3    H240350   5.641   2.853  12.080 -0.1475 -0.9320  0.7359
 6287TIP3   OH240351   1.359   4.382   3.237 -0.1352  0.0311 -0.2345
 6287TIP3    H140352   1.449   4.382   3.270 -0.3264  1.3678  0.3402
 6287TIP3    H240353   1.355   4.305   3.180  1.5112  0.2106 -0.6547
 6288TIP3   OH240354   2.866   5.495  14.909  0.2954  0.0440  0.1953
 6288TIP3    H140355   2.862   5.417  14.854  0.3204  0.2159 -0.0528
 6288TIP3    H240356   2.921   5.557  14.860 -0.4279  0.5330 -0.0137
 6289TIP3   OH240357   2.051   2.257   3.959  0.7904 -0.3630  0.3590
 6289TIP3    H140358   2.012   2.170   3.962 -1.2535  0.3252 -2.2360
 6289TIP3    H240359   2.052   2.280   3.866  0.9958  2.4854  0.9603
 6290TIP3   OH240360   0.008   6.095   6.317 -0.2206  0.0612 -0.6665
 6290TIP3    H140361  -0.059   6.125   6.378  0.7933 -0.4812  0.7823
 6290TIP3    H240362   0.040   6.174   6.275 -0.1792  0.5862  0.3328
 6291TIP3   OH240363   1.361   5.623   3.549  0.1613  0.4162  0.1315
 6291TIP3    H140364   1.334   5.710   3.519  3.8034  1.0371 -1.9934
 6291TIP3    H240365   1.403   5.638   3.634 -1.3727  0.2688  0.9446
 6292TIP3   OH240366   6.766   3.916  14.664 -0.4646  0.4185  0.1266
 6292TIP3    H140367   6.701   3.956  14.722  1.0382  1.3238  1.2830
 6292TIP3    H240368   6.803   3.843  14.714 -0.3890  0.0907 -0.3952
 6293TIP3   OH240369   4.269   4.746   3.932  0.4534  0.2880  0.0664
 6293TIP3    H140370   4.279   4.663   3.979  0.2053  0.8066  1.0678
 6293TIP3    H240371   4.347   4.797   3.955  2.0332 -0.6489 -2.7412
 6294TIP3   OH240372   3.451   2.193   4.580  0.5960  0.2426 -0.3214
 6294TIP3    H140373   3.473   2.100   4.574 -2.5146 -0.5947 -0.6348
 6294TIP3    H240374   3.535   2.238   4.575  2.3675 -2.5760  1.4188
 6295TIP3   OH240375   5.486   3.239   5.425 -0.4204 -0.1810  0.1525
 6295TIP3    H140376   5.545   3.310   5.399 -1.5199  1.5107  1.9740
 6295TIP3    H240377   5.536   3.187   5.488 -0.4106  0.4364  0.6607
 6296TIP3   OH240378   3.457   1.953   1.893 -0.6820 -0.1026  0.0331
 6296TIP3    H140379   3.487   2.042   1.873 -1.2947  0.0319 -0.3260
 6296TIP3    H240380   3.481   1.902   1.816  0.7423 -0.5304  0.7215
 6297TIP3   OH240381   0.437   1.890   4.324 -0.1021  0.3011  0.3453
 6297TIP3    H140382   0.379   1.905   4.250 -1.3437 -0.0102  1.2307
 6297TIP3    H240383   0.514   1.847   4.286  0.1802  1.9325 -1.0353
 6298TIP3   OH240384   5.998   0.485   5.603 -0.6925 -0.3277 -0.5466
 6298TIP3    H140385   6.037   0.407   5.642 -0.3780  0.1266  0.0627
 6298TIP3    H240386   5.968   0.537   5.678  0.5921  0.9119 -0.8532
 6299TIP3   OH240387   1.864   1.458  14.831  0.3785  0.9010  0.0190
 6299TIP3    H140388   1.872   1.520  14.759 -2.4394  0.2755 -0.9841
 6299TIP3    H240389   1.954   1.443  14.860  1.3477  3.5688 -1.2582
 6300TIP3   OH240390   3.077   0.826  17.162  0.4870 -0.5108 -0.2786
 6300TIP3    H140391   3.070   0.883  17.239 -0.8691 -1.0665  0.0355
 6300TIP3    H240392   3.171   0.810  17.154  0.7037 -0.0664  0.9925
 6301TIP3   OH240393   2.026   6.028   5.726  0.5235  1.1976  0.2094
 6301TIP3    H140394   2.020   5.952   5.784 -0.1694  1.1159  0.0375
 6301TIP3    H240395   2.092   6.084   5.767  3.1950 -0.7146 -1.0806
 6302TIP3   OH240396   2.740   2.256  11.503  0.0131  0.0178 -0.8651
 6302TIP3    H140397   2.704   2.201  11.433  1.3224  0.7589 -2.1587
 6302TIP3    H240398   2.760   2.194  11.573  0.8873 -1.1207 -2.0591
 6303TIP3   OH240399   1.450   6.744  16.175  0.1418  0.0610 -0.1491
 6303TIP3    H140400   1.375   6.802  16.174 -0.1652 -0.3206  0.2589
 6303TIP3    H240401   1.520   6.795  16.215 -0.0016  0.2964 -0.1989
 6304TIP3   OH240402   1.327   1.243   4.110  0.2120 -0.6598 -0.3068
 6304TIP3    H140403   1.262   1.310   4.085  1.0668  1.4411  2.5305
 6304TIP3    H240404   1.409   1.274   4.071  0.6765  0.2405  1.2870
 6305TIP3   OH240405   4.847   3.439   0.976 -0.2015  0.1160 -0.3200
 6305TIP3    H140406   4.892   3.433   0.891  0.7586  1.3273  0.0751
 6305TIP3    H240407   4.915   3.469   1.037 -1.1374  0.2897  0.6591
 6306TIP3   OH240408   4.511   5.843   5.403  0.6724  0.7013  0.6159
 6306TIP3    H140409   4.571   5.906   5.443  0.9146  1.5545 -1.0092
 6306TIP3    H240410   4.424   5.883   5.412  0.6041  0.4537  1.0942
 6307TIP3   OH240411   0.526   1.940   0.874 -0.4187 -0.4933  0.6436
 6307TIP3    H140412   0.564   1.903   0.953  1.2741 -0.3726 -0.0652
 6307TIP3    H240413   0.566   2.027   0.867 -1.8534  0.1811  0.5558
 6308TIP3   OH240414   6.255   4.558  16.542 -0.3368  0.4539  0.1134
 6308TIP3    H140415   6.240   4.507  16.462  1.4644 -1.2315  0.7506
 6308TIP3    H240416   6.249   4.649  16.514  0.3534 -0.0838 -1.9767
 6309TIP3   OH240417   4.180   1.354   2.030 -0.3340 -0.2649 -0.0178
 6309TIP3    H140418   4.243   1.396   1.973  0.2976  0.7281  1.3544
 6309TIP3    H240419   4.128   1.426   2.065 -0.3854 -0.7937  1.0251
 6310TIP3   OH240420   1.410   4.488  13.515 -0.0407  0.3771  0.2453
 6310TIP3    H140421   1.394   4.441  13.597  1.4766  0.7067  0.7572
 6310TIP3    H240422   1.441   4.420  13.454  1.6158  0.5653  0.8225
 6311TIP3   OH240423   1.798   1.168   5.441 -0.0311 -0.6831  0.2137
 6311TIP3    H140424   1.750   1.219   5.375  0.6377  0.8055  0.8301
 6311TIP3    H240425   1.890   1.177   5.415  0.1794 -0.6383  0.9548
 6312TIP3   OH240426   1.755   2.638   3.474 -0.1623  0.0838 -0.0165
 6312TIP3    H140427   1.691   2.581   3.431 -0.1990 -0.5325  0.8129
 6312TIP3    H240428   1.712   2.663   3.556  0.3017  0.4128  0.1289
 6313TIP3   OH240429   5.365   2.054   5.815  0.2396  0.1388 -0.3102
 6313TIP3    H140430   5.361   2.141   5.856  1.8792 -0.3244  0.9269
 6313TIP3    H240431   5.442   2.058   5.759 -0.4635 -0.1172 -1.3308
 6314TIP3   OH240432   4.395   0.036   3.642  0.4099  0.2592  0.2751
 6314TIP3    H140433   4.456  -0.037   3.628  0.6236  0.5892 -0.5497
 6314TIP3    H240434   4.358   0.053   3.556 -1.6101 -0.5644  0.9320
 6315TIP3   OH240435   5.139   1.540   4.010  0.1330  0.2234  0.0572
 6315TIP3    H140436   5.128   1.572   3.921  0.1996  0.5025  0.1470
 6315TIP3    H240437   5.217   1.585   4.042 -1.7541  2.8152  1.4217
 6316TIP3   OH240438   0.825   0.630  16.222 -0.3605 -0.0342  0.5077
 6316TIP3    H140439   0.872   0.706  16.188 -0.3889  0.5333  1.6852
 6316TIP3    H240440   0.733   0.653  16.213 -0.4453 -1.0050 -1.4842
 6317TIP3   OH240441   5.006   3.967  16.511 -0.9029 -0.5887  0.0572
 6317TIP3    H140442   4.966   3.932  16.431 -2.4415 -1.4859  1.1511
 6317TIP3    H240443   5.096   3.934  16.510 -1.5100 -2.3706 -0.3213
 6318TIP3   OH240444   0.423   4.662  13.867  0.3301 -0.1872  0.3730
 6318TIP3    H140445   0.462   4.737  13.821  2.0437  0.4028  2.6352
 6318TIP3    H240446   0.345   4.697  13.909 -0.3398 -0.3495 -0.6891
 6319TIP3   OH240447   1.145   4.832   4.780  0.4133 -0.0047 -0.0959
 6319TIP3    H140448   1.205   4.791   4.842  1.7251  1.1064 -0.5893
 6319TIP3    H240449   1.113   4.910   4.826  2.4512  1.6014 -1.2032
 6320TIP3   OH240450   1.470   6.619   5.728  0.3297  0.4059 -0.0305
 6320TIP3    H140451   1.463   6.657   5.816  0.7382  0.8705 -0.1968
 6320TIP3    H240452   1.423   6.681   5.672  0.2267  0.2023 -0.1708
 6321TIP3   OH240453   0.747   0.362  16.255 -0.3834 -0.8810  0.4261
 6321TIP3    H140454   0.790   0.447  16.265 -2.4228  0.4357 -1.2026
 6321TIP3    H240455   0.758   0.340  16.163 -1.6843 -1.3247  0.3499
 6322TIP3   OH240456   5.536   5.987  17.126 -0.3043 -0.0011 -0.1021
 6322TIP3    H140457   5.510   5.904  17.165 -1.3021  1.2465  2.0604
 6322TIP3    H240458   5.599   6.023  17.188 -1.6219  1.8579  0.2411
 6323TIP3   OH240459   2.327   6.497  16.320 -0.4078  0.0945  0.1031
 6323TIP3    H140460   2.265   6.435  16.280  0.0103  0.2222 -0.7584
 6323TIP3    H240461   2.280   6.580  16.321 -1.8495 -0.6071  3.3171
 6324TIP3   OH240462   3.228   1.215  12.709 -0.3788 -0.1810 -0.5906
 6324TIP3    H140463   3.208   1.227  12.802 -0.9244 -0.1930 -0.6979
 6324TIP3    H240464   3.143   1.223  12.666 -0.6156 -3.0015 -0.8276
 6325TIP3   OH240465   5.830   0.538  12.338 -0.6335 -0.2710 -0.0715
 6325TIP3    H140466   5.824   0.500  12.425 -0.3793  2.2106  1.1339
 6325TIP3    H240467   5.739   0.550  12.310 -0.7646  0.8192  0.7811
 6326TIP3   OH240468   3.605   5.552  11.780  0.0846 -0.2906 -0.9573
 6326TIP3    H140469   3.619   5.479  11.841  2.2714  0.7284 -0.1402
 6326TIP3    H240470   3.655   5.529  11.702  1.1788  0.4970 -0.5154
 6327TIP3   OH240471   1.113   1.222   3.138 -0.0891 -0.2256  0.4451
 6327TIP3    H140472   1.051   1.236   3.210 -1.0863  0.4985 -0.5386
 6327TIP3    H240473   1.125   1.127   3.135 -0.4208 -0.2998  1.2339
 6328TIP3   OH240474   5.038   0.590  15.780  0.2065 -0.5401  0.2544
 6328TIP3    H140475   4.976   0.571  15.710  0.4983  0.4949 -0.2919
 6328TIP3    H240476   4.987   0.578  15.861  0.3594 -3.6575  0.0296
 6329TIP3   OH240477   1.570   2.536  11.130  0.1110 -0.5372 -0.4259
 6329TIP3    H140478   1.587   2.503  11.041  0.0418  1.0420 -1.0605
 6329TIP3    H240479   1.475   2.539  11.137  0.0773  1.0936 -1.0377
 6330TIP3   OH240480   0.885   3.502   3.303 -0.2645 -0.0813  0.4329
 6330TIP3    H140481   0.969   3.495   3.257  1.2512 -0.8230  3.1387
 6330TIP3    H240482   0.863   3.595   3.298  1.5553  0.4252  1.0380
 6331TIP3   OH240483   4.691   3.830   5.322  0.4251 -0.0497  0.0065
 6331TIP3    H140484   4.624   3.798   5.261  0.4699  1.1868 -0.7092
 6331TIP3    H240485   4.700   3.923   5.301  1.3791  0.0992  1.0333
 6332TIP3   OH240486   1.640   3.521  13.058 -0.4883  0.3783 -0.1817
 6332TIP3    H140487   1.643   3.616  13.062 -0.3752  0.3677  0.0381
 6332TIP3    H240488   1.712   3.496  13.001 -1.2864  0.4796 -1.2524
 6333TIP3   OH240489   5.876   2.881  16.518 -1.1135 -0.1014  0.0678
 6333TIP3    H140490   5.805   2.817  16.515 -1.0870 -0.1116 -0.7203
 6333TIP3    H240491   5.927   2.864  16.438  1.3514 -1.8736  1.8593
 6334TIP3   OH240492   6.487   6.741  14.299  0.2549  0.4760  0.4224
 6334TIP3    H140493   6.554   6.682  14.263 -0.9779 -0.8170  0.1388
 6334TIP3    H240494   6.442   6.776  14.222 -0.4626  0.0151  0.6154
 6335TIP3   OH240495   6.591   1.040   3.244 -0.3919  0.8277 -0.5548
 6335TIP3    H140496   6.609   1.078   3.158 -0.8396  0.5905 -0.7594
 6335TIP3    H240497   6.642   0.960   3.246 -0.4867  0.7626 -0.6608
 6336TIP3   OH240498   2.602   0.123  11.802 -0.0882 -0.2454  0.9669
 6336TIP3    H140499   2.555   0.040  11.797 -0.2338 -0.1029 -0.3871
 6336TIP3    H240500   2.620   0.135  11.895  1.8078 -2.8167  1.0406
 6337TIP3   OH240501   6.414   4.136  12.376 -0.0303 -0.3098 -0.1336
 6337TIP3    H140502   6.490   4.194  12.387  0.5228 -1.3133  1.8614
 6337TIP3    H240503   6.390   4.145  12.284  2.6481 -0.1093 -0.8947
 6338TIP3   OH240504   2.926   3.002  16.482 -0.0465 -0.2811 -0.0809
 6338TIP3    H140505   2.946   3.086  16.440 -1.4346  0.1845  0.1092
 6338TIP3    H240506   2.854   2.967  16.430 -1.1905 -0.1183  1.3312
 6339TIP3   OH240507   5.143   3.648  10.893  0.1141 -0.0067 -0.7300
 6339TIP3    H140508   5.138   3.738  10.859 -1.3250  0.4082  0.4493
 6339TIP3    H240509   5.061   3.607  10.863 -0.5867 -0.0180  1.0751
 6340TIP3   OH240510   0.109   6.668  15.444  0.6828  0.2776  0.2864
 6340TIP3    H140511   0.113   6.574  15.429  1.1462  0.2991  0.2542
 6340TIP3    H240512   0.163   6.683  15.521 -0.1412  0.4073  0.8470
 6341TIP3   OH240513   6.183   0.614   3.672  0.4476 -0.2831  0.1586
 6341TIP3    H140514   6.258   0.633   3.615 -0.0959  0.6782 -0.2485
 6341TIP3    H240515   6.127   0.558   3.620  0.1858  0.1943 -0.0746
 6342TIP3   OH240516   0.690   0.748  11.188  0.0727  0.0012  0.1482
 6342TIP3    H140517   0.704   0.773  11.097  1.1084 -0.2980  0.2143
 6342TIP3    H240518   0.776   0.722  11.220 -0.4728 -1.0135  0.8769
 6343TIP3   OH240519   6.208   2.096   0.775 -0.2538  0.3124  0.0326
 6343TIP3    H140520   6.254   2.070   0.695 -0.4061 -0.7208  0.2591
 6343TIP3    H240521   6.260   2.167   0.811 -0.0764  0.6653 -0.8845
 6344TIP3   OH240522   5.988   3.488   2.880 -0.0795 -0.1827 -0.0744
 6344TIP3    H140523   5.910   3.436   2.860 -0.0267  0.0112 -0.8300
 6344TIP3    H240524   5.958   3.579   2.879  0.2820 -0.0554 -1.1005
 6345TIP3   OH240525   1.792   3.763   0.505 -0.0855 -0.7734  0.1869
 6345TIP3    H140526   1.886   3.756   0.518 -0.1288 -1.8074  0.0167
 6345TIP3    H240527   1.754   3.699   0.565 -0.5675 -1.6577 -1.0103
 6346TIP3   OH240528   0.869   3.866   5.195 -0.4900 -0.1032 -0.1252
 6346TIP3    H140529   0.940   3.824   5.146 -0.0709  0.7600 -0.2689
 6346TIP3    H240530   0.813   3.904   5.128 -1.6561 -1.6083 -0.0676
 6347TIP3   OH240531   5.122   3.093  16.832  0.3563 -0.6306  0.0391
 6347TIP3    H140532   5.075   3.120  16.911 -2.3902 -1.0683 -1.2946
 6347TIP3    H240533   5.062   3.032  16.789  2.8449 -2.3926 -1.1577
 6348TIP3   OH240534   5.576   5.902  15.791  0.1522 -0.7215  0.5328
 6348TIP3    H140535   5.644   5.860  15.740  0.3955 -0.4609  0.6384
 6348TIP3    H240536   5.622   5.968  15.843 -0.5356  1.7578 -1.7742
 6349TIP3   OH240537   2.403   6.734   2.139 -0.3429 -0.2146  0.2091
 6349TIP3    H140538   2.330   6.720   2.200  0.2562 -0.9678  0.7661
 6349TIP3    H240539   2.477   6.688   2.178  0.0898 -0.6355 -1.0351
 6350TIP3   OH240540   0.319   3.719  13.028  0.3003  0.3999 -0.3846
 6350TIP3    H140541   0.251   3.696  13.092 -0.8818 -2.1543 -2.3913
 6350TIP3    H240542   0.289   3.800  12.989 -1.0865 -0.1199 -0.4643
 6351TIP3   OH240543   2.269   1.470  12.263 -0.2216  0.5995  0.5698
 6351TIP3    H140544   2.253   1.471  12.358  2.4073 -0.5596  1.1294
 6351TIP3    H240545   2.231   1.388  12.233  1.4114 -0.4524  1.2225
 6352TIP3   OH240546   4.517   6.029  12.990 -0.2655  0.1936 -0.6759
 6352TIP3    H140547   4.514   5.934  13.004  0.9600  0.1654 -0.5241
 6352TIP3    H240548   4.592   6.043  12.933  0.4193  1.1990  0.4344
 6353TIP3   OH240549   2.800   5.530  11.821  0.0544 -0.3829  0.3730
 6353TIP3    H140550   2.795   5.435  11.830 -2.0559 -0.5029 -1.1973
 6353TIP3    H240551   2.861   5.558  11.889  0.0787 -2.7715  1.4259
 6354TIP3   OH240552   6.137   5.368   5.607 -0.3077  0.0232  0.5353
 6354TIP3    H140553   6.164   5.451   5.645 -1.0532  1.1853 -1.3534
 6354TIP3    H240554   6.203   5.350   5.539 -2.2522  1.2042 -1.8298
 6355TIP3   OH240555   3.878   1.712   5.703 -0.3372  0.5651 -0.4483
 6355TIP3    H140556   3.839   1.641   5.652  0.3316  0.4750 -0.8428
 6355TIP3    H240557   3.845   1.698   5.792 -0.6057  0.0534 -0.6237
 6356TIP3   OH240558   4.519   1.958   0.019 -0.5242 -0.4389  0.5739
 6356TIP3    H140559   4.580   2.016  -0.026 -0.3715 -1.0129  0.0299
 6356TIP3    H240560   4.453   2.016   0.057 -1.5668 -0.0221 -1.7137
 6357TIP3   OH240561   0.091   4.213   6.276  0.0357  0.5383  0.8628
 6357TIP3    H140562   0.169   4.209   6.220 -0.3206  0.2673  0.3763
 6357TIP3    H240563   0.109   4.284   6.337  0.4946  0.7523  0.4870
 6358TIP3   OH240564   5.556   1.818  11.521  0.0249 -0.5199  0.0695
 6358TIP3    H140565   5.503   1.854  11.450 -0.9505 -2.1937 -0.1197
 6358TIP3    H240566   5.625   1.768  11.477  0.4643 -0.1314  0.3103
 6359TIP3   OH240567   5.723   4.278  13.632  0.5376 -0.2407  0.1918
 6359TIP3    H140568   5.814   4.276  13.605  0.3725 -0.0552 -0.4076
 6359TIP3    H240569   5.711   4.198  13.683  1.0285 -0.2786  0.2480
 6360TIP3   OH240570   1.536   0.234   1.869  0.5495 -0.3317 -0.1895
 6360TIP3    H140571   1.463   0.285   1.835 -0.1415 -2.3107 -1.9392
 6360TIP3    H240572   1.614   0.279   1.838  0.0284  0.4667 -0.3723
 6361TIP3   OH240573   6.718   4.687   2.052  0.1124  0.2638 -0.7735
 6361TIP3    H140574   6.634   4.699   2.095  0.0219  0.4830 -1.0111
 6361TIP3    H240575   6.724   4.593   2.036  0.9189 -0.0880  1.2924
 6362TIP3   OH240576   6.263   3.598   5.344  0.0103 -0.1203 -0.4830
 6362TIP3    H140577   6.244   3.573   5.435  0.8746  0.0399 -0.2519
 6362TIP3    H240578   6.216   3.681   5.333 -0.7467 -0.5340 -0.4402
 6363TIP3   OH240579   5.691   1.979  12.825 -0.4853  0.0777 -0.0225
 6363TIP3    H140580   5.674   1.959  12.918 -0.2405  0.4201  0.0982
 6363TIP3    H240581   5.750   1.909  12.796 -0.8937 -0.2707 -0.0408
 6364TIP3   OH240582   2.012   1.484  15.540  0.1713 -0.0483 -0.3806
 6364TIP3    H140583   2.001   1.557  15.480 -3.0229 -0.1701 -0.1241
 6364TIP3    H240584   2.007   1.406  15.485 -1.1696 -0.1248 -0.1817
 6365TIP3   OH240585   2.392   4.740  14.696 -0.1332 -0.0674  0.9447
 6365TIP3    H140586   2.419   4.732  14.604 -0.2316  0.2396  0.8853
 6365TIP3    H240587   2.473   4.759  14.743 -0.2056  0.6179  0.8002
 6366TIP3   OH240588   5.300   2.242   0.597 -0.2796 -0.4609 -0.4899
 6366TIP3    H140589   5.280   2.244   0.504 -1.4597 -0.0604 -0.2478
 6366TIP3    H240590   5.243   2.310   0.635 -0.3882 -1.1483  0.6184
 6367TIP3   OH240591   4.765   0.643  10.527 -0.3546  0.4140 -0.0521
 6367TIP3    H140592   4.754   0.737  10.540 -1.7874  0.1470  0.9701
 6367TIP3    H240593   4.858   0.628  10.541 -0.4377  1.3916  2.0743
 6368TIP3   OH240594   2.094   0.941   5.499 -0.2832 -0.5880 -0.6696
 6368TIP3    H140595   2.085   1.033   5.524  0.1891 -1.0163  1.2134
 6368TIP3    H240596   2.060   0.937   5.409 -0.1758  1.4328 -0.8410
 6369TIP3   OH240597   2.028   5.050   4.351  0.0543  0.1539  0.0972
 6369TIP3    H140598   2.051   5.143   4.351  0.7258  0.0043 -1.2114
 6369TIP3    H240599   2.078   5.013   4.279 -1.2317 -0.9775 -0.2439
 6370TIP3   OH240600   1.976   6.019  11.080 -0.2520 -0.0867 -0.6635
 6370TIP3    H140601   2.016   6.106  11.080 -0.4156  0.0052  0.4270
 6370TIP3    H240602   2.026   5.969  11.016 -1.4372  1.3645 -2.8545
 6371TIP3   OH240603   2.920   4.934   6.428 -0.1450  0.1217 -0.7621
 6371TIP3    H140604   3.016   4.942   6.421  0.2880 -0.5801  2.5764
 6371TIP3    H240605   2.893   5.014   6.473 -0.4935 -1.3836  1.8977
 6372TIP3   OH240606   0.597   1.124   1.695  0.0448  0.0201 -0.0370
 6372TIP3    H140607   0.600   1.032   1.670  2.1287 -0.1795  0.7170
 6372TIP3    H240608   0.689   1.149   1.703 -0.4660  1.4322  2.3873
 6373TIP3   OH240609   5.591   3.325   3.659 -0.4288  0.2289 -0.4713
 6373TIP3    H140610   5.501   3.302   3.636 -1.3482 -0.0425  2.8512
 6373TIP3    H240611   5.583   3.409   3.705  1.0743  0.3635 -0.4071
 6374TIP3   OH240612   5.437   1.278   0.630  0.3002  0.5164  0.0912
 6374TIP3    H140613   5.376   1.350   0.645  2.7699  3.0833 -1.3291
 6374TIP3    H240614   5.520   1.309   0.666  1.2377 -2.1230  0.4128
 6375TIP3   OH240615   4.019   6.807  14.014  0.8909 -0.2043 -0.0170
 6375TIP3    H140616   4.027   6.902  14.024 -0.0534 -0.1505  0.2975
 6375TIP3    H240617   3.991   6.794  13.924 -1.2204 -0.0203  0.5586
 6376TIP3   OH240618   1.201   3.229  14.841  0.3165  0.6488 -0.0188
 6376TIP3    H140619   1.157   3.207  14.924  3.4233 -1.2903  1.2923
 6376TIP3    H240620   1.153   3.179  14.775  0.0811 -0.8555  1.2309
 6377TIP3   OH240621   0.847   4.370  15.163 -0.6649  0.4850  0.1965
 6377TIP3    H140622   0.834   4.455  15.120 -1.2034  0.3172  0.0249
 6377TIP3    H240623   0.942   4.359  15.164 -0.6318  0.4763 -1.0115
 6378TIP3   OH240624   4.145   2.804  16.212  0.2017  0.4706  0.3739
 6378TIP3    H140625   4.067   2.780  16.262  0.3948  0.5553  0.7236
 6378TIP3    H240626   4.133   2.761  16.127 -0.7485  1.4009  0.0197
 6379TIP3   OH240627   6.733   4.084   4.169 -0.2894  0.1698  0.5412
 6379TIP3    H140628   6.826   4.092   4.147 -0.5635  0.0622 -0.7760
 6379TIP3    H240629   6.721   4.143   4.243  0.8126  0.2564  0.6743
 6380TIP3   OH240630   0.691   2.987  14.458 -0.1301 -0.1196  0.3859
 6380TIP3    H140631   0.720   2.926  14.525 -0.2802 -0.0133  0.5494
 6380TIP3    H240632   0.772   3.015  14.414 -0.1605 -1.4168 -0.5597
 6381TIP3   OH240633   3.312   0.983  11.962 -0.0266  0.1726 -0.0289
 6381TIP3    H140634   3.267   0.977  12.046 -1.5602 -0.7236 -0.8762
 6381TIP3    H240635   3.375   0.910  11.963  0.7657  0.8387  0.7587
 6382TIP3   OH240636   4.768   6.005   4.650 -0.0599  0.3655 -0.2489
 6382TIP3    H140637   4.741   6.068   4.717  1.8544  1.6537 -0.5931
 6382TIP3    H240638   4.859   6.028   4.631 -0.5403  0.1190 -3.3662
 6383TIP3   OH240639   2.746   3.293  15.577 -0.0466 -0.1545  0.1885
 6383TIP3    H140640   2.792   3.359  15.629 -0.3409  0.9805 -0.9331
 6383TIP3    H240641   2.653   3.315  15.587 -0.1024  0.1355 -0.8509
 6384TIP3   OH240642   3.746   5.164   5.719 -0.4040  0.2997  0.8753
 6384TIP3    H140643   3.776   5.160   5.810 -0.2000 -2.5078  0.7611
 6384TIP3    H240644   3.748   5.257   5.698  2.9185  0.7912  2.6363
 6385TIP3   OH240645   4.994   6.566  14.034  0.0653  0.5264  0.3867
 6385TIP3    H140646   4.917   6.616  14.060  0.6667  1.6578  0.0342
 6385TIP3    H240647   5.064   6.630  14.028  0.1520  0.3075 -3.3329
 6386TIP3   OH240648   4.367   0.594  11.663  0.3089  0.3842 -0.1308
 6386TIP3    H140649   4.440   0.596  11.601 -1.4478 -1.9098 -2.4656
 6386TIP3    H240650   4.353   0.501  11.682 -1.5234  0.8009  0.8569
 6387TIP3   OH240651   3.678   5.292  12.652 -0.4048 -0.1783  0.6227
 6387TIP3    H140652   3.701   5.206  12.619 -1.4680  0.4112 -1.8781
 6387TIP3    H240653   3.599   5.278  12.703 -0.8881 -0.6305 -0.2281
 6388TIP3   OH240654   5.516   3.210  15.009 -0.2347 -0.3619  0.3913
 6388TIP3    H140655   5.497   3.117  15.022 -0.8229 -0.1651  0.9686
 6388TIP3    H240656   5.584   3.230  15.073 -0.8536 -0.1508  0.9896
 6389TIP3   OH240657   2.004   1.128  11.987  0.2869 -0.3150  0.7047
 6389TIP3    H140658   2.030   1.132  12.079  0.1037  1.5817  0.7010
 6389TIP3    H240659   2.078   1.086  11.943 -0.0059 -2.1121  1.8126
 6390TIP3   OH240660   4.718   4.665  12.369  0.1546  0.0439 -0.0951
 6390TIP3    H140661   4.721   4.630  12.280  1.6859  1.4586 -0.6756
 6390TIP3    H240662   4.794   4.625  12.412  0.9119  1.2402 -0.2525
 6391TIP3   OH240663   5.784   3.158  16.553  0.3584  0.6931  0.2072
 6391TIP3    H140664   5.819   3.073  16.528  2.3528  0.8449  2.1875
 6391TIP3    H240665   5.849   3.221  16.521  1.6233  1.0414  3.1568
 6392TIP3   OH240666   6.652   6.023   3.691 -0.2011 -1.1366 -0.1196
 6392TIP3    H140667   6.668   5.992   3.780  0.3240 -1.4326 -0.3160
 6392TIP3    H240668   6.568   6.069   3.697  0.5194  0.1250  0.8558
 6393TIP3   OH240669   4.515   4.152   1.875 -0.2671 -0.1775 -0.2158
 6393TIP3    H140670   4.472   4.067   1.888 -0.2830  0.0493  1.4741
 6393TIP3    H240671   4.444   4.216   1.883 -0.2578  0.0160 -1.5023
 6394TIP3   OH240672   6.786   5.608  11.702  0.0538  0.6135  0.3527
 6394TIP3    H140673   6.852   5.602  11.633  1.6663  0.3292  1.8506
 6394TIP3    H240674   6.748   5.521  11.706 -0.6597  0.8547 -0.7126
 6395TIP3   OH240675   2.258   2.616   1.732  0.5590  0.1640 -0.5461
 6395TIP3    H140676   2.303   2.534   1.715 -0.2694 -0.1231 -1.4568
 6395TIP3    H240677   2.271   2.667   1.652  0.7541  0.7783 -0.1312
 6396TIP3   OH240678   5.902   6.047  15.221  0.0662 -0.0451  0.1383
 6396TIP3    H140679   5.845   6.122  15.203 -0.9025 -0.8305 -0.1584
 6396TIP3    H240680   5.898   5.994  15.141 -0.0495 -0.9149  0.7055
 6397TIP3   OH240681   0.924   3.055   3.066  0.8205  0.7590  0.0380
 6397TIP3    H140682   0.894   3.048   2.976 -0.0087 -4.3846  0.4097
 6397TIP3    H240683   0.848   3.031   3.119  1.6805  2.1957  2.0823
 6398TIP3   OH240684   0.384   0.266  10.762  0.3809 -0.0168  0.0938
 6398TIP3    H140685   0.306   0.289  10.712 -1.2719 -2.0026  1.5821
 6398TIP3    H240686   0.392   0.335  10.827 -0.9128 -0.4347  0.7206
 6399TIP3   OH240687   3.279   2.104   4.159  0.3814 -0.2894 -0.5889
 6399TIP3    H140688   3.200   2.121   4.108 -0.1921  0.8048  0.6107
 6399TIP3    H240689   3.246   2.084   4.247  1.4489  0.3629 -0.0317
 6400TIP3   OH240690   6.090   0.313   1.815  0.4150  0.6439  0.1274
 6400TIP3    H140691   6.177   0.288   1.846  0.6617  0.0328 -1.0076
 6400TIP3    H240692   6.065   0.243   1.756 -1.0471  0.6042  0.7625
 6401TIP3   OH240693   1.648   5.260   3.912 -0.1729 -0.4926 -0.0499
 6401TIP3    H140694   1.664   5.217   3.996 -1.3976 -0.3798  0.2644
 6401TIP3    H240695   1.582   5.206   3.869 -0.0911 -0.1512 -0.6252
 6402TIP3   OH240696   3.337   1.253  11.511  0.3989 -0.1299 -0.5178
 6402TIP3    H140697   3.312   1.248  11.603 -0.1203  1.7745 -0.4989
 6402TIP3    H240698   3.296   1.177  11.470 -0.7815 -0.0815  0.5246
 6403TIP3   OH240699   3.262   3.672  15.549  0.1504 -0.0756  0.4081
 6403TIP3    H140700   3.350   3.666  15.588  0.5339 -2.4618 -0.6043
 6403TIP3    H240701   3.278   3.703  15.460  0.0304 -0.8392  0.1132
 6404TIP3   OH240702   2.109   3.790   4.033  0.4552  0.0910 -0.6202
 6404TIP3    H140703   2.090   3.701   4.063  0.7202  0.7102  1.5654
 6404TIP3    H240704   2.204   3.790   4.015  0.3037 -0.2700 -1.4653
 6405TIP3   OH240705   1.127   4.094   3.333  0.6188  0.0183  0.0830
 6405TIP3    H140706   1.039   4.106   3.297  0.7065  2.5549  0.5615
 6405TIP3    H240707   1.146   4.001   3.317 -1.7737 -0.4069 -0.8053
 6406TIP3   OH240708   2.529   4.443  14.759  0.4297 -0.6498 -0.3689
 6406TIP3    H140709   2.484   4.383  14.818 -0.3162  0.2710  0.0183
 6406TIP3    H240710   2.583   4.498  14.816  1.2904 -1.0875 -0.7395
 6407TIP3   OH240711   5.161   3.148   2.452  0.2019  0.0922 -0.8431
 6407TIP3    H140712   5.107   3.120   2.378 -0.7662 -1.6866  0.4383
 6407TIP3    H240713   5.105   3.134   2.528  1.6308  0.5921  0.3502
 6408TIP3   OH240714   4.021   1.512   2.344  0.6369  0.0942  0.1392
 6408TIP3    H140715   4.091   1.447   2.340  0.5522 -0.2501  2.6892
 6408TIP3    H240716   4.015   1.535   2.437 -1.2671  1.6260 -0.3034
 6409TIP3   OH240717   3.104   1.155  17.029 -0.3237 -0.0459  0.1288
 6409TIP3    H140718   3.033   1.103  16.991 -1.4888  1.5881 -0.0467
 6409TIP3    H240719   3.074   1.246  17.021  0.3605  0.5095  2.9482
 6410TIP3   OH240720   0.119   1.253   1.492  0.4751  0.4140 -0.1763
 6410TIP3    H140721   0.078   1.301   1.564 -0.6625 -0.7695  0.0110
 6410TIP3    H240722   0.213   1.257   1.510  0.2804  1.0577  0.7620
 6411TIP3   OH240723   3.770   4.361  14.041  0.4896 -0.8923 -0.0244
 6411TIP3    H140724   3.740   4.434  14.094  2.5586 -0.8366  1.1919
 6411TIP3    H240725   3.692   4.330  13.996 -1.1781 -0.3062  2.2924
 6412TIP3   OH240726   3.427   2.230   3.776  0.2309  0.5661 -0.0706
 6412TIP3    H140727   3.474   2.313   3.773  0.4964  0.6477  2.9131
 6412TIP3    H240728   3.338   2.254   3.802 -0.4559  0.0964 -1.8909
 6413TIP3   OH240729   6.247   6.772   0.196  0.1610 -0.4222  0.4852
 6413TIP3    H140730   6.243   6.761   0.101 -0.2062 -1.4486  0.6131
 6413TIP3    H240731   6.321   6.717   0.224  1.5142  1.3564  0.6086
 6414TIP3   OH240732   6.735   3.560   3.194 -0.5371 -0.4661  0.4576
 6414TIP3    H140733   6.701   3.487   3.244 -1.1467  0.4529  1.4249
 6414TIP3    H240734   6.817   3.584   3.238 -0.9309  0.1637  0.8651
 6415TIP3   OH240735   2.001   2.291   6.163 -0.2566  0.4749 -0.2406
 6415TIP3    H140736   1.935   2.357   6.185 -2.0135 -0.5800 -2.0333
 6415TIP3    H240737   1.983   2.218   6.222 -0.8877  0.0862 -0.9029
 6416TIP3   OH240738   3.841   1.553   5.231 -0.1005 -0.3259 -0.1474
 6416TIP3    H140739   3.843   1.462   5.262  0.3589 -0.0611  0.6178
 6416TIP3    H240740   3.921   1.562   5.178  0.8293  0.1227  1.2567
 6417TIP3   OH240741   0.379   3.045   6.544  0.5244 -0.2709  0.0019
 6417TIP3    H140742   0.325   3.097   6.484 -0.2047 -1.4847 -0.4225
 6417TIP3    H240743   0.341   2.957   6.541  1.3916 -0.7100  1.1232
 6418TIP3   OH240744   2.000   3.712  12.689 -0.4535 -0.1828  0.1845
 6418TIP3    H140745   2.050   3.637  12.657 -0.0153 -0.1332  0.7307
 6418TIP3    H240746   1.991   3.769  12.613  2.5699  1.0383  0.6076
 6419TIP3   OH240747   5.214   5.283   4.922  0.3376  0.0889  0.5233
 6419TIP3    H140748   5.309   5.271   4.918  0.7974  3.3700 -0.7509
 6419TIP3    H240749   5.197   5.307   5.013  0.7775  0.0201  0.6272
 6420TIP3   OH240750   3.102   2.145   3.980 -0.0673  0.1661  0.4062
 6420TIP3    H140751   3.011   2.170   3.993 -0.1548 -1.1926  3.2096
 6420TIP3    H240752   3.102   2.095   3.899 -1.6272  0.8531 -0.0613
 6421TIP3   OH240753   4.248   2.040  11.301 -0.0343 -0.0830  0.0041
 6421TIP3    H140754   4.313   2.073  11.238  2.2820 -0.3043  2.1374
 6421TIP3    H240755   4.229   1.951  11.272  0.2775  0.1280 -0.8845
 6422TIP3   OH240756   0.253   6.515   1.099 -0.3859  0.0626  0.5349
 6422TIP3    H140757   0.247   6.552   1.011 -1.0871 -0.1714  0.4730
 6422TIP3    H240758   0.165   6.528   1.136 -0.5147 -1.1157  0.6742
 6423TIP3   OH240759   5.393   6.733   6.206  0.1279  0.1968 -0.2761
 6423TIP3    H140760   5.398   6.642   6.236  2.1709 -0.0469 -1.2545
 6423TIP3    H240761   5.358   6.728   6.117 -0.4661  0.4651 -0.0708
 6424TIP3   OH240762   3.776   4.803  12.737  0.3156  0.0237  0.0151
 6424TIP3    H140763   3.752   4.728  12.682 -1.4613  0.8390 -0.4156
 6424TIP3    H240764   3.870   4.794  12.751  0.2826 -1.8328 -0.6976
 6425TIP3   OH240765   5.180   4.050  14.650  0.6537 -0.1806  0.2941
 6425TIP3    H140766   5.218   4.132  14.680 -0.1149  0.6517 -0.9382
 6425TIP3    H240767   5.232   4.025  14.574 -0.9583  0.8136 -1.2282
 6426TIP3   OH240768   5.393   0.443   1.163  0.0792 -0.1361 -0.3307
 6426TIP3    H140769   5.374   0.498   1.086  3.0118  3.0739  0.9713
 6426TIP3    H240770   5.321   0.459   1.223 -0.3911  0.2450 -0.9911
 6427TIP3   OH240771   6.151   0.342  11.800  0.1989  0.4675  0.3275
 6427TIP3    H140772   6.145   0.386  11.884  1.3868  1.0108  0.1487
 6427TIP3    H240773   6.233   0.292  11.805  0.4751  0.8104 -0.6380
 6428TIP3   OH240774   4.623   1.053   0.373  0.2926 -0.0404  0.0018
 6428TIP3    H140775   4.539   1.026   0.410  0.2870 -0.5769 -0.3897
 6428TIP3    H240776   4.602   1.093   0.289  0.3658  0.5281  0.2516
 6429TIP3   OH240777   3.827   0.732   4.680 -0.3774  0.3729  0.3914
 6429TIP3    H140778   3.808   0.692   4.765  0.4435 -0.6212  0.1358
 6429TIP3    H240779   3.835   0.658   4.620  0.2862  0.9746 -0.2919
 6430TIP3   OH240780   6.180   1.540  14.873  0.6648  0.7578  0.5778
 6430TIP3    H140781   6.260   1.501  14.837  0.1678  0.0054  0.2708
 6430TIP3    H240782   6.163   1.491  14.953  1.2966  1.8718  1.4154
 6431TIP3   OH240783   4.706   6.237   2.232 -0.1915  0.3040  0.2477
 6431TIP3    H140784   4.763   6.236   2.309  0.0375 -1.2411  0.0766
 6431TIP3    H240785   4.753   6.292   2.169  0.6245 -0.1028  0.4804
 6432TIP3   OH240786   3.553   1.290  10.575  0.4898  0.0913 -0.0877
 6432TIP3    H140787   3.568   1.283  10.669  0.0837  1.3875  0.0956
 6432TIP3    H240788   3.469   1.245  10.560  0.4670  0.0413  0.1977
 6433TIP3   OH240789   3.632   3.189  15.472  0.0037  0.1185 -0.3896
 6433TIP3    H140790   3.634   3.202  15.377 -0.9315  1.4495 -0.2562
 6433TIP3    H240791   3.540   3.196  15.495  0.2474  0.0118  0.6545
 6434TIP3   OH240792   5.940   3.317   5.999  0.5269 -0.2863  0.1087
 6434TIP3    H140793   5.989   3.287   5.922 -0.0620  0.6791 -0.6636
 6434TIP3    H240794   5.903   3.238   6.037  0.3655 -0.7168 -0.9279
 6435TIP3   OH240795   3.022   5.497   0.338 -0.0441 -0.3845 -0.0950
 6435TIP3    H140796   3.015   5.527   0.428 -2.2760  0.4637 -0.4883
 6435TIP3    H240797   2.952   5.432   0.328 -0.2692  0.0190 -1.3894
 6436TIP3   OH240798   3.610   6.773  15.079 -1.0636 -0.2881 -0.3639
 6436TIP3    H140799   3.676   6.704  15.066 -0.5038 -0.0381  0.9105
 6436TIP3    H240800   3.576   6.756  15.167  0.4948  2.1798  0.8149
 6437TIP3   OH240801   3.079   6.054  14.403  0.1444  0.3230 -0.2737
 6437TIP3    H140802   3.135   6.007  14.341 -1.4990 -1.6488 -0.3732
 6437TIP3    H240803   2.995   6.062  14.358 -1.2517 -1.5706  1.7351
 6438TIP3   OH240804   4.356   6.782  12.196 -0.0840 -0.8022 -0.4683
 6438TIP3    H140805   4.413   6.843  12.148 -0.4723  0.0264  0.0954
 6438TIP3    H240806   4.406   6.759  12.274 -0.4073 -0.2633 -0.0931
 6439TIP3   OH240807   4.550   0.143  14.888  0.0302  0.5398  0.3684
 6439TIP3    H140808   4.539   0.081  14.817  0.0493  0.0334  0.8022
 6439TIP3    H240809   4.639   0.176  14.877 -0.7447  2.2694 -1.2530
 6440TIP3   OH240810   2.206   4.642  13.782 -0.3213 -0.5096  0.5511
 6440TIP3    H140811   2.162   4.585  13.719 -1.9869 -1.1255  2.1546
 6440TIP3    H240812   2.143   4.713  13.797  0.9302  0.7524  0.0052
 6441TIP3   OH240813   1.126   3.063   0.530 -0.1240  0.3670 -0.1666
 6441TIP3    H140814   1.141   3.137   0.471 -0.8193  1.2024  0.6622
 6441TIP3    H240815   1.036   3.035   0.510 -0.0877  0.1545 -0.0360
 6442TIP3   OH240816   5.832   1.315   0.984 -0.4466  0.2048  0.5742
 6442TIP3    H140817   5.791   1.258   1.049 -0.7321  0.4867  0.6460
 6442TIP3    H240818   5.781   1.396   0.988  0.2065  0.6160  0.7655
 6443TIP3   OH240819   2.877   0.118  15.805  0.2965  0.3126 -0.0643
 6443TIP3    H140820   2.806   0.083  15.858  1.0223 -2.0364 -0.4819
 6443TIP3    H240821   2.839   0.133  15.719 -0.0205  0.4831  0.1060
 6444TIP3   OH240822   6.471   6.248   0.611 -0.0659 -0.3010 -0.4591
 6444TIP3    H140823   6.390   6.297   0.595 -0.9437 -1.9001 -1.1878
 6444TIP3    H240824   6.526   6.267   0.535 -0.2010 -0.0792 -0.5032
 6445TIP3   OH240825   1.191   2.221   1.184 -0.1972 -0.2066 -0.2090
 6445TIP3    H140826   1.285   2.208   1.194 -0.0848  1.1721  0.9157
 6445TIP3    H240827   1.152   2.164   1.250 -0.3488 -2.5313 -2.1596
 6446TIP3   OH240828   2.573   6.603   3.609 -0.4680 -0.0295 -0.3487
 6446TIP3    H140829   2.548   6.695   3.611  2.6300  1.0143 -2.3508
 6446TIP3    H240830   2.615   6.588   3.694  2.7692  1.7917 -1.4475
 6447TIP3   OH240831   5.676   2.987  17.121 -0.2497  0.3205  0.5293
 6447TIP3    H140832   5.730   2.919  17.161 -0.0189  0.4368  0.4181
 6447TIP3    H240833   5.695   3.066  17.173  0.4526  0.5987 -0.1277
 6448TIP3   OH240834   6.419   6.473  10.980  0.4736  0.0900 -0.4052
 6448TIP3    H140835   6.466   6.541  10.932  0.8118  1.0707  1.2181
 6448TIP3    H240836   6.328   6.503  10.982  0.4680  0.0732 -0.4120
 6449TIP3   OH240837   5.517   2.954  13.315 -0.1707 -0.1409  0.5437
 6449TIP3    H140838   5.440   2.898  13.310 -1.1334  0.9192  2.5603
 6449TIP3    H240839   5.512   3.008  13.237 -1.2856 -0.3126  0.4852
 6450TIP3   OH240840   5.915   5.117  12.710  0.1346  0.4320 -0.0726
 6450TIP3    H140841   5.860   5.186  12.746  0.4704  1.0101 -0.6438
 6450TIP3    H240842   5.930   5.057  12.783 -2.0815 -0.3006 -0.1363
 6451TIP3   OH240843   5.063   3.803   4.078 -0.1510 -0.2988  0.0207
 6451TIP3    H140844   5.144   3.842   4.110 -0.2408 -1.4828  1.8573
 6451TIP3    H240845   5.090   3.750   4.003  0.4246  0.8747 -0.6253
 6452TIP3   OH240846   6.534   4.864   4.665  0.2820  0.4550 -0.1043
 6452TIP3    H140847   6.622   4.837   4.692  0.2292  0.8656  0.5132
 6452TIP3    H240848   6.482   4.783   4.669  0.0322  0.6470  2.1214
 6453TIP3   OH240849   1.562   4.833  14.749  0.9170 -0.2958  0.4534
 6453TIP3    H140850   1.518   4.899  14.694  0.9351 -1.8051 -1.4786
 6453TIP3    H240851   1.644   4.875  14.774  0.2856  0.9616  0.5054
 6454TIP3   OH240852   1.288   6.315  12.276  0.6877  0.1918  0.4605
 6454TIP3    H140853   1.249   6.338  12.360  0.9979 -2.2201  1.3186
 6454TIP3    H240854   1.381   6.330  12.287  0.8556 -1.1072  0.9259
 6455TIP3   OH240855   1.314   3.816   1.439  0.6183 -0.5762 -0.7056
 6455TIP3    H140856   1.277   3.759   1.372  0.3961  0.8722 -1.8443
 6455TIP3    H240857   1.406   3.788   1.446  0.8832 -0.1837 -2.2653
 6456TIP3   OH240858   4.264   6.038   4.335  0.5485  0.0863  0.0475
 6456TIP3    H140859   4.341   5.982   4.329 -0.0127 -0.7634  0.6059
 6456TIP3    H240860   4.247   6.046   4.429 -0.2314 -0.0076 -0.0782
 6457TIP3   OH240861   1.196   5.481  13.376 -0.2960  0.0251 -0.3845
 6457TIP3    H140862   1.248   5.524  13.444 -0.2233 -1.4580  0.5403
 6457TIP3    H240863   1.154   5.408  13.421 -0.0182 -1.1840 -1.9918
 6458TIP3   OH240864   2.064   5.131   0.887  0.4757  0.1517  0.4372
 6458TIP3    H140865   2.015   5.212   0.899  1.6207  0.7133  1.4360
 6458TIP3    H240866   2.037   5.075   0.960  1.6500  0.6525  1.2867
 6459TIP3   OH240867   1.259   3.389   5.258 -0.7796 -0.3021 -0.3608
 6459TIP3    H140868   1.168   3.419   5.265 -0.8898 -0.7987  0.4343
 6459TIP3    H240869   1.255   3.295   5.274 -0.1158 -0.3060 -0.1801
 6460TIP3   OH240870   5.813   4.138  11.063  0.8222 -0.7219  0.3911
 6460TIP3    H140871   5.729   4.132  11.109 -0.0748  0.3329 -1.0076
 6460TIP3    H240872   5.790   4.132  10.970  2.1016  0.9549 -0.0967
 6461TIP3   OH240873   3.076   5.635   2.443  0.2753  0.1158 -0.2885
 6461TIP3    H140874   3.039   5.624   2.530 -2.0647  2.2189 -0.9075
 6461TIP3    H240875   3.160   5.680   2.458  1.1648 -1.8079  0.9451
 6462TIP3   OH240876   3.305   6.026   2.155  0.1049 -0.0782 -0.1949
 6462TIP3    H140877   3.270   6.032   2.067  0.2911  1.7853 -0.1872
 6462TIP3    H240878   3.309   6.117   2.186  0.4123 -0.6425  1.5822
 6463TIP3   OH240879   5.716   3.548   0.487  0.5534 -0.5875 -0.5408
 6463TIP3    H140880   5.800   3.541   0.533  0.5009 -2.2234 -0.6303
 6463TIP3    H240881   5.737   3.591   0.404  0.9018  1.0335  0.3533
 6464TIP3   OH240882   3.165   3.112  11.278 -0.2956 -0.6356 -0.5711
 6464TIP3    H140883   3.116   3.132  11.199 -0.6411 -0.4320 -0.3075
 6464TIP3    H240884   3.104   3.130  11.350 -0.5193 -2.2831 -0.3053
 6465TIP3   OH240885   2.217   2.379  15.721 -0.0300 -0.8861  0.1199
 6465TIP3    H140886   2.298   2.395  15.673 -0.5248  0.1204 -0.4013
 6465TIP3    H240887   2.241   2.388  15.813  0.2678  0.3435 -0.0628
 6466TIP3   OH240888   2.330   0.630  14.326  0.0346 -0.3288 -0.1549
 6466TIP3    H140889   2.385   0.552  14.313 -0.6733 -0.5818 -1.9489
 6466TIP3    H240890   2.266   0.603  14.392 -0.3841 -1.4050 -0.9650
 6467TIP3   OH240891   1.848   4.917   1.360 -1.1627  0.1109 -0.1473
 6467TIP3    H140892   1.891   4.876   1.435  1.3917  0.6236 -1.2260
 6467TIP3    H240893   1.789   4.982   1.399 -0.6738 -0.3551  1.4316
 6468TIP3   OH240894   0.989   1.330  15.400  0.3513 -0.2797 -0.1267
 6468TIP3    H140895   0.940   1.298  15.324  1.1564 -1.2299 -0.2578
 6468TIP3    H240896   1.071   1.280  15.399  1.2905  1.1978  0.1530
 6469TIP3   OH240897   2.989   0.752  14.245 -0.0639  0.7403  0.5372
 6469TIP3    H140898   3.004   0.807  14.168 -1.8506  1.0075  0.3282
 6469TIP3    H240899   2.894   0.755  14.258 -0.2033 -2.0045  0.7382
 6470TIP3   OH240900   1.798   1.049   3.149  0.2377 -0.3400  0.5986
 6470TIP3    H140901   1.723   1.077   3.201  1.1681 -0.1270  1.8724
 6470TIP3    H240902   1.818   0.961   3.182 -0.3179 -0.9915 -0.7327
 6471TIP3   OH240903   5.351   5.246   2.967  0.4142  0.2856  0.0306
 6471TIP3    H140904   5.360   5.326   3.019 -0.9489 -0.3115  1.2848
 6471TIP3    H240905   5.432   5.198   2.983  0.6970  0.8316  0.2943
 6472TIP3   OH240906   4.896   3.762   0.370 -0.6422 -0.1432 -0.7515
 6472TIP3    H140907   4.921   3.771   0.278 -1.9485  1.4274 -0.9858
 6472TIP3    H240908   4.976   3.785   0.418  0.0293 -0.9000 -1.4558
 6473TIP3   OH240909   0.275   6.561   2.515 -0.5044 -0.7796 -1.2999
 6473TIP3    H140910   0.338   6.493   2.536  0.2145  0.0938 -0.5676
 6473TIP3    H240911   0.266   6.557   2.420  2.3436  0.5159 -1.7018
 6474TIP3   OH240912   1.245   2.081  17.137 -0.2930  0.4431  0.2796
 6474TIP3    H140913   1.202   2.167  17.131  0.3335  0.7390 -0.0225
 6474TIP3    H240914   1.324   2.097  17.187 -0.5321 -0.1088  0.8427
 6475TIP3   OH240915   4.165   2.949  16.634  0.7915 -0.3290 -0.2052
 6475TIP3    H140916   4.183   3.031  16.680  1.8743 -1.4052  1.3904
 6475TIP3    H240917   4.196   2.965  16.545  0.0541  1.3119 -0.2008
 6476TIP3   OH240918   4.880   4.191   3.384 -0.0684  0.5933  0.1711
 6476TIP3    H140919   4.889   4.103   3.421  0.7663  0.6984  0.2324
 6476TIP3    H240920   4.786   4.199   3.365  0.0253 -0.7683 -1.0011
 6477TIP3   OH240921   4.240   1.852  16.518 -0.0668 -0.1932 -0.3488
 6477TIP3    H140922   4.266   1.941  16.497 -0.2131  0.3763  1.6311
 6477TIP3    H240923   4.261   1.801  16.440  3.2287  0.9488 -0.3647
 6478TIP3   OH240924   5.736   4.788   3.597 -0.0792  0.9128  0.1080
 6478TIP3    H140925   5.829   4.811   3.607 -0.1984  1.4547  0.0230
 6478TIP3    H240926   5.702   4.853   3.536 -1.1124  2.4176  2.1446
 6479TIP3   OH240927   0.341   4.169  14.259  0.6462  0.2311 -0.5029
 6479TIP3    H140928   0.410   4.232  14.279  1.6354 -1.0616  0.3647
 6479TIP3    H240929   0.364   4.134  14.173  0.8374  0.0942 -0.3950
 6480TIP3   OH240930   2.901   5.447   3.341  0.3131  0.3734  0.0900
 6480TIP3    H140931   2.926   5.366   3.385  0.1598  0.1460 -0.2378
 6480TIP3    H240932   2.832   5.485   3.396 -1.4600 -1.0122 -1.0533
 6481TIP3   OH240933   1.120   0.837  15.905 -0.2938 -0.2296 -0.1640
 6481TIP3    H140934   1.063   0.785  15.848 -0.0397 -0.7381  0.0314
 6481TIP3    H240935   1.127   0.922  15.862 -0.8147 -0.3179 -0.4339
 6482TIP3   OH240936   0.812   1.095   5.400  0.1499 -0.0393 -0.2847
 6482TIP3    H140937   0.765   1.090   5.483  2.2853 -0.6530  0.9746
 6482TIP3    H240938   0.755   1.053   5.337 -0.8017 -1.1357  1.2401
 6483TIP3   OH240939   1.434   4.142   5.195 -0.4110 -0.1070  0.6401
 6483TIP3    H140940   1.363   4.081   5.213 -0.7040  0.5837  1.9270
 6483TIP3    H240941   1.459   4.176   5.281  0.1713  1.1083  0.0109
 6484TIP3   OH240942   5.911   2.542  16.648  0.4138 -0.7948 -0.3598
 6484TIP3    H140943   5.946   2.609  16.706 -2.7423 -0.9454  2.0177
 6484TIP3    H240944   5.902   2.465  16.703 -3.4501 -0.7274 -0.5743
 6485TIP3   OH240945   2.821   6.799  11.464 -0.4557  0.5170  0.8849
 6485TIP3    H140946   2.912   6.829  11.466 -0.4088  0.3642  1.1591
 6485TIP3    H240947   2.805   6.764  11.551 -0.5569 -0.0979  0.6314
 6486TIP3   OH240948   3.456   1.503  16.754 -0.0139 -0.3608 -0.1681
 6486TIP3    H140949   3.393   1.560  16.709  0.4731  0.3480  0.0372
 6486TIP3    H240950   3.420   1.492  16.842  1.0518  1.5473  0.5428
 6487TIP3   OH240951   3.370   6.524   5.905  0.5137  0.4494 -0.0106
 6487TIP3    H140952   3.390   6.551   5.994  0.3730 -0.5121  0.3251
 6487TIP3    H240953   3.396   6.599   5.850  0.1676  1.2220  0.8659
 6488TIP3   OH240954   1.507   0.820  14.216  0.3032  0.0382 -0.0811
 6488TIP3    H140955   1.587   0.778  14.247  0.0464 -0.2705  0.1724
 6488TIP3    H240956   1.437   0.757  14.236  0.2819 -0.8103 -2.5445
 6489TIP3   OH240957   0.990   6.023  15.115 -0.3162  0.8620  0.4739
 6489TIP3    H140958   1.082   6.003  15.136 -0.7577  0.2893  1.9545
 6489TIP3    H240959   0.944   6.013  15.198 -2.1154 -1.0575 -0.6698
 6490TIP3   OH240960   2.519   2.272  10.474  0.1506  0.2066 -0.0406
 6490TIP3    H140961   2.573   2.232  10.407  1.0433 -0.5876  1.1232
 6490TIP3    H240962   2.437   2.294  10.429  0.3306 -1.2443 -1.1303
 6491TIP3   OH240963   2.310   2.310  15.046 -0.1994 -0.0416  0.1088
 6491TIP3    H140964   2.335   2.340  14.958 -1.6388  2.3087  0.4072
 6491TIP3    H240965   2.376   2.244  15.068  1.7642  1.1654 -1.6795
 6492TIP3   OH240966   5.421   2.223  10.744 -0.3940 -0.1713  0.6400
 6492TIP3    H140967   5.490   2.290  10.748 -1.0116  0.8076 -2.2496
 6492TIP3    H240968   5.340   2.273  10.735 -1.0351 -1.2875 -0.0174
 6493TIP3   OH240969   1.061   4.357   6.620 -0.0287 -0.0976  0.2303
 6493TIP3    H140970   1.000   4.287   6.644  0.6744 -0.0898  2.2510
 6493TIP3    H240971   1.012   4.411   6.559 -1.0016 -1.6912 -0.4814
 6494TIP3   OH240972   4.141   2.026   6.251 -0.5316 -0.1325 -0.2948
 6494TIP3    H140973   4.136   1.935   6.223 -1.4508 -0.8120  1.8421
 6494TIP3    H240974   4.219   2.029   6.307 -2.6671 -0.7718  3.0340
 6495TIP3   OH240975   4.757   4.331   1.642  0.1482 -0.6852 -0.2380
 6495TIP3    H140976   4.734   4.260   1.701  1.0391 -0.9230 -0.1560
 6495TIP3    H240977   4.785   4.288   1.562  1.9298 -0.5186  0.2469
 6496TIP3   OH240978   2.816   2.276  13.700 -0.3778  0.5208  0.1663
 6496TIP3    H140979   2.818   2.357  13.751 -3.9710  1.1291 -0.4517
 6496TIP3    H240980   2.764   2.215  13.753  2.1742 -1.4987  0.5917
 6497TIP3   OH240981   4.624   6.696  12.985 -0.0109 -0.3974  0.2683
 6497TIP3    H140982   4.717   6.676  12.989  0.6981  1.9402 -1.8434
 6497TIP3    H240983   4.598   6.710  13.077  1.3272 -2.3545  1.0092
 6498TIP3   OH240984   0.451   0.202  15.117  1.1404 -0.0875  0.0114
 6498TIP3    H140985   0.528   0.251  15.148  1.8867 -0.7532 -0.7681
 6498TIP3    H240986   0.383   0.222  15.182  1.2524  2.3944 -0.5367
 6499TIP3   OH240987   5.297   1.471  14.557  0.0418 -0.3129 -0.2726
 6499TIP3    H140988   5.254   1.500  14.638  0.0559  1.3978 -0.8472
 6499TIP3    H240989   5.244   1.509  14.487  0.8647 -0.5605 -1.0456
 6500TIP3   OH240990   0.159   1.821   6.164  0.2232  0.2217  0.0445
 6500TIP3    H140991   0.066   1.803   6.179  0.3549 -0.8334 -0.3126
 6500TIP3    H240992   0.189   1.861   6.246 -0.2602 -0.6150  0.6441
 6501TIP3   OH240993   6.742   0.724  16.902  0.6385 -0.4449 -0.2859
 6501TIP3    H140994   6.694   0.791  16.951  0.2663  0.5188 -1.8951
 6501TIP3    H240995   6.714   0.641  16.940 -0.8394  0.1936  0.0876
 6502TIP3   OH240996   1.917   0.583  16.904 -0.1071  0.1569  0.0993
 6502TIP3    H140997   1.935   0.494  16.873 -1.0479 -0.6814  1.8326
 6502TIP3    H240998   1.910   0.635  16.824  1.4533 -1.1108 -0.9200
 6503TIP3   OH240999   0.398   3.128  15.238 -0.1965 -0.5886 -0.1875
 6503TIP3    H141000   0.390   3.223  15.232 -0.9906 -0.6495 -0.1811
 6503TIP3    H241001   0.488   3.110  15.210  0.6672  0.3311  1.7506
 6504TIP3   OH241002   5.061   2.723  14.387  0.3745  0.0435 -0.0392
 6504TIP3    H141003   5.136   2.783  14.391  0.4241 -0.0570  0.8493
 6504TIP3    H241004   4.986   2.778  14.412  0.4879 -0.3412  1.2481
 6505TIP3   OH241005   0.566   2.540   2.807  0.5666  0.1456  0.4487
 6505TIP3    H141006   0.603   2.537   2.719 -0.2411 -2.1608  0.1406
 6505TIP3    H241007   0.552   2.449   2.831 -1.1351  0.7924  2.1751
 6506TIP3   OH241008   6.595   5.865  15.578  0.5297 -0.2245  0.1544
 6506TIP3    H141009   6.632   5.778  15.561  1.0445 -0.0219  0.2043
 6506TIP3    H241010   6.671   5.919  15.600  0.1902  0.1900  0.3240
 6507TIP3   OH241011   1.825   5.883  14.275 -0.1736  0.7128  0.3368
 6507TIP3    H141012   1.806   5.848  14.362 -3.0049  0.7676 -0.1632
 6507TIP3    H241013   1.827   5.807  14.218 -1.5864  0.9058 -0.0102
 6508TIP3   OH241014   0.481   2.884   1.131  0.1413  0.5635  0.1234
 6508TIP3    H141015   0.461   2.807   1.078 -1.0824  0.3736  0.8180
 6508TIP3    H241016   0.570   2.869   1.163 -0.1503 -0.6587  0.4034
 6509TIP3   OH241017   4.602   1.844  11.485 -0.1329 -0.6080  0.2429
 6509TIP3    H141018   4.658   1.858  11.561 -1.4610  2.1931  0.8507
 6509TIP3    H241019   4.515   1.873  11.514 -0.9325 -0.6436 -1.9601
 6510TIP3   OH241020   3.282   5.778  15.686  0.0083  0.3535  0.6677
 6510TIP3    H141021   3.327   5.747  15.608 -2.2671 -0.9743 -0.2241
 6510TIP3    H241022   3.347   5.768  15.756  1.3666 -0.6350 -0.6559
 6511TIP3   OH241023   2.941   5.683   3.028 -0.4219  0.2610  0.0569
 6511TIP3    H141024   2.904   5.596   3.043  2.9821 -1.9325 -2.7365
 6511TIP3    H241025   2.887   5.721   2.959 -0.4356 -0.7350 -0.4921
 6512TIP3   OH241026   0.318   3.128   3.405 -0.3663 -0.3801 -0.5746
 6512TIP3    H141027   0.385   3.112   3.472  1.8610  0.6369 -2.4151
 6512TIP3    H241028   0.354   3.088   3.326 -1.2709  1.4192 -1.9429
 6513TIP3   OH241029   3.636   1.927   6.227  0.1482 -0.3026  0.2810
 6513TIP3    H141030   3.684   2.008   6.242  1.0372 -0.5350 -1.0780
 6513TIP3    H241031   3.694   1.859   6.261  0.4101 -0.5215 -0.5826
 6514TIP3   OH241032   3.872   1.513  15.690  0.2336  0.1949  0.1132
 6514TIP3    H141033   3.905   1.561  15.615 -0.4970  0.5018 -0.0235
 6514TIP3    H241034   3.863   1.423  15.659  1.2171  0.0447  0.2475
 6515TIP3   OH241035   6.226   2.932   4.202  0.3240  0.2969  0.3185
 6515TIP3    H141036   6.251   2.853   4.154 -1.1120 -0.1912  0.3425
 6515TIP3    H241037   6.276   3.002   4.160  0.6240 -0.4229 -0.5514
 6516TIP3   OH241038   0.055   1.398   3.862 -0.2901  0.1612 -0.2672
 6516TIP3    H141039   0.018   1.458   3.927  1.3548 -1.0093  1.8772
 6516TIP3    H241040   0.118   1.451   3.814 -0.8841  0.8345 -0.3205
 6517TIP3   OH241041   6.766   3.215   3.418 -0.3662  0.5645  0.1430
 6517TIP3    H141042   6.814   3.236   3.338 -1.5734  0.4406 -0.6408
 6517TIP3    H241043   6.724   3.130   3.399  1.7755 -1.0457  2.0371
 6518TIP3   OH241044   0.912   1.440  14.866  0.3314  0.0416  0.8829
 6518TIP3    H141045   0.927   1.533  14.851 -1.4513  0.2920  0.3392
 6518TIP3    H241046   0.933   1.398  14.783  0.1792  0.1088  0.8078
 6519TIP3   OH241047   0.932   3.552  16.814 -0.1789  0.0951  0.8928
 6519TIP3    H141048   0.866   3.616  16.842  0.5972  0.5958  1.6439
 6519TIP3    H241049   0.895   3.467  16.836 -0.8430  0.3335  0.7159
 6520TIP3   OH241050   2.592   0.835  15.108  0.7669 -0.1309 -0.1234
 6520TIP3    H141051   2.672   0.886  15.123  0.9279 -1.1600  3.6513
 6520TIP3    H241052   2.543   0.844  15.190 -2.3473 -0.7222 -1.7815
 6521TIP3   OH241053   0.340   6.678   3.636 -0.4568 -0.1088 -0.4927
 6521TIP3    H141054   0.249   6.692   3.660 -0.4507  0.2726 -0.6966
 6521TIP3    H241055   0.359   6.589   3.666 -1.1557 -0.5202 -1.2341
 6522TIP3   OH241056   5.281   2.558   4.955  0.2962  0.0826 -0.4736
 6522TIP3    H141057   5.306   2.489   4.894 -0.4126 -0.2588 -0.3888
 6522TIP3    H241058   5.326   2.636   4.923  0.6451 -0.2905 -0.9039
 6523TIP3   OH241059   5.018   1.785  13.384 -0.0666  0.2104  0.4323
 6523TIP3    H141060   5.055   1.873  13.387  0.3465  0.0529  0.0889
 6523TIP3    H241061   5.035   1.749  13.471  1.5065 -0.2171 -0.0208
 6524TIP3   OH241062   6.755   2.793   4.675 -0.2156  0.9164  0.4451
 6524TIP3    H141063   6.840   2.795   4.631  0.3153 -1.2316  1.2247
 6524TIP3    H241064   6.770   2.740   4.753 -2.0860  1.2062  1.0440
 6525TIP3   OH241065   1.075   3.113  16.711 -0.3729  0.3743  0.1481
 6525TIP3    H141066   1.114   3.031  16.743 -0.9560  1.1033  3.0000
 6525TIP3    H241067   1.024   3.146  16.785 -0.4329  3.1741 -1.0128
 6526TIP3   OH241068   4.228   4.710   2.810  0.5176  0.3780  0.1999
 6526TIP3    H141069   4.146   4.665   2.830 -0.0243  0.4287 -1.6605
 6526TIP3    H241070   4.273   4.717   2.894 -0.6357 -1.1276  1.0044
 6527TIP3   OH241071   6.062   3.857   1.727  0.6708 -0.3847 -0.4656
 6527TIP3    H141072   5.971   3.846   1.755  0.3802  0.7944 -0.8963
 6527TIP3    H241073   6.109   3.787   1.771 -0.2366 -0.2676  0.7431
 6528TIP3   OH241074   5.567   5.144  16.877 -0.3328  0.0325 -0.3794
 6528TIP3    H141075   5.639   5.184  16.925 -0.2686 -0.3074 -0.1902
 6528TIP3    H241076   5.510   5.109  16.945 -0.3954 -0.1849 -0.5438
 6529TIP3   OH241077   3.073   0.475  16.897  0.2190  0.7034  0.5904
 6529TIP3    H141078   3.019   0.421  16.839 -1.1095  1.1050  1.4168
 6529TIP3    H241079   3.033   0.562  16.892  2.9975  1.9907 -1.6262
 6530TIP3   OH241080   0.456   0.925  11.942 -0.5188 -0.6469  0.0061
 6530TIP3    H141081   0.374   0.920  11.893 -1.3453 -0.7514  1.3526
 6530TIP3    H241082   0.495   1.009  11.915 -1.9898  0.3119  0.7294
 6531TIP3   OH241083   2.880   5.821   4.066 -0.1861  0.1277 -0.1393
 6531TIP3    H141084   2.964   5.775   4.067 -1.1685 -1.7958 -1.0387
 6531TIP3    H241085   2.903   5.912   4.045  1.6289 -0.4716 -0.9749
 6532TIP3   OH241086   2.026   0.179   1.335  0.3502  0.2652  0.2517
 6532TIP3    H141087   1.964   0.218   1.396 -2.2823 -3.1128  0.0461
 6532TIP3    H241088   2.088   0.132   1.392 -0.7070 -0.9404  0.4642
 6533TIP3   OH241089   4.563   1.095   2.732 -0.3622  0.2420 -0.0092
 6533TIP3    H141090   4.600   1.054   2.653 -1.3402 -0.2402 -0.2318
 6533TIP3    H241091   4.472   1.113   2.709 -0.5528  0.4550  0.8792
 6534TIP3   OH241092   4.766   5.542  16.061  0.3717  0.4541  0.1441
 6534TIP3    H141093   4.695   5.479  16.075  0.6471  0.2716  0.7993
 6534TIP3    H241094   4.771   5.553  15.966  0.0043 -0.1480  0.0515
 6535TIP3   OH241095   0.920   1.731   2.285 -0.1312  0.1672  0.8229
 6535TIP3    H141096   0.930   1.745   2.379  0.0686  0.2131  0.7960
 6535TIP3    H241097   0.998   1.772   2.247 -1.1727  1.9561  0.4675
 6536TIP3   OH241098   6.147   6.120  10.938  0.1574  0.6059 -0.4165
 6536TIP3    H141099   6.149   6.025  10.927  0.0789  0.4439  0.9175
 6536TIP3    H241100   6.098   6.135  11.018 -0.3864  1.8201 -0.9420
 6537TIP3   OH241101   3.859   4.740  11.163 -0.6944  0.2844 -0.2065
 6537TIP3    H141102   3.859   4.743  11.259  0.4606 -0.5282 -0.1644
 6537TIP3    H241103   3.766   4.746  11.139 -1.0444 -0.0777  0.9824
 6538TIP3   OH241104   0.229   1.520  14.523 -0.8215  0.0764 -0.5240
 6538TIP3    H141105   0.319   1.552  14.528 -0.8402  0.4143 -1.8711
 6538TIP3    H241106   0.196   1.556  14.441 -1.6689 -1.3533 -0.8427
 6539TIP3   OH241107   4.718   2.787  16.135 -0.1392 -0.4599 -0.0452
 6539TIP3    H141108   4.640   2.795  16.189  1.0488  1.4919  1.5103
 6539TIP3    H241109   4.737   2.877  16.107  0.2681 -1.1943 -2.3567
 6540TIP3   OH241110   5.731   2.301   1.982  0.6243 -0.4651  0.7333
 6540TIP3    H141111   5.813   2.323   1.939  1.6362  0.2655  2.9089
 6540TIP3    H241112   5.664   2.351   1.935  1.5235 -0.3771 -0.4894
 6541TIP3   OH241113   6.651   0.531  17.059 -0.0427 -0.0236 -0.2923
 6541TIP3    H141114   6.727   0.476  17.036 -1.1355 -0.4647 -3.2971
 6541TIP3    H241115   6.636   0.513  17.152  0.1775 -4.2591 -0.8598
 6542TIP3   OH241116   6.135   5.792   4.286 -0.3119  0.5752  0.0548
 6542TIP3    H141117   6.182   5.753   4.359 -1.2730 -1.4248 -0.3440
 6542TIP3    H241118   6.178   5.758   4.208 -1.0186  0.5186 -0.3144
 6543TIP3   OH241119   6.767   0.389   0.307 -0.4122  0.5340 -0.2443
 6543TIP3    H141120   6.837   0.327   0.327 -0.6852  0.4865  0.5869
 6543TIP3    H241121   6.703   0.338   0.258  0.0836  0.5575 -0.9390
 6544TIP3   OH241122   4.550   5.270   1.880 -0.4501 -0.6589 -0.6930
 6544TIP3    H141123   4.622   5.213   1.855 -1.0020 -1.4276 -0.5806
 6544TIP3    H241124   4.543   5.334   1.809  1.6593  0.7334  0.2711
 6545TIP3   OH241125   4.711   0.542   0.678 -0.0322  0.4646  0.7912
 6545TIP3    H141126   4.727   0.547   0.772  1.1758 -0.2276  0.6512
 6545TIP3    H241127   4.616   0.546   0.669 -0.0956  2.5447  1.8882
 6546TIP3   OH241128   1.729   0.523  11.349 -0.0560 -0.6580  0.2091
 6546TIP3    H141129   1.794   0.471  11.397 -2.0205 -1.7022  1.8756
 6546TIP3    H241130   1.741   0.612  11.380 -0.2736 -1.0675  1.5234
 6547TIP3   OH241131   5.102   2.449   3.510 -0.3920  0.2417 -0.0888
 6547TIP3    H141132   5.164   2.438   3.582 -0.7153  0.3447  0.2074
 6547TIP3    H241133   5.152   2.496   3.443  0.0728 -0.3290 -0.1555
 6548TIP3   OH241134   3.546   0.691   1.478 -0.1638  0.1884  0.3662
 6548TIP3    H141135   3.502   0.647   1.405  0.1436  2.2861 -1.1598
 6548TIP3    H241136   3.639   0.689   1.455 -0.1300  1.4353  0.3517
 6549TIP3   OH241137   0.889   6.180   3.207  0.0527 -0.3107 -0.2809
 6549TIP3    H141138   0.822   6.119   3.177 -0.1287 -0.7432  0.9570
 6549TIP3    H241139   0.841   6.250   3.251  0.3329  0.1402 -0.6788
 6550TIP3   OH241140   5.878   5.974  13.405 -0.3801  0.0813 -0.0437
 6550TIP3    H141141   5.882   5.886  13.442  0.5998  1.0553  2.4399
 6550TIP3    H241142   5.968   5.993  13.378 -0.2452  0.8594  0.9013
 6551TIP3   OH241143   5.614   2.808  16.506  0.2394 -0.1320  0.7846
 6551TIP3    H141144   5.624   2.892  16.550  0.1582  0.7620 -0.8297
 6551TIP3    H241145   5.524   2.810  16.472  0.1202 -1.0316  1.0264
 6552TIP3   OH241146   6.582   2.352  16.684  0.0394 -0.6165 -0.0303
 6552TIP3    H141147   6.557   2.381  16.772  0.3158  0.2537 -0.2352
 6552TIP3    H241148   6.522   2.398  16.625  1.0106  0.1743 -0.4135
 6553TIP3   OH241149   4.070   0.563  15.007 -0.1431  0.2940  0.0249
 6553TIP3    H141150   3.993   0.525  14.964  0.8100 -1.5143 -0.1749
 6553TIP3    H241151   4.134   0.572  14.936  0.6252 -0.4631  0.6057
 6554TIP3   OH241152   3.664   3.841   0.293  0.5742 -0.3280  0.3269
 6554TIP3    H141153   3.748   3.802   0.269 -0.0002 -2.6933  1.8355
 6554TIP3    H241154   3.648   3.812   0.383 -2.5900 -1.3356 -0.4171
 6555TIP3   OH241155   6.008   0.533   3.201 -0.5388  0.2357 -0.3041
 6555TIP3    H141156   5.950   0.579   3.261 -0.0174  1.7501 -0.9159
 6555TIP3    H241157   6.079   0.595   3.182  0.2140 -0.8232 -1.1491
 6556TIP3   OH241158   1.547   3.450  14.957 -0.3485  0.3373  0.2670
 6556TIP3    H141159   1.614   3.388  14.986 -1.2522 -0.3402  1.0013
 6556TIP3    H241160   1.509   3.409  14.880 -0.2301  0.4954  0.1252
 6557TIP3   OH241161   1.131   5.017   5.880  0.5517  0.4106 -0.3172
 6557TIP3    H141162   1.167   4.999   5.793  1.6211 -0.0118  0.1951
 6557TIP3    H241163   1.045   4.976   5.879  0.2830  0.9545 -1.3819
 6558TIP3   OH241164   6.790   5.115   3.596  0.0128 -0.4657  0.4592
 6558TIP3    H141165   6.791   5.180   3.666  0.9557  0.7654 -0.6607
 6558TIP3    H241166   6.707   5.129   3.551 -0.9595 -1.7720  1.7279
 6559TIP3   OH241167   5.625   3.101   6.505  0.1516  0.0120  0.0354
 6559TIP3    H141168   5.576   3.172   6.464 -0.2612  1.2638  2.4840
 6559TIP3    H241169   5.706   3.095   6.455  0.9490  3.4015  0.6969
 6560TIP3   OH241170   4.818   5.980  11.370 -0.1130  0.6978  0.9637
 6560TIP3    H141171   4.745   6.028  11.330  0.4516  0.5142 -0.3322
 6560TIP3    H241172   4.883   6.047  11.390  0.4724  0.5640 -0.3954
 6561TIP3   OH241173   6.757   2.387  14.866 -0.0969  0.3117 -0.1832
 6561TIP3    H141174   6.787   2.313  14.812  1.6511  0.7971  0.0691
 6561TIP3    H241175   6.710   2.443  14.804 -0.5390 -0.4910 -0.5973
 6562TIP3   OH241176   4.522   2.381  14.539  0.4390  0.9922 -0.4092
 6562TIP3    H141177   4.435   2.351  14.564  0.7927  1.2998  1.2977
 6562TIP3    H241178   4.510   2.474  14.518 -0.3521  0.2109 -4.1672
 6563TIP3   OH241179   4.645   1.860  11.745  1.0965 -0.5816 -0.4968
 6563TIP3    H141180   4.704   1.935  11.736 -0.4491  0.7623  0.1767
 6563TIP3    H241181   4.588   1.883  11.818  0.1084 -2.1124 -0.7461
 6564TIP3   OH241182   5.553   5.277  16.255  0.3760 -0.6692  0.4775
 6564TIP3    H141183   5.591   5.310  16.336 -1.9446 -0.7282  1.6819
 6564TIP3    H241184   5.522   5.189  16.277  0.2981 -0.9396 -0.6689
 6565TIP3   OH241185   5.480   4.102  16.516  0.3859 -0.6789 -0.0709
 6565TIP3    H141186   5.492   4.158  16.439 -1.6243 -0.8277 -0.5257
 6565TIP3    H241187   5.541   4.029  16.502  2.2565  0.7874  0.0103
 6566TIP3   OH241188   5.380   5.619  14.626 -0.0287 -0.0914  0.4454
 6566TIP3    H141189   5.469   5.599  14.597 -0.8023 -1.3904 -1.1915
 6566TIP3    H241190   5.392   5.681  14.698  2.1668  0.1790 -0.0765
 6567TIP3   OH241191   4.781   4.428   3.006 -0.5613  0.5491 -0.1746
 6567TIP3    H141192   4.708   4.487   2.986 -0.9137 -0.3259 -1.5479
 6567TIP3    H241193   4.753   4.343   2.974  0.9581  0.1417 -0.4828
 6568TIP3   OH241194   5.475   5.076  11.137 -0.1300 -0.0506 -0.0535
 6568TIP3    H141195   5.488   4.983  11.119 -0.6342 -0.0047 -0.6788
 6568TIP3    H241196   5.537   5.120  11.079 -0.1664  0.0173 -0.0409
 6569TIP3   OH241197   4.136   2.656  14.043 -0.0525  0.4201  0.0167
 6569TIP3    H141198   4.062   2.669  14.102  0.9796  0.6896  1.2810
 6569TIP3    H241199   4.194   2.730  14.059  1.3232 -0.6684  0.3394
 6570TIP3   OH241200   2.777   5.335   2.549  0.2661  0.5297 -0.3221
 6570TIP3    H141201   2.773   5.429   2.530  0.9982  0.5073 -0.6414
 6570TIP3    H241202   2.802   5.296   2.465 -0.6163 -0.0173 -0.3433
 6571TIP3   OH241203   4.739   4.419   4.933  0.1363  0.0253 -0.0280
 6571TIP3    H141204   4.656   4.459   4.959  0.9189  0.8930  1.2314
 6571TIP3    H241205   4.794   4.493   4.907  0.5179 -0.5439 -0.8880
 6572TIP3   OH241206   3.331   1.636   5.823 -0.7243 -0.2334  0.0326
 6572TIP3    H141207   3.378   1.587   5.890  0.2127  1.1388  0.4428
 6572TIP3    H241208   3.261   1.682   5.871  0.2853  1.1833  0.2142
 6573TIP3   OH241209   1.969   1.272   3.168  0.6008 -0.7104  0.5417
 6573TIP3    H141210   1.944   1.179   3.167  2.3754 -1.2242  0.6477
 6573TIP3    H241211   2.057   1.273   3.133 -0.1291  1.2235 -1.4529
 6574TIP3   OH241212   4.555   0.011  12.749  0.1355  0.3779  0.1389
 6574TIP3    H141213   4.483   0.071  12.765  0.8814  0.8947  1.8029
 6574TIP3    H241214   4.591  -0.008  12.836  1.7381 -0.1807 -0.5940
 6575TIP3   OH241215   2.266   5.855  11.386  0.4324  0.0862 -0.1429
 6575TIP3    H141216   2.277   5.827  11.476 -1.5493 -1.0663 -0.1991
 6575TIP3    H241217   2.178   5.894  11.383  0.5010  0.1933 -1.5470
 6576TIP3   OH241218   6.781   1.117   4.414 -0.2513  0.1114  0.9345
 6576TIP3    H141219   6.864   1.069   4.409 -0.3952 -0.0089 -1.1697
 6576TIP3    H241220   6.758   1.116   4.507  0.9442 -1.8343  1.2537
 6577TIP3   OH241221   3.250   2.504  15.059 -0.1143  0.2583  0.1922
 6577TIP3    H141222   3.312   2.432  15.050  1.0473  1.1545  0.8478
 6577TIP3    H241223   3.177   2.466  15.109  1.0323 -0.1767  1.6232
 6578TIP3   OH241224   4.297   0.562  17.023 -0.1065  0.0440  0.0450
 6578TIP3    H141225   4.240   0.487  17.042  1.9713 -1.2351  1.8147
 6578TIP3    H241226   4.308   0.605  17.108  0.9470  0.6647 -0.3838
 6579TIP3   OH241227   3.051   6.675  14.567 -0.3211  0.0613 -0.6698
 6579TIP3    H141228   2.959   6.700  14.560 -0.5471 -0.9761 -1.8166
 6579TIP3    H241229   3.099   6.751  14.534 -0.5828  1.5945  2.2356
 6580TIP3   OH241230   0.675   0.167   2.015  0.2525 -0.6412  0.0580
 6580TIP3    H141231   0.626   0.085   2.008 -0.2377 -0.2173 -2.0673
 6580TIP3    H241232   0.671   0.205   1.927 -0.7477  2.3456  1.2625
 6581TIP3   OH241233   3.856   4.363  11.028 -0.1591  0.0961 -0.1485
 6581TIP3    H141234   3.904   4.292  10.987 -1.3535 -0.7427 -0.1461
 6581TIP3    H241235   3.784   4.382  10.967  0.4885  1.7523 -0.4673
 6582TIP3   OH241236   4.257   4.527   3.117  0.3245 -0.2967 -0.1210
 6582TIP3    H141237   4.251   4.597   3.182 -0.7659 -0.2135 -0.2859
 6582TIP3    H241238   4.270   4.447   3.168 -3.4983 -0.6911  0.5566
 6583TIP3   OH241239   1.874   5.291   1.000 -0.3278  0.2320 -0.3013
 6583TIP3    H141240   1.833   5.319   0.918 -0.1480 -1.0201 -0.8427
 6583TIP3    H241241   1.801   5.264   1.055 -0.3240 -1.1300 -0.9289
 6584TIP3   OH241242   3.631   3.148   4.709  0.2797 -0.1348  0.2553
 6584TIP3    H141243   3.582   3.074   4.744  0.0001 -0.5695 -0.9966
 6584TIP3    H241244   3.716   3.111   4.684  0.0928 -0.0835 -0.4952
 6585TIP3   OH241245   3.864   5.441  12.771 -0.4321  0.6006 -0.5494
 6585TIP3    H141246   3.939   5.382  12.760 -0.4300  0.4049  0.3972
 6585TIP3    H241247   3.791   5.396  12.729 -0.6757 -0.6214  1.0612
 6586TIP3   OH241248   5.615   4.175   2.904 -0.1641 -0.0300 -0.0922
 6586TIP3    H141249   5.588   4.122   2.829 -0.7785 -1.3236  0.9968
 6586TIP3    H241250   5.533   4.201   2.946  0.1875 -0.9291  1.1935
 6587TIP3   OH241251   2.809   2.992  17.075 -0.5592  0.2300 -0.2995
 6587TIP3    H141252   2.794   3.075  17.031  0.7236  1.0544  0.7399
 6587TIP3    H241253   2.878   2.950  17.025 -0.4507  0.2861 -0.1968
 6588TIP3   OH241254   4.424   3.788  11.905  0.2534  0.2502 -0.1256
 6588TIP3    H141255   4.406   3.816  11.995 -0.0729  0.8698 -0.3794
 6588TIP3    H241256   4.471   3.705  11.915  1.6366  1.0769  0.6575
 6589TIP3   OH241257   3.865   2.670  14.141  0.0169 -0.5539  0.1369
 6589TIP3    H141258   3.828   2.584  14.156 -0.8105 -0.8612 -3.0003
 6589TIP3    H241259   3.920   2.687  14.218 -1.3683 -2.9644  1.7578
 6590TIP3   OH241260   2.565   0.288  16.976 -0.5452 -0.4107 -0.2642
 6590TIP3    H141261   2.642   0.335  17.008  0.9756 -0.4032 -3.4775
 6590TIP3    H241262   2.583   0.196  16.993  1.4233 -0.6569 -2.9325
 6591TIP3   OH241263   0.841   0.146  13.735  0.7085  0.6102 -0.6427
 6591TIP3    H141264   0.874   0.089  13.665 -0.3548  1.5565 -1.9889
 6591TIP3    H241265   0.752   0.168  13.707  0.5426  1.6429  0.6341
 6592TIP3   OH241266   0.495   2.782  15.954 -0.7807 -0.0777  0.1100
 6592TIP3    H141267   0.440   2.706  15.972 -0.7182 -0.3894 -0.9348
 6592TIP3    H241268   0.442   2.835  15.894 -0.4882  0.2926  0.1776
 6593TIP3   OH241269   2.497   1.853   3.781 -0.1726 -0.2283 -0.5102
 6593TIP3    H141270   2.485   1.822   3.871 -0.3813 -0.2977 -0.5598
 6593TIP3    H241271   2.514   1.946   3.790  0.4191 -0.3481 -0.3620
 6594TIP3   OH241272   2.479   1.402  14.287 -0.0543  0.2723  0.1255
 6594TIP3    H141273   2.561   1.426  14.245 -0.7214  0.5449 -1.0525
 6594TIP3    H241274   2.492   1.312  14.317  1.3876  0.9681  1.8212
 6595TIP3   OH241275   6.514   6.807   5.935  0.7246  0.2122 -0.2222
 6595TIP3    H141276   6.459   6.777   6.008  0.6619  1.4856  0.2913
 6595TIP3    H241277   6.474   6.890   5.908  1.8970  0.7433 -0.3951
 6596TIP3   OH241278   0.896   0.486  14.201 -0.2741  0.4908  0.0989
 6596TIP3    H141279   0.934   0.445  14.279 -1.3298  0.6966  0.7462
 6596TIP3    H241280   0.802   0.485  14.217 -0.4671  1.1146 -0.8995
 6597TIP3   OH241281   4.923   1.430  14.772 -0.6089  0.4886  0.0892
 6597TIP3    H141282   4.926   1.512  14.722  1.0428  0.5092  0.1511
 6597TIP3    H241283   4.833   1.400  14.764 -0.7065  1.1325 -1.8520
 6598TIP3   OH241284   5.684   5.726  13.946  0.2067  0.1675  0.4316
 6598TIP3    H141285   5.600   5.767  13.925  0.3716 -0.3158 -1.3124
 6598TIP3    H241286   5.661   5.639  13.979  0.0011  0.2654  0.5497
 6599TIP3   OH241287   6.026   5.812  14.699 -0.5829 -0.0730  0.0646
 6599TIP3    H141288   6.109   5.787  14.660  0.4413  2.5244  0.3925
 6599TIP3    H241289   6.038   5.797  14.793  0.0517  1.5686  0.2675
 6600TIP3   OH241290   4.191   4.108   0.220  0.5078 -0.5501  0.3254
 6600TIP3    H141291   4.108   4.094   0.174  0.1889 -0.0834  0.7508
 6600TIP3    H241292   4.216   4.021   0.252  0.3503 -0.7476 -0.0827
 6601TIP3   OH241293   2.294   2.658  11.308  0.7448 -0.0134  0.3448
 6601TIP3    H141294   2.370   2.657  11.250 -0.0614 -0.2616 -0.7432
 6601TIP3    H241295   2.303   2.740  11.357  0.9683  0.6795 -0.8080
 6602TIP3   OH241296   1.779   2.994  16.586 -0.0870  0.5926  0.3883
 6602TIP3    H141297   1.742   3.080  16.567 -0.1752  0.3114 -0.7689
 6602TIP3    H241298   1.873   3.011  16.595  0.0457  0.6531 -0.9483
 6603TIP3   OH241299   1.306   6.538  15.664 -0.3771  0.1000  0.0930
 6603TIP3    H141300   1.359   6.562  15.740 -0.7021  3.1653 -0.5200
 6603TIP3    H241301   1.228   6.496  15.702  0.5491 -0.6079  1.2732
 6604TIP3   OH241302   4.095   3.823  13.694 -0.0793  0.5099  0.1781
 6604TIP3    H141303   4.183   3.791  13.716  0.1388  1.8079  1.3187
 6604TIP3    H241304   4.110   3.898  13.636 -0.3813  1.1325  0.8842
 6605TIP3   OH241305   0.088   4.992  12.014 -0.2394  0.0008 -0.1923
 6605TIP3    H141306   0.074   5.086  11.999 -1.1503  0.1014  1.0401
 6605TIP3    H241307   0.014   4.966  12.070  0.3740 -1.2973  0.0544
 6606TIP3   OH241308   0.618   0.797  10.648  0.5544 -0.1544  0.0039
 6606TIP3    H141309   0.578   0.866  10.594  0.0833  0.5659  1.2216
 6606TIP3    H241310   0.642   0.729  10.586  1.4148  1.2769 -1.3167
 6607TIP3   OH241311   0.306   3.222   2.809  0.0270 -0.0977  0.2647
 6607TIP3    H141312   0.394   3.202   2.843  0.5205 -0.1383 -0.9688
 6607TIP3    H241313   0.279   3.142   2.764 -0.1677  0.2774 -0.2999
 6608TIP3   OH241314   4.190   2.168   1.252 -0.0212  0.1025 -0.8873
 6608TIP3    H141315   4.212   2.075   1.246 -0.8769 -0.0339 -2.4044
 6608TIP3    H241316   4.156   2.179   1.340  2.3455 -0.4849  0.1720
 6609TIP3   OH241317   1.190   4.930   5.640 -0.5861 -0.4011  0.0416
 6609TIP3    H141318   1.164   4.971   5.558  0.3602  1.2334  0.5054
 6609TIP3    H241319   1.221   4.843   5.615 -0.2567  0.0967 -1.3444
 6610TIP3   OH241320   5.111   2.622   1.455 -0.6116  0.0913 -0.0137
 6610TIP3    H141321   5.133   2.536   1.491 -0.6567 -0.1424 -0.5289
 6610TIP3    H241322   5.021   2.613   1.425  0.0637 -0.4110 -2.1205
 6611TIP3   OH241323   4.575   6.521   5.806  0.5007 -0.6823  0.0766
 6611TIP3    H141324   4.600   6.455   5.741 -3.2746 -0.8918 -1.4315
 6611TIP3    H241325   4.571   6.603   5.756  0.5727 -0.2128  0.8339
 6612TIP3   OH241326   0.613   0.908   5.906 -0.1214 -0.0440  0.4888
 6612TIP3    H141327   0.553   0.855   5.959  0.2725 -1.7330 -0.6546
 6612TIP3    H241328   0.666   0.843   5.859  0.4851  1.3854 -0.8695
 6613TIP3   OH241329   5.687   2.758  12.998 -0.3633 -0.3684 -0.2004
 6613TIP3    H141330   5.686   2.766  13.093 -1.2547  0.0789 -0.2427
 6613TIP3    H241331   5.617   2.815  12.968 -0.1159 -0.5331 -1.1299
 6614TIP3   OH241332   4.774   0.291  16.865 -0.2854 -0.6241 -0.6515
 6614TIP3    H141333   4.862   0.322  16.884 -0.3524  0.3605 -1.8514
 6614TIP3    H241334   4.723   0.314  16.943  0.2286  0.0447 -0.5028
 6615TIP3   OH241335   5.325   3.670  17.035  0.2048 -0.1872 -0.1207
 6615TIP3    H141336   5.293   3.597  16.980 -1.4958 -0.8084  1.5750
 6615TIP3    H241337   5.390   3.630  17.093 -0.8415 -0.4485  0.9172
 6616TIP3   OH241338   5.118   2.959   1.120 -0.1526  0.0487  0.2450
 6616TIP3    H141339   5.107   3.038   1.066  0.4226  0.6466  0.9641
 6616TIP3    H241340   5.213   2.948   1.126 -0.2269 -0.5350  0.3888
 6617TIP3   OH241341   5.600   2.253   5.844 -0.0066  0.4164  0.1762
 6617TIP3    H141342   5.510   2.285   5.843  0.0532  0.5993  0.4975
 6617TIP3    H241343   5.651   2.324   5.805 -0.1161 -0.0642 -0.8825
 6618TIP3   OH241344   0.526   2.347  12.493 -0.4419  0.1842  0.1658
 6618TIP3    H141345   0.430   2.343  12.494 -0.5558  1.9260 -0.0174
 6618TIP3    H241346   0.550   2.366  12.584 -0.2181 -0.6913  0.3024
 6619TIP3   OH241347   6.378   1.511  16.463 -0.4312 -0.6082 -0.8010
 6619TIP3    H141348   6.447   1.522  16.398 -0.1260 -0.6441 -0.4862
 6619TIP3    H241349   6.417   1.457  16.531 -0.6429 -0.3186 -0.4408
 6620TIP3   OH241350   2.193   0.105   4.261 -0.5017  0.3704  0.2312
 6620TIP3    H141351   2.273   0.157   4.268 -1.4952  2.0973 -0.5082
 6620TIP3    H241352   2.222   0.015   4.268  1.6759  0.8935 -1.1117
 6621TIP3   OH241353   5.811   0.640  11.762  0.1893 -0.6011 -0.0446
 6621TIP3    H141354   5.780   0.551  11.774  0.9121 -1.0947 -1.5782
 6621TIP3    H241355   5.895   0.630  11.717 -0.2534  0.8831 -1.2755
 6622TIP3   OH241356   6.301   5.787  15.499 -0.1566 -0.2626  0.1924
 6622TIP3    H141357   6.304   5.694  15.523 -0.7462 -0.5234 -0.7153
 6622TIP3    H241358   6.388   5.820  15.522 -0.0306 -0.9648  0.7811
 6623TIP3   OH241359   4.247   0.446  12.467  0.3927  0.3085  0.0474
 6623TIP3    H141360   4.189   0.464  12.393  0.1546  0.0818  0.1762
 6623TIP3    H241361   4.256   0.530  12.512 -0.0470  0.2918  0.1732
 6624TIP3   OH241362   0.774   2.955   3.262  0.2237 -0.3312 -0.1636
 6624TIP3    H141363   0.703   2.970   3.325  0.5383  1.3894 -0.1740
 6624TIP3    H241364   0.853   2.950   3.316 -0.0344 -4.8637  0.1440
 6625TIP3   OH241365   6.504   3.807  14.088 -0.8668 -0.1156  0.0553
 6625TIP3    H141366   6.553   3.791  14.007 -1.9846 -1.0363 -0.4554
 6625TIP3    H241367   6.569   3.845  14.147  0.0311  0.3469 -1.1818
 6626TIP3   OH241368   6.485   5.853  11.466 -0.0335  0.0988 -0.1343
 6626TIP3    H141369   6.575   5.873  11.492 -0.3949  1.3582  0.2496
 6626TIP3    H241370   6.435   5.862  11.547 -0.3027 -2.2124  0.0055
 6627TIP3   OH241371   4.053   6.262   4.915  0.3284  0.1694  0.2445
 6627TIP3    H141372   3.990   6.192   4.930  2.2905 -1.7262  0.0873
 6627TIP3    H241373   4.021   6.335   4.968 -1.6225 -0.9183  0.6541
 6628TIP3   OH241374   5.318   5.868  10.821  0.0894  0.3171  0.2652
 6628TIP3    H141375   5.335   5.811  10.746 -2.4427  0.8578 -0.8139
 6628TIP3    H241376   5.341   5.956  10.790 -0.5356  0.4858  0.2798
 6629TIP3   OH241377   2.843   3.307  13.360  0.3747 -0.2784  0.5052
 6629TIP3    H141378   2.751   3.282  13.353  0.5336 -1.2214  1.5597
 6629TIP3    H241379   2.853   3.378  13.296 -1.1743  0.1055  0.6346
 6630TIP3   OH241380   4.207   0.916   2.387  0.2574 -0.1907 -0.1187
 6630TIP3    H141381   4.140   0.979   2.413  1.9867  0.5485  2.9984
 6630TIP3    H241382   4.158   0.837   2.364 -1.7896  1.2961 -1.2202
 6631TIP3   OH241383   3.364   4.708   3.310  0.5952  0.3972  0.0195
 6631TIP3    H141384   3.460   4.714   3.310  0.7853 -1.6553  1.1530
 6631TIP3    H241385   3.341   4.683   3.221  1.2301 -0.2139  0.0197
 6632TIP3   OH241386   2.683   3.539  11.674  0.2945  0.0130  0.3385
 6632TIP3    H141387   2.730   3.557  11.593  1.1862  0.1136  0.8668
 6632TIP3    H241388   2.598   3.581  11.663  0.8063  0.9495 -0.1109
 6633TIP3   OH241389   3.210   3.667  15.953 -0.3267 -0.1891  0.0601
 6633TIP3    H141390   3.246   3.582  15.929 -1.7903 -1.0706  0.8602
 6633TIP3    H241391   3.245   3.684  16.041 -0.7565 -0.4091  0.2777
 6634TIP3   OH241392   5.412   1.360  12.166  0.8655 -0.0641  0.2649
 6634TIP3    H141393   5.480   1.316  12.217  2.4705  2.6528  0.6913
 6634TIP3    H241394   5.445   1.359  12.076  2.3584  2.5139  0.6758
 6635TIP3   OH241395   4.403   0.764   2.174  0.5775  0.0453 -0.9589
 6635TIP3    H141396   4.468   0.834   2.174 -0.3587  0.9774  0.7161
 6635TIP3    H241397   4.442   0.694   2.227 -0.5497  1.4511  1.8916
 6636TIP3   OH241398   3.065   0.963  15.816 -0.6895 -0.0188  0.0490
 6636TIP3    H141399   3.137   0.993  15.871 -0.3365  0.7539 -0.8011
 6636TIP3    H241400   3.092   0.877  15.785 -0.8806 -0.4422  1.0579
 6637TIP3   OH241401   1.905   1.456   4.114 -0.5127 -0.3322  0.1662
 6637TIP3    H141402   1.916   1.540   4.068  0.0632  0.3039  1.4183
 6637TIP3    H241403   1.961   1.396   4.066 -0.9969 -0.0320 -0.8019
 6638TIP3   OH241404   4.037   2.568   3.756  0.0380 -0.4169 -0.2042
 6638TIP3    H141405   3.999   2.636   3.812 -0.9850 -1.6318  0.6299
 6638TIP3    H241406   4.130   2.567   3.780  0.2111  1.0882 -0.6831
 6639TIP3   OH241407   1.055   4.410   5.804 -0.0037  0.2611 -0.0350
 6639TIP3    H141408   1.104   4.411   5.886 -1.3715 -3.0220  0.9900
 6639TIP3    H241409   0.975   4.459   5.824 -0.4294 -0.7081  0.6957
 6640TIP3   OH241410   3.616   3.252   2.586  0.3063  0.2677 -0.2047
 6640TIP3    H141411   3.645   3.304   2.661 -0.1753  1.2790 -0.6922
 6640TIP3    H241412   3.599   3.165   2.622  0.3112  0.6758  0.8191
 6641TIP3   OH241413   0.217   5.761   0.944  0.3454  0.1520  0.1550
 6641TIP3    H141414   0.152   5.793   1.007 -0.6470  0.4647 -0.9959
 6641TIP3    H241415   0.207   5.819   0.868  1.3427 -0.3795 -0.3958
 6642TIP3   OH241416   3.107   6.480   2.826 -0.1942 -0.0404 -0.1447
 6642TIP3    H141417   3.168   6.537   2.778 -0.5526 -1.5879 -2.5976
 6642TIP3    H241418   3.022   6.523   2.816 -0.2022 -0.1508 -0.5737
 6643TIP3   OH241419   1.251   6.153  12.587  0.0670 -0.4602 -0.1856
 6643TIP3    H141420   1.218   6.095  12.519 -1.2334 -0.6894  0.6050
 6643TIP3    H241421   1.191   6.141  12.661 -0.8370  2.5449 -0.2895
 6644TIP3   OH241422   5.595   3.632  13.686 -0.1872 -0.2781  0.2909
 6644TIP3    H141423   5.533   3.701  13.664 -0.2599 -0.1629  0.8305
 6644TIP3    H241424   5.549   3.551  13.668 -0.0364 -0.1934 -0.5254
 6645TIP3   OH241425   2.646   2.435   5.511 -0.0222  0.9165  0.1487
 6645TIP3    H141426   2.719   2.377   5.487 -1.5550 -0.2248 -2.0498
 6645TIP3    H241427   2.620   2.476   5.429 -1.7833  1.3858  0.8981
 6646TIP3   OH241428   0.216   0.180  15.289 -0.1860 -0.2968  0.2290
 6646TIP3    H141429   0.253   0.188  15.377  0.2357 -0.4841  0.0683
 6646TIP3    H241430   0.165   0.260  15.278  0.6024  0.2185  0.2485
 6647TIP3   OH241431   4.340   4.670  16.903  1.1039 -0.2632  0.0033
 6647TIP3    H141432   4.361   4.623  16.984  0.7880  0.2035  0.3585
 6647TIP3    H241433   4.376   4.758  16.916 -0.5571  0.3826  0.3899
 6648TIP3   OH241434   1.136   0.723   4.490 -0.2840 -0.0893 -0.0116
 6648TIP3    H141435   1.098   0.774   4.561 -0.4931  1.4889 -1.2171
 6648TIP3    H241436   1.067   0.660   4.467 -0.9613  0.6728 -0.1068
 6649TIP3   OH241437   1.686   0.019   4.064  0.2902  0.0629  0.1319
 6649TIP3    H141438   1.746   0.025   4.138  0.8000  0.0726 -0.2759
 6649TIP3    H241439   1.681   0.109   4.030  0.9761 -0.1472 -0.5534
 6650TIP3   OH241440   6.416   1.244   4.043  0.6568 -0.7305 -0.1415
 6650TIP3    H141441   6.505   1.229   4.011  0.5169 -0.8400 -0.4758
 6650TIP3    H241442   6.390   1.328   4.004  0.8231 -0.4135  0.4129
 6651TIP3   OH241443   1.187   2.810  13.455  0.3234  0.1555  0.5801
 6651TIP3    H141444   1.195   2.809  13.359 -1.0595  1.5976  0.4167
 6651TIP3    H241445   1.233   2.731  13.483  0.4471 -0.4957 -1.3002
 6652TIP3   OH241446   1.411   4.715  14.950  0.6748  0.4543  0.5771
 6652TIP3    H141447   1.389   4.769  15.025  0.2066  0.9309  0.0980
 6652TIP3    H241448   1.474   4.768  14.900 -0.1732  0.7828 -0.1606
 6653TIP3   OH241449   4.850   6.216   0.719 -0.5945 -0.7099  0.4565
 6653TIP3    H141450   4.765   6.256   0.701 -0.3449 -0.4588 -0.2224
 6653TIP3    H241451   4.867   6.160   0.643 -0.2556 -0.9372  0.6945
 6654TIP3   OH241452   6.085   1.761   5.912 -0.0183 -0.0218  0.2828
 6654TIP3    H141453   6.088   1.727   6.002 -0.2630  0.5458  0.5183
 6654TIP3    H241454   6.006   1.723   5.874 -1.0292  1.2722  0.9799
 6655TIP3   OH241455   1.113   1.791  13.872  0.2812  0.0071 -0.2065
 6655TIP3    H141456   1.144   1.733  13.802  0.5315  0.6483 -0.6277
 6655TIP3    H241457   1.064   1.733  13.931 -0.0410 -0.5185 -0.9778
 6656TIP3   OH241458   2.312   5.192   5.502 -0.3263 -0.0040 -0.4558
 6656TIP3    H141459   2.385   5.194   5.565 -0.5071  0.8557 -0.2570
 6656TIP3    H241460   2.244   5.140   5.545 -1.5385  2.8075  1.3416
 6657TIP3   OH241461   1.888   0.914  10.500 -0.0234 -0.2360  0.1716
 6657TIP3    H141462   1.873   0.888  10.591  1.9964 -0.4687  0.4864
 6657TIP3    H241463   1.800   0.927  10.464 -0.8740 -0.3008  2.0948
 6658TIP3   OH241464   1.742   3.500   1.713 -0.8516 -0.1174 -0.3236
 6658TIP3    H141465   1.822   3.493   1.766 -0.1952 -0.1851 -1.2851
 6658TIP3    H241466   1.672   3.468   1.770 -0.2819  0.4456  0.7210
 6659TIP3   OH241467   0.225   3.513   5.913  0.4511  0.8057  0.0404
 6659TIP3    H141468   0.177   3.527   5.994 -1.4516 -0.7667 -0.7308
 6659TIP3    H241469   0.215   3.420   5.895  0.6582  1.1516 -2.0990
 6660TIP3   OH241470   5.389   1.131   1.593  0.1651 -0.4811 -0.3448
 6660TIP3    H141471   5.312   1.096   1.637 -0.5826  1.2485 -0.1934
 6660TIP3    H241472   5.460   1.126   1.658 -0.2511 -0.4836  0.1088
 6661TIP3   OH241473   6.453   0.133   1.265  0.2939 -0.1230 -0.2734
 6661TIP3    H141474   6.421   0.059   1.317  1.1644  0.2395  0.8161
 6661TIP3    H241475   6.489   0.092   1.186  0.7835 -0.8669  0.3196
 6662TIP3   OH241476   3.131   2.956  13.289  0.3947  0.0158  0.5153
 6662TIP3    H141477   3.178   2.893  13.235  0.8402  0.0588  0.8469
 6662TIP3    H241478   3.084   3.011  13.226  1.9034  0.8666  0.0900
 6663TIP3   OH241479   4.241   4.922   4.565 -0.5262 -0.3083 -0.0418
 6663TIP3    H141480   4.322   4.973   4.555  0.7657 -2.4846 -1.7085
 6663TIP3    H241481   4.193   4.936   4.483 -1.5185  0.3936  0.6394
 6664TIP3   OH241482   6.637   6.049  14.353 -0.1898 -0.4453 -0.1127
 6664TIP3    H141483   6.668   6.087  14.271  2.0320  0.6371  1.1257
 6664TIP3    H241484   6.561   6.102  14.377 -0.3825 -0.2780 -1.0714
 6665TIP3   OH241485   1.085   6.408  12.938 -0.1166 -0.1931  0.3681
 6665TIP3    H141486   1.090   6.456  12.855  1.0712 -0.1719  0.4433
 6665TIP3    H241487   1.004   6.357  12.930 -0.6068  0.6506 -0.3359
 6666TIP3   OH241488   5.295   3.561  16.298  0.3362  0.2620 -0.1817
 6666TIP3    H141489   5.291   3.537  16.206 -0.0729 -2.6906  0.5179
 6666TIP3    H241490   5.361   3.630  16.302  1.6166 -0.7399 -2.4683
 6667TIP3   OH241491   3.484   0.241  15.248  0.0019 -0.1137 -0.4532
 6667TIP3    H141492   3.458   0.280  15.164 -0.2674 -0.2057 -0.4124
 6667TIP3    H241493   3.541   0.168  15.224  0.0727 -0.0268 -0.5504
 6668TIP3   OH241494   5.550   5.492   0.452  0.3824  0.7059 -0.3649
 6668TIP3    H141495   5.565   5.403   0.483  1.0919  1.4564  1.5959
 6668TIP3    H241496   5.591   5.494   0.365 -2.0440 -1.6068 -1.7194
 6669TIP3   OH241497   5.994   0.605   6.284 -0.6272 -0.1802  0.0854
 6669TIP3    H141498   6.007   0.683   6.231  1.2233 -0.4035  0.1402
 6669TIP3    H241499   5.937   0.634   6.355  1.0915  1.5248  0.8650
 6670TIP3   OH241500   1.448   3.731  14.715 -0.3354  0.6343 -0.0853
 6670TIP3    H141501   1.508   3.710  14.643  1.2108  0.7690  1.1318
 6670TIP3    H241502   1.390   3.798  14.678 -0.5866 -0.4128 -1.6799
 6671TIP3   OH241503   2.730   1.710   4.920  1.0363  0.0260 -0.5912
 6671TIP3    H141504   2.717   1.618   4.897  0.7184 -0.0556 -0.1024
 6671TIP3    H241505   2.822   1.716   4.946  1.2650  0.0144 -1.3665
 6672TIP3   OH241506   5.878   6.490  14.121 -0.4909 -0.6201  0.0586
 6672TIP3    H141507   5.794   6.537  14.116 -0.6634 -1.0240 -1.3465
 6672TIP3    H241508   5.864   6.410  14.071  1.5052  0.5570 -2.6577
 6673TIP3   OH241509   0.957   4.776  14.510  0.2142 -0.3738 -0.1205
 6673TIP3    H141510   0.960   4.867  14.480  0.3128  0.3013  1.7698
 6673TIP3    H241511   1.021   4.730  14.456  1.2278  1.0006 -0.1420
 6674TIP3   OH241512   2.739   0.385  14.400  0.0542  0.0112 -0.0378
 6674TIP3    H141513   2.645   0.384  14.382 -0.6689  2.4364  2.8527
 6674TIP3    H241514   2.770   0.301  14.366 -2.9067 -0.4059 -2.1045
 6675TIP3   OH241515   6.484   5.101   3.679 -0.1480 -0.8706  0.3721
 6675TIP3    H141516   6.391   5.119   3.692  0.0139  0.6495 -0.3402
 6675TIP3    H241517   6.493   5.007   3.696 -1.9735 -1.2480 -0.4944
 6676TIP3   OH241518   6.073   2.633  15.763  0.3798  0.4573  0.2973
 6676TIP3    H141519   5.994   2.591  15.729 -0.1474  0.4388  1.5285
 6676TIP3    H241520   6.124   2.562  15.800 -0.7097  0.8852  2.7796
 6677TIP3   OH241521   0.570   6.337   1.988  0.1041  0.0502 -0.0335
 6677TIP3    H141522   0.638   6.299   1.933  0.5411  0.5486  0.1537
 6677TIP3    H241523   0.554   6.271   2.056  1.2026  0.3823  0.5698
 6678TIP3   OH241524   1.859   3.896   3.854 -0.0710  0.0555 -0.4014
 6678TIP3    H141525   1.909   3.976   3.838 -0.8910  0.8619  0.8581
 6678TIP3    H241526   1.809   3.882   3.774  0.9893  0.1062 -1.0898
 6679TIP3   OH241527   6.799   5.756  11.384 -0.2783  0.0337 -0.3782
 6679TIP3    H141528   6.714   5.713  11.370 -1.4339  2.1564 -0.2578
 6679TIP3    H241529   6.848   5.738  11.304 -1.7745  0.7923 -1.5167
 6680TIP3   OH241530   4.086   0.078  12.745  0.2689 -0.3543  0.1071
 6680TIP3    H141531   4.109  -0.005  12.787  1.1621  0.0643  0.4866
 6680TIP3    H241532   4.016   0.055  12.684  0.7202 -1.4480 -0.0342
 6681TIP3   OH241533   2.276   1.096  14.510  0.2073 -0.6375  0.0970
 6681TIP3    H141534   2.249   1.180  14.548 -0.9748 -0.7857 -0.3572
 6681TIP3    H241535   2.210   1.079  14.443  1.5063 -1.0013 -1.1406
 6682TIP3   OH241536   1.902   3.793   2.800  0.2003  0.0364 -0.1817
 6682TIP3    H141537   1.844   3.721   2.776  0.0162 -0.2300  1.0126
 6682TIP3    H241538   1.845   3.870   2.803 -0.3329 -0.3803  1.8939
 6683TIP3   OH241539   2.975   3.116   5.688  0.4594  0.1085  0.7997
 6683TIP3    H141540   3.033   3.105   5.763  0.8122 -0.7498  0.4148
 6683TIP3    H241541   2.895   3.154   5.725  1.8638  3.0409  1.0619
 6684TIP3   OH241542   5.339   4.106   2.919  0.2333 -0.3773 -0.2308
 6684TIP3    H141543   5.281   4.148   2.855  0.4387  0.4936  0.1394
 6684TIP3    H241544   5.397   4.051   2.866  0.1024 -0.0289 -0.7475
 6685TIP3   OH241545   1.571   4.726  15.794  0.4844 -0.6018  0.6760
 6685TIP3    H141546   1.553   4.657  15.858  0.2160 -1.3090 -0.1514
 6685TIP3    H241547   1.503   4.717  15.728 -0.8505  1.7873  1.5710
 6686TIP3   OH241548   1.790   1.429  11.143  0.2551 -0.1668 -0.4809
 6686TIP3    H141549   1.833   1.514  11.149  0.4448 -0.1283 -1.9645
 6686TIP3    H241550   1.762   1.423  11.052  1.3113 -2.1878 -0.7428
 6687TIP3   OH241551   2.777   6.435  10.259  0.1920  0.1254  0.0949
 6687TIP3    H141552   2.863   6.467  10.232 -0.1280  0.4842 -0.5211
 6687TIP3    H241553   2.731   6.416  10.177 -0.6885  0.9299  0.3764
 6688TIP3   OH241554   3.726   2.190  16.986  0.0423  0.0191  0.2032
 6688TIP3    H141555   3.714   2.224  17.075  1.2557 -0.6383  0.6473
 6688TIP3    H241556   3.779   2.111  16.998 -0.7504 -0.7360 -1.0038
 6689TIP3   OH241557   0.207   2.952  14.961  0.1207  0.2864 -0.1156
 6689TIP3    H141558   0.143   2.902  15.012 -0.6359 -0.6109 -1.8722
 6689TIP3    H241559   0.292   2.914  14.985 -0.5052 -2.8374 -2.3232
 6690TIP3   OH241560   3.059   0.126   2.805 -0.4795 -0.3455  0.1620
 6690TIP3    H141561   2.998   0.199   2.800  0.4832  0.4353 -0.5351
 6690TIP3    H241562   3.110   0.131   2.724  0.5477 -0.9337  0.7479
 6691TIP3   OH241563   3.163   1.493  15.951 -0.1486 -0.4432 -0.1393
 6691TIP3    H141564   3.222   1.435  15.999 -0.5643  0.1836  1.1789
 6691TIP3    H241565   3.209   1.577  15.947 -1.5148  0.5617  2.3829
 6692TIP3   OH241566   0.540   2.249  14.156 -0.5347  0.3706 -0.2836
 6692TIP3    H141567   0.519   2.237  14.064 -0.5937 -0.7752 -0.1325
 6692TIP3    H241568   0.487   2.324  14.183 -0.9321  0.3722 -1.0394
 6693TIP3   OH241569   2.905   4.118  17.212 -0.3680 -0.1476  0.1049
 6693TIP3    H141570   2.932   4.208  17.230  1.4820 -0.7359  0.4493
 6693TIP3    H241571   2.878   4.084  17.297 -0.5855 -0.0708  0.0670
 6694TIP3   OH241572   2.163   2.947  14.920 -0.0181 -0.2562  0.3697
 6694TIP3    H141573   2.073   2.920  14.903 -0.7501  1.4346  1.2859
 6694TIP3    H241574   2.194   2.886  14.987 -1.3178  0.5184  1.7474
 6695TIP3   OH241575   5.164   1.609  11.715 -0.3023  0.0368  0.1762
 6695TIP3    H141576   5.093   1.670  11.697  0.5545  1.2381  0.7155
 6695TIP3    H241577   5.236   1.637  11.659  0.5025  0.2956  1.2900
 6696TIP3   OH241578   4.516   1.738   1.413  0.0133  0.5884 -0.0337
 6696TIP3    H141579   4.462   1.659   1.421  1.5979 -0.4986  0.4320
 6696TIP3    H241580   4.580   1.716   1.345 -0.8047  2.2685 -1.3922
 6697TIP3   OH241581   4.039   0.712   1.258  0.5468 -0.2825  0.3872
 6697TIP3    H141582   4.106   0.686   1.322  0.9063  1.3087  0.6946
 6697TIP3    H241583   4.050   0.650   1.186  1.6805 -0.6740  0.8627
 6698TIP3   OH241584   1.860   0.577  14.795 -0.6621 -0.3153 -0.1798
 6698TIP3    H141585   1.922   0.566  14.867  1.3696  2.8024 -1.2310
 6698TIP3    H241586   1.775   0.587  14.838  0.3082  0.2978  1.7278
 6699TIP3   OH241587   4.298   4.647   4.297 -0.4733  0.2475  0.8649
 6699TIP3    H141588   4.350   4.566   4.294 -0.6143  0.2002 -0.9764
 6699TIP3    H241589   4.268   4.660   4.207 -0.0933  2.6130  1.0424
 6700TIP3   OH241590   4.370   6.282  11.720  0.5341 -0.1520  0.4296
 6700TIP3    H141591   4.428   6.274  11.644  0.2030 -1.6020  0.3023
 6700TIP3    H241592   4.334   6.370  11.713 -0.2858 -0.5795 -1.6971
 6701TIP3   OH241593   2.327   5.919  13.228  0.3227  0.1301  0.4429
 6701TIP3    H141594   2.385   5.853  13.191 -3.3282 -1.4253 -3.3182
 6701TIP3    H241595   2.302   5.883  13.313  1.6428 -1.1888  0.3219
 6702TIP3   OH241596   0.667   2.267  14.578 -0.2887  0.0773 -0.1612
 6702TIP3    H141597   0.626   2.229  14.656 -0.7406 -0.2253 -0.5445
 6702TIP3    H241598   0.748   2.307  14.611  0.1620 -1.1347  0.2567
 6703TIP3   OH241599   5.786   5.221   3.197  0.3561 -0.1599  0.2860
 6703TIP3    H141600   5.830   5.279   3.259  2.4653 -0.3656 -0.8868
 6703TIP3    H241601   5.720   5.275   3.154  0.9075  0.8149  0.6402
 6704TIP3   OH241602   0.345   3.193   4.994  0.4161  0.3078  0.7100
 6704TIP3    H141603   0.354   3.286   4.971 -2.8368  0.6672  0.3952
 6704TIP3    H241604   0.304   3.154   4.917 -1.3718 -0.6233  2.0736
 6705TIP3   OH241605   4.120   6.434  14.608  0.1694 -0.0550 -0.0703
 6705TIP3    H141606   4.194   6.466  14.660 -0.1921 -1.6035  1.5028
 6705TIP3    H241607   4.161   6.389  14.534  0.7113  1.7811 -0.9250
 6706TIP3   OH241608   1.744   4.417   0.518 -0.3217  0.3140  0.3707
 6706TIP3    H141609   1.800   4.492   0.536 -0.8822  0.6968  0.5471
 6706TIP3    H241610   1.716   4.387   0.604 -0.7793  0.4305  0.2626
 6707TIP3   OH241611   2.832   5.970   1.115 -0.0630  0.1237 -0.2019
 6707TIP3    H141612   2.771   5.985   1.186  1.0849  0.2302  0.7955
 6707TIP3    H241613   2.913   5.940   1.158  0.5445 -0.1667 -1.4763
 6708TIP3   OH241614   3.289   2.407   1.850 -0.3881 -0.1349  0.4431
 6708TIP3    H141615   3.218   2.447   1.900 -1.7700 -0.2334 -1.3247
 6708TIP3    H241616   3.247   2.377   1.770  1.6291 -0.4505 -0.5524
 6709TIP3   OH241617   2.680   3.668  16.653 -0.2542 -0.4830 -0.1332
 6709TIP3    H141618   2.768   3.701  16.635 -1.2781  1.6600 -1.6429
 6709TIP3    H241619   2.651   3.630  16.570 -2.3163  2.8737 -1.1383
 6710TIP3   OH241620   2.103   1.224   3.603  0.3245 -0.4279 -0.0420
 6710TIP3    H141621   2.014   1.213   3.637  0.4300  2.4332  1.4302
 6710TIP3    H241622   2.095   1.294   3.539  1.2230 -1.5924 -1.4850
 6711TIP3   OH241623   0.800   2.444  12.212 -0.3930 -0.1104  0.3233
 6711TIP3    H141624   0.839   2.446  12.299  2.3535 -3.1945 -0.6394
 6711TIP3    H241625   0.844   2.515  12.164  0.1698 -0.2050  0.6943
 6712TIP3   OH241626   0.360   1.344  15.104 -0.2414  0.1450 -0.3101
 6712TIP3    H141627   0.436   1.326  15.049  0.0004 -1.2881  0.4222
 6712TIP3    H241628   0.289   1.293  15.064 -0.1775 -0.5219  0.3876
 6713TIP3   OH241629   6.554   1.755   3.062 -0.2517 -0.7284 -0.2308
 6713TIP3    H141630   6.647   1.767   3.043 -0.4617  0.2555 -0.7121
 6713TIP3    H241631   6.551   1.683   3.124  1.0339  0.7508  1.6684
 6714TIP3   OH241632   5.607   5.193   1.746  0.2969  0.0079  0.2036
 6714TIP3    H141633   5.520   5.223   1.773 -0.4636  0.6403 -2.6331
 6714TIP3    H241634   5.600   5.097   1.743 -0.1967  0.0447  0.2107
 6715TIP3   OH241635   0.425   1.622   0.555  0.0375 -0.0397  0.0313
 6715TIP3    H141636   0.417   1.681   0.630  1.3097  0.1296  0.0523
 6715TIP3    H241637   0.439   1.680   0.481 -2.1849 -0.1438 -0.5534
 6716TIP3   OH241638   3.592   4.711  13.360 -0.0230  0.4410  0.0615
 6716TIP3    H141639   3.615   4.715  13.453 -1.4395 -0.8866  0.5156
 6716TIP3    H241640   3.665   4.754  13.315  1.1735  0.2261  1.7069
 6717TIP3   OH241641   0.968   3.818   4.663  0.9785  0.2917 -0.0762
 6717TIP3    H141642   1.058   3.849   4.652  1.0729  0.0061 -0.1044
 6717TIP3    H241643   0.968   3.729   4.628  1.1593 -0.4582  1.6843
 6718TIP3   OH241644   0.217   0.315   1.500 -0.1327  0.7334 -0.0032
 6718TIP3    H141645   0.305   0.321   1.461 -0.1926  2.3083  0.0564
 6718TIP3    H241646   0.200   0.221   1.503  0.3509  0.4473 -2.7443
 6719TIP3   OH241647   4.759   6.432   1.778 -0.0934  0.4671 -0.2178
 6719TIP3    H141648   4.838   6.485   1.768  0.7499 -0.6019  0.5283
 6719TIP3    H241649   4.753   6.382   1.697 -0.5317  1.2024 -0.6541
 6720TIP3   OH241650   4.563   2.247  13.513  0.1538  0.3068 -0.0797
 6720TIP3    H141651   4.605   2.183  13.455  1.1887 -0.8803  1.8770
 6720TIP3    H241652   4.624   2.320  13.517 -0.0001  0.4678 -0.5989
 6721TIP3   OH241653   2.506   6.679   6.031 -0.5941  0.0710 -0.0972
 6721TIP3    H141654   2.465   6.602   6.070  1.3236 -0.4601  0.9914
 6721TIP3    H241655   2.492   6.748   6.095  1.3725 -0.4689  0.9926
 6722TIP3   OH241656   3.918   4.575  14.200  0.2121 -0.6957 -0.5572
 6722TIP3    H141657   3.909   4.485  14.232  0.9021 -0.9642 -1.0765
 6722TIP3    H241658   3.970   4.566  14.119  1.4491  0.2789  0.0961
 6723TIP3   OH241659   3.984   1.044   2.459 -0.2728  0.0619  0.3454
 6723TIP3    H141660   3.943   1.085   2.383 -0.0711  0.0847  0.2471
 6723TIP3    H241661   3.913   0.997   2.503 -1.3103  3.1240  2.2771
 6724TIP3   OH241662   0.203   3.940  16.223  0.0635 -0.3004 -0.5705
 6724TIP3    H141663   0.122   3.908  16.184 -1.1721  0.5293  1.2111
 6724TIP3    H241664   0.183   3.952  16.315  1.8524  1.1070 -0.3009
 6725TIP3   OH241665   5.669   2.635   3.137  0.2473  0.1162 -0.0015
 6725TIP3    H141666   5.627   2.616   3.053 -1.1248 -0.5406  0.7972
 6725TIP3    H241667   5.756   2.597   3.131  0.2194  0.2191 -1.1746
 6726TIP3   OH241668   5.378   0.751   3.000  0.4034  0.2982 -0.1991
 6726TIP3    H141669   5.451   0.732   3.059 -0.3572 -2.1372  0.0428
 6726TIP3    H241670   5.344   0.835   3.031 -0.5987 -1.2829  3.5845
 6727TIP3   OH241671   2.713   5.606  14.644  0.4570 -0.7720  0.9632
 6727TIP3    H141672   2.655   5.663  14.696  0.7942  1.6984 -1.1668
 6727TIP3    H241673   2.799   5.647  14.652  0.5486 -0.3934 -1.3023
 6728TIP3   OH241674   1.390   3.283  15.613 -0.5083 -0.1156 -0.6313
 6728TIP3    H141675   1.411   3.347  15.680  1.4842 -0.1696 -1.1432
 6728TIP3    H241676   1.475   3.257  15.577 -1.3706 -1.8299 -1.5559
 6729TIP3   OH241677   0.726   6.199   1.557 -0.5599 -0.1611  0.7375
 6729TIP3    H141678   0.651   6.223   1.612 -0.2631  0.3935  0.9065
 6729TIP3    H241679   0.758   6.117   1.593 -1.8525 -1.0841 -0.0991
 6730TIP3   OH241680   5.135   1.008   4.345 -0.3189  0.0492 -0.0577
 6730TIP3    H141681   5.181   1.088   4.373  0.4257  0.1598 -1.5022
 6730TIP3    H241682   5.203   0.941   4.341 -0.8416 -0.5374  0.6123
 6731TIP3   OH241683   2.449   2.266   3.620 -0.2966 -0.0176  0.3197
 6731TIP3    H141684   2.363   2.307   3.625 -0.5105 -0.3055 -0.6816
 6731TIP3    H241685   2.501   2.325   3.566  0.4135  0.5965  1.6437
 6732TIP3   OH241686   4.922   1.738   1.231  0.6485 -0.5282  0.0006
 6732TIP3    H141687   4.882   1.824   1.239 -0.2892 -0.9921  0.5440
 6732TIP3    H241688   4.930   1.724   1.137  0.8443  0.1627 -0.0903
 6733TIP3   OH241689   2.009   0.062  13.347  0.4224 -0.2235  0.2424
 6733TIP3    H141690   2.044   0.038  13.433  0.4333 -1.2040 -0.0224
 6733TIP3    H241691   2.058   0.008  13.285 -0.8553 -0.9065 -0.2184
 6734TIP3   OH241692   5.706   1.852  13.106 -0.0689  0.4739  0.0379
 6734TIP3    H141693   5.732   1.925  13.162 -0.5157 -0.1281  1.0499
 6734TIP3    H241694   5.630   1.814  13.149  0.9147 -1.3897  0.2360
 6735TIP3   OH241695   1.766   1.459   2.184  0.6719 -0.0314 -0.6169
 6735TIP3    H141696   1.716   1.506   2.119  0.5310 -0.1771 -0.6161
 6735TIP3    H241697   1.846   1.509   2.195  0.2902  0.5015 -0.2214
 6736TIP3   OH241698   3.460   1.881   4.540  0.4919  0.5117 -0.4463
 6736TIP3    H141699   3.549   1.877   4.507  0.0063  0.0591 -1.7664
 6736TIP3    H241700   3.410   1.823   4.482 -0.9229  1.8608 -0.6431
 6737TIP3   OH241701   4.055   3.596   1.116 -0.3973 -0.1852  0.0489
 6737TIP3    H141702   4.129   3.560   1.164 -0.5577  1.5458  1.7263
 6737TIP3    H241703   3.979   3.547   1.149 -0.5344  1.1186  1.8370
 6738TIP3   OH241704   3.997   5.943   4.431  0.3225  0.0327  0.3079
 6738TIP3    H141705   4.076   5.996   4.439 -0.2682  0.7506  1.6008
 6738TIP3    H241706   3.974   5.921   4.521 -0.7106 -0.5363 -0.0806
 6739TIP3   OH241707   1.671   6.701   2.771 -0.5300  0.5805 -0.2269
 6739TIP3    H141708   1.597   6.703   2.832 -0.4572 -2.6704  0.1306
 6739TIP3    H241709   1.748   6.690   2.827 -0.3762 -1.4632 -0.7428
 6740TIP3   OH241710   4.946   2.728  16.472  0.3075  0.2677 -0.1497
 6740TIP3    H141711   4.889   2.653  16.493  1.1657 -0.2583  0.3884
 6740TIP3    H241712   4.966   2.718  16.379 -0.2791  0.3242 -0.2878
 6741TIP3   OH241713   3.318   0.975  15.328  0.6946  0.3675 -0.0680
 6741TIP3    H141714   3.289   1.028  15.254 -0.1264  0.0170 -0.0079
 6741TIP3    H241715   3.272   1.011  15.403  0.3353 -0.2480  0.0175
 6742TIP3   OH241716   5.604   3.088  13.523 -0.0970  0.1334  0.1048
 6742TIP3    H141717   5.666   3.028  13.563  1.0130  1.0795 -0.1553
 6742TIP3    H241718   5.572   3.042  13.445  1.1527  0.0820 -0.3911
 6743TIP3   OH241719   3.074   0.421  11.766  0.0318 -0.0528  0.7088
 6743TIP3    H141720   3.155   0.471  11.762 -0.5917  1.0269  1.1572
 6743TIP3    H241721   3.037   0.428  11.678  0.7304 -1.1150  0.3071
 6744TIP3   OH241722   4.147   1.159   1.810 -0.5876  0.5163  0.4154
 6744TIP3    H141723   4.140   1.183   1.903 -1.1074 -2.4622  1.2515
 6744TIP3    H241724   4.208   1.085   1.809 -1.4763 -0.2445 -1.4619
 6745TIP3   OH241725   0.037   5.573   3.979  0.2874  0.0887  0.6640
 6745TIP3    H141726   0.081   5.538   3.901  0.1981  0.9023  0.2338
 6745TIP3    H241727   0.034   5.500   4.040 -3.6047 -2.0231 -1.6864
 6746TIP3   OH241728   3.181   3.598   4.357 -0.1188  0.5305  0.7935
 6746TIP3    H141729   3.132   3.542   4.296 -0.7167 -0.7295  2.3480
 6746TIP3    H241730   3.125   3.675   4.369 -0.4287  0.3626  0.4556
 6747TIP3   OH241731   2.306   6.149  15.017 -0.3046  0.5372 -0.2403
 6747TIP3    H141732   2.254   6.155  14.936 -0.7761  2.1958  0.1473
 6747TIP3    H241733   2.337   6.059  15.018  0.2076  0.6065 -2.5891
 6748TIP3   OH241734   2.531   3.883  16.667  0.8100  0.4975 -0.2311
 6748TIP3    H141735   2.439   3.859  16.675  0.5616  1.1415 -1.0710
 6748TIP3    H241736   2.577   3.799  16.666  0.2505  0.1756  0.2635
 6749TIP3   OH241737   2.185   4.211   3.570 -0.0677 -0.1963 -0.0626
 6749TIP3    H141738   2.280   4.225   3.568 -0.1077 -0.0199 -0.8528
 6749TIP3    H241739   2.152   4.282   3.627  0.2630 -0.2138  0.1513
 6750TIP3   OH241740   5.786   4.372   0.591  0.2335  0.0128  0.5503
 6750TIP3    H141741   5.833   4.395   0.511 -1.8444  0.3423 -0.6528
 6750TIP3    H241742   5.713   4.434   0.595 -1.4316 -1.8685  1.0520
 6751TIP3   OH241743   0.313   5.935   2.092  0.5584  0.2477 -0.4339
 6751TIP3    H141744   0.243   5.993   2.120 -1.2013 -0.2448 -3.3441
 6751TIP3    H241745   0.270   5.851   2.077  1.9684 -0.3513 -1.3328
 6752TIP3   OH241746   6.153   0.239  12.458  0.3471 -0.7222 -0.1913
 6752TIP3    H141747   6.210   0.192  12.520  0.1510  0.0975  0.6342
 6752TIP3    H241748   6.189   0.217  12.372  0.3088 -2.3202  0.1604
 6753TIP3   OH241749   0.265   1.855   1.429  0.4745  0.0855  0.1741
 6753TIP3    H141750   0.304   1.795   1.364  1.2683  0.9177 -0.1453
 6753TIP3    H241751   0.184   1.812   1.456 -0.5875  0.2989 -2.3602
 6754TIP3   OH241752   6.491   1.194  16.252  0.2483 -0.0678  0.0507
 6754TIP3    H141753   6.458   1.169  16.338 -0.5136 -1.5486 -0.6239
 6754TIP3    H241754   6.583   1.168  16.252  0.8313  1.7899  1.0740
 6755TIP3   OH241755   2.900   1.583  12.305 -0.2272 -0.3376 -0.4474
 6755TIP3    H141756   2.995   1.577  12.308 -0.1875 -0.1278 -1.1988
 6755TIP3    H241757   2.881   1.641  12.231 -0.8813  0.9964  0.6912
 6756TIP3   OH241758   1.527   2.662  12.497 -0.3262 -0.2769  0.2320
 6756TIP3    H141759   1.444   2.618  12.482 -0.3500 -0.7085  1.5172
 6756TIP3    H241760   1.557   2.688  12.409 -1.7656 -0.1704 -0.2522
 6757TIP3   OH241761   4.094   5.385   2.671 -0.1526 -0.0709  0.1423
 6757TIP3    H141762   4.150   5.459   2.694 -0.3378  0.1165 -0.0203
 6757TIP3    H241763   4.100   5.378   2.576 -1.1606  0.5473  0.0174
 6758TIP3   OH241764   1.273   5.414  12.517 -0.1779 -0.4631  0.0591
 6758TIP3    H141765   1.358   5.452  12.541 -0.2972  1.0323 -1.6755
 6758TIP3    H241766   1.210   5.480  12.546 -0.8108 -1.6329  1.4695
 6759TIP3   OH241767   0.954   0.136  14.001  0.0923  0.5133 -0.5846
 6759TIP3    H141768   0.900   0.129  13.923 -0.3712 -1.8304 -0.1308
 6759TIP3    H241769   0.891   0.144  14.073  0.4105  0.0118 -0.2445
 6760TIP3   OH241770   2.844   2.670  15.175 -0.2802  0.2640  0.5364
 6760TIP3    H141771   2.801   2.751  15.146 -2.0149 -0.4148  1.1022
 6760TIP3    H241772   2.896   2.697  15.251 -1.0915  0.8089  0.9145
 6761TIP3   OH241773   3.170   4.189   4.040 -0.1546  0.2065  0.1333
 6761TIP3    H141774   3.109   4.159   3.972  0.9023 -0.3377 -0.6179
 6761TIP3    H241775   3.200   4.108   4.081 -0.0784  0.4840  0.6191
 6762TIP3   OH241776   3.695   3.882  11.563  0.2913  0.4494 -0.3496
 6762TIP3    H141777   3.622   3.860  11.505 -0.0261 -0.2966  0.2987
 6762TIP3    H241778   3.773   3.874  11.508  0.0664 -1.0393 -0.5003
 6763TIP3   OH241779   4.970   4.486  10.382  0.1345 -0.0730  0.7611
 6763TIP3    H141780   4.920   4.542  10.323  2.2743 -1.2698 -2.4183
 6763TIP3    H241781   5.048   4.537  10.404  0.0634 -0.2125  1.3465
 6764TIP3   OH241782   3.269   0.544  14.386  0.2724  0.2725 -0.4860
 6764TIP3    H141783   3.320   0.526  14.306  0.1404 -1.4569 -0.2196
 6764TIP3    H241784   3.313   0.620  14.425  2.6909 -1.1378 -0.2612
 6765TIP3   OH241785   6.432   5.653   3.954 -0.5310  0.1030  0.3138
 6765TIP3    H141786   6.464   5.587   4.015 -2.7929  1.5171  3.3378
 6765TIP3    H241787   6.387   5.604   3.885 -0.3042 -1.5603  1.3096
 6766TIP3   OH241788   2.817   0.371  12.743 -0.1301  0.2604  0.3046
 6766TIP3    H141789   2.787   0.292  12.697 -0.5524  0.1775  0.7062
 6766TIP3    H241790   2.736   0.414  12.771  0.1277  0.0766  1.3496
 6767TIP3   OH241791   5.163   3.173   1.545  0.1970 -0.0204 -0.5491
 6767TIP3    H141792   5.183   3.093   1.496  0.7664  0.5022 -1.1895
 6767TIP3    H241793   5.068   3.168   1.560  0.4358 -1.5836  0.8253
 6768TIP3   OH241794   4.385   3.400  12.759  0.4757  0.0960 -0.2012
 6768TIP3    H141795   4.304   3.449  12.766 -1.1129 -2.2798 -0.6064
 6768TIP3    H241796   4.414   3.414  12.669  2.7164  3.9295  0.8698
 6769TIP3   OH241797   2.148   0.556  11.873  0.4986 -0.6121 -0.0701
 6769TIP3    H141798   2.083   0.514  11.817 -1.1726 -0.3140  1.5757
 6769TIP3    H241799   2.181   0.629  11.821 -1.2289 -0.1616 -0.5709
 6770TIP3   OH241800   6.265   3.491  13.628  0.3315  0.5527  0.1340
 6770TIP3    H141801   6.352   3.514  13.660  0.9493 -3.0433  1.4312
 6770TIP3    H241802   6.205   3.538  13.687  1.4700 -0.8527  2.5271
 6771TIP3   OH241803   5.169   5.323   0.605  0.4159 -0.1072  0.3657
 6771TIP3    H141804   5.156   5.404   0.555  1.7130  1.2725  2.1053
 6771TIP3    H241805   5.092   5.317   0.661 -0.9342 -1.5395 -1.5249
 6772TIP3   OH241806   0.869   0.763   2.130  0.0534 -0.2319  0.3268
 6772TIP3    H141807   0.928   0.719   2.068  0.3368  2.2285 -1.2882
 6772TIP3    H241808   0.897   0.732   2.216  3.4548  0.4455 -0.3732
 6773TIP3   OH241809   4.344   2.985   1.597 -0.1305  0.0285  0.4926
 6773TIP3    H141810   4.375   3.066   1.636  2.2665 -0.4072 -0.3862
 6773TIP3    H241811   4.331   3.005   1.505  1.5329 -0.7966  0.0381
 6774TIP3   OH241812   4.232   1.402  12.975  0.6295  0.1182  0.5128
 6774TIP3    H141813   4.292   1.330  12.995  1.5715  0.9144  0.6309
 6774TIP3    H241814   4.160   1.391  13.038  0.3673 -1.1604  0.0179
 6775TIP3   OH241815   0.976   3.698  12.539 -0.2443 -0.3211  0.4177
 6775TIP3    H141816   0.940   3.755  12.606 -1.4411 -1.9303  1.2312
 6775TIP3    H241817   0.916   3.623  12.537 -0.2282 -0.3562 -2.4421
 6776TIP3   OH241818   3.259   2.843   1.389  0.7081 -0.6040  0.6376
 6776TIP3    H141819   3.301   2.818   1.472  0.1232  0.0050  1.1272
 6776TIP3    H241820   3.318   2.909   1.352  0.8394 -0.6929  0.6845
 6777TIP3   OH241821   6.481   5.575   4.798  0.4157  0.1756  0.6614
 6777TIP3    H141822   6.575   5.577   4.816  0.8184  1.3226 -1.2526
 6777TIP3    H241823   6.461   5.663   4.766 -0.9128 -0.5888 -0.7103
 6778TIP3   OH241824   0.067   3.808  11.278 -0.3378  0.9033 -0.3863
 6778TIP3    H141825  -0.002   3.813  11.345 -0.4355  0.8403 -0.4824
 6778TIP3    H241826   0.043   3.874  11.213 -0.4307  0.7255 -0.5346
 6779TIP3   OH241827   5.973   2.745   2.755  0.1556  0.6105 -0.1722
 6779TIP3    H141828   6.011   2.781   2.835  0.5382 -1.0319  0.4282
 6779TIP3    H241829   6.000   2.805   2.686  0.4663  1.6381  0.8199
 6780TIP3   OH241830   3.263   0.657   5.455 -1.1513  0.4871  0.3385
 6780TIP3    H141831   3.332   0.650   5.521 -2.0836 -0.2658  1.2592
 6780TIP3    H241832   3.273   0.746   5.420  2.4793 -0.6385 -2.0886
 6781TIP3   OH241833   1.491   5.492  17.133  0.1290  0.3993  0.5323
 6781TIP3    H141834   1.547   5.469  17.059  0.7277  0.8400  0.8428
 6781TIP3    H241835   1.508   5.422  17.197 -1.0724 -0.4883 -0.0839
 6782TIP3   OH241836   3.924   4.015  14.969 -0.2206 -0.7886 -0.3752
 6782TIP3    H141837   3.878   3.962  15.035  0.6746  0.0182  0.9349
 6782TIP3    H241838   4.014   4.018  15.000  0.0971  0.0926 -1.3551
 6783TIP3   OH241839   3.827   4.197  11.960 -0.5857 -0.1869 -0.1376
 6783TIP3    H141840   3.874   4.187  12.042 -1.1622 -2.1563  0.0120
 6783TIP3    H241841   3.888   4.243  11.902  0.5675 -0.4967  0.7976
 6784TIP3   OH241842   2.623   5.365  15.071 -0.3400  0.4201  0.3292
 6784TIP3    H141843   2.689   5.429  15.097 -0.3747  0.4314  0.3890
 6784TIP3    H241844   2.554   5.418  15.031  0.6498  0.2524 -1.7585
 6785TIP3   OH241845   0.366   1.969   6.044  0.3034  0.3720 -0.1865
 6785TIP3    H141846   0.348   2.028   6.118 -1.5884 -0.6801  0.2607
 6785TIP3    H241847   0.290   1.910   6.041  0.9395 -0.4390 -2.1863
 6786TIP3   OH241848   0.200   0.934   3.505  0.1739  0.3048 -0.5546
 6786TIP3    H141849   0.285   0.966   3.474 -0.2118  0.0294 -1.9427
 6786TIP3    H241850   0.185   0.982   3.586  0.5347  2.2136 -1.5583
 6787TIP3   OH241851   3.232   6.056   1.884  0.2385 -0.0714  0.2559
 6787TIP3    H141852   3.203   5.972   1.848 -1.1075  0.4561  0.0568
 6787TIP3    H241853   3.170   6.119   1.849  0.2885  0.7872  1.6734
 6788TIP3   OH241854   4.951   3.162  17.042 -0.1354  0.1616  0.2090
 6788TIP3    H141855   4.894   3.182  16.967  1.4695  0.6869 -0.9314
 6788TIP3    H241856   4.956   3.245  17.090 -0.7384 -0.0315  0.6169
 6789TIP3   OH241857   6.448   3.866  12.844 -0.1053  0.0477  0.3583
 6789TIP3    H141858   6.361   3.846  12.878 -1.6449  2.1734 -1.9612
 6789TIP3    H241859   6.441   3.848  12.750  1.7357  0.9980  0.0040
 6790TIP3   OH241860   1.319   6.505  16.456  0.0120  0.1822 -0.8659
 6790TIP3    H141861   1.264   6.569  16.412  0.5968  0.1598 -1.6473
 6790TIP3    H241862   1.378   6.472  16.388  1.6533  0.9046  0.1261
 6791TIP3   OH241863   4.656   1.569   1.264 -0.1612  0.0146 -0.1021
 6791TIP3    H141864   4.646   1.502   1.332  0.8103  1.5888  1.6844
 6791TIP3    H241865   4.608   1.534   1.189 -2.1067 -1.3873  1.6786
 6792TIP3   OH241866   0.615   5.127   3.577 -0.6168  0.4751  0.4134
 6792TIP3    H141867   0.573   5.207   3.546 -0.1279  0.4454 -0.3441
 6792TIP3    H241868   0.543   5.064   3.586 -1.0711  1.1205  1.4592
 6793TIP3   OH241869   3.839   2.987  17.251 -0.4267  0.3076 -0.2517
 6793TIP3    H141870   3.836   2.907  17.303  1.4366 -0.8772 -1.8791
 6793TIP3    H241871   3.921   3.029  17.276  0.0988  0.1294 -1.5793
 6794TIP3   OH241872   0.915   2.118   5.316  0.3656 -0.2600  0.1131
 6794TIP3    H141873   1.007   2.127   5.337  0.6925  1.2933 -1.6676
 6794TIP3    H241874   0.886   2.207   5.297 -1.0175 -0.9323 -1.1717
 6795TIP3   OH241875   3.658   1.893   4.148  0.5297 -0.0101  0.4425
 6795TIP3    H141876   3.736   1.893   4.092  0.4544 -1.0188  0.3260
 6795TIP3    H241877   3.593   1.943   4.098  0.9268  0.3696  0.2973
 6796TIP3   OH241878   1.016   6.161   1.093  0.5015  0.4160 -0.7138
 6796TIP3    H141879   0.994   6.068   1.099 -0.0743  0.6397  1.0416
 6796TIP3    H241880   0.960   6.203   1.158  1.1036  1.9353 -1.1458
 6797TIP3   OH241881   4.733   4.354   5.975 -0.2281 -0.5500  0.4467
 6797TIP3    H141882   4.647   4.396   5.986 -0.1733 -0.7371  1.6961
 6797TIP3    H241883   4.741   4.341   5.881 -0.8746  0.9368  0.1549
 6798TIP3   OH241884   1.423   4.822  13.941  0.5141 -0.1452 -0.1274
 6798TIP3    H141885   1.396   4.877  14.014  0.5910 -0.3554  0.0622
 6798TIP3    H241886   1.370   4.852  13.867 -0.6561 -0.9088  0.3585
 6799TIP3   OH241887   5.180   0.569  10.732 -0.1527 -0.5498 -0.3265
 6799TIP3    H141888   5.159   0.496  10.673  1.2220 -0.9083 -0.4241
 6799TIP3    H241889   5.267   0.547  10.766 -1.1133 -0.6411  2.3156
 6800TIP3   OH241890   6.055   6.791  16.816 -0.1441 -0.0212  0.1994
 6800TIP3    H141891   5.969   6.758  16.789  0.4950 -2.0722  0.4901
 6800TIP3    H241892   6.059   6.771  16.909  0.8182 -0.3262  0.0959
 6801TIP3   OH241893   2.824   3.372  14.024  0.1820 -0.4853 -0.6560
 6801TIP3    H141894   2.751   3.351  14.081  0.0167  0.3321 -0.5477
 6801TIP3    H241895   2.811   3.464  14.001 -0.0798 -0.9328 -2.4662
 6802TIP3   OH241896   5.979   4.128   5.907  0.3031 -0.3504 -0.4118
 6802TIP3    H141897   5.993   4.168   5.822  1.1497 -2.2414 -1.2308
 6802TIP3    H241898   5.914   4.059   5.890  0.1520 -0.4614  0.5637
 6803TIP3   OH241899   3.318   6.572  12.612 -0.0089 -0.3459  0.1426
 6803TIP3    H141900   3.261   6.502  12.643 -0.5304  0.8841  2.1407
 6803TIP3    H241901   3.403   6.553  12.651  0.4391 -1.0252 -1.1133
 6804TIP3   OH241902   3.331   2.520   0.032  0.4639 -0.7019 -0.0242
 6804TIP3    H141903   3.267   2.552   0.096 -0.7658 -0.9585 -1.0838
 6804TIP3    H241904   3.285   2.524  -0.051  1.9135 -0.7290 -0.8516
 6805TIP3   OH241905   4.228   4.283  17.058  0.2240  0.4943  0.4438
 6805TIP3    H141906   4.304   4.339  17.039  1.6140 -1.6897 -0.9355
 6805TIP3    H241907   4.267   4.204  17.097 -1.1895 -1.1195 -1.2469
 6806TIP3   OH241908   5.991   4.286  13.621  0.7795  0.1467  0.2126
 6806TIP3    H141909   6.052   4.219  13.652  0.7544 -0.4088 -0.8761
 6806TIP3    H241910   6.043   4.341  13.562 -0.0553 -1.2462 -1.9510
 6807TIP3   OH241911   2.851   0.879  12.628 -0.2286 -0.3309 -0.6167
 6807TIP3    H141912   2.799   0.928  12.691  2.6215  1.4900  0.5450
 6807TIP3    H241913   2.888   0.946  12.570  2.7026 -1.1096  0.1595
 6808TIP3   OH241914   1.459   4.829   1.740  0.3389 -0.0894  0.0453
 6808TIP3    H141915   1.388   4.850   1.679  0.2342 -0.8098 -0.0831
 6808TIP3    H241916   1.415   4.812   1.823  0.4747  0.8052  0.3073
 6809TIP3   OH241917   6.487   0.385  14.471  0.1110 -0.0068  0.0026
 6809TIP3    H141918   6.548   0.391  14.544 -0.0722  0.2952  0.1355
 6809TIP3    H241919   6.485   0.292  14.448 -0.3899 -0.2167  0.8567
 6810TIP3   OH241920   5.972   5.682  12.969 -0.4618 -0.2676 -0.5252
 6810TIP3    H141921   6.011   5.606  12.925  1.6128  0.5153 -0.1615
 6810TIP3    H241922   6.022   5.756  12.935 -1.8937  0.8565 -0.2428
 6811TIP3   OH241923   4.921   2.476  15.397  0.0576  0.1694  0.0979
 6811TIP3    H141924   4.855   2.528  15.444 -0.5985  0.6365 -1.2589
 6811TIP3    H241925   4.985   2.541  15.367  1.1446 -0.2800  1.3720
 6812TIP3   OH241926   0.595   1.339   6.137  1.0642 -0.2899  0.4511
 6812TIP3    H141927   0.629   1.406   6.196 -0.0291  0.7915 -0.0983
 6812TIP3    H241928   0.621   1.369   6.050  0.0520 -0.2398  0.1516
 6813TIP3   OH241929   3.405   4.073   4.497  0.0711  0.2137  0.0543
 6813TIP3    H141930   3.437   4.002   4.442 -0.5317 -0.1094  0.1168
 6813TIP3    H241931   3.478   4.136   4.500  0.2870  0.0064 -0.7042
 6814TIP3   OH241932   3.216   4.229  10.645 -0.4766 -0.3846  0.1678
 6814TIP3    H141933   3.150   4.227  10.576  0.0703  1.9845 -0.5261
 6814TIP3    H241934   3.173   4.273  10.718 -0.6504 -1.7434  0.9062
 6815TIP3   OH241935   1.012   2.591   0.313 -0.0199 -0.2199  0.2082
 6815TIP3    H141936   1.023   2.495   0.310 -2.3198 -0.5737  1.0946
 6815TIP3    H241937   1.004   2.617   0.221  0.0104 -0.9639 -0.0128
 6816TIP3   OH241938   3.338   5.503   2.582 -0.0306 -0.4805  0.0952
 6816TIP3    H141939   3.331   5.494   2.487  0.9168 -1.1662  0.0714
 6816TIP3    H241940   3.249   5.486   2.614  0.2928 -3.7691 -0.4445
 6817TIP3   OH241941   1.354   1.566  12.678 -0.1664  0.8212 -0.6308
 6817TIP3    H141942   1.363   1.632  12.746  0.8062  1.0873 -1.0114
 6817TIP3    H241943   1.423   1.585  12.615  0.5749 -0.9439 -0.4190
 6818TIP3   OH241944   1.596   4.367  12.746  0.0624 -0.0358  0.9124
 6818TIP3    H141945   1.616   4.316  12.824 -0.4619 -2.4996 -0.4367
 6818TIP3    H241946   1.648   4.326  12.677  0.2473  1.8392 -0.1172
 6819TIP3   OH241947   6.361   6.508  10.281 -0.2413 -0.3234  0.8396
 6819TIP3    H141948   6.359   6.516  10.376 -0.8593 -0.6186  0.8633
 6819TIP3    H241949   6.341   6.596  10.248  2.4223  0.3826  0.9240
 6820TIP3   OH241950   4.451   2.450  12.895  0.5085  0.0599  0.4008
 6820TIP3    H141951   4.391   2.408  12.957 -0.5854  0.5617 -0.2929
 6820TIP3    H241952   4.535   2.407  12.911 -0.1868 -1.1927  0.8816
 6821TIP3   OH241953   4.143   1.620  12.037  0.2877 -0.1995 -0.3158
 6821TIP3    H141954   4.091   1.577  12.105  1.6123 -0.7886  0.3586
 6821TIP3    H241955   4.107   1.588  11.955 -0.1923 -0.8569  0.1443
 6822TIP3   OH241956   1.450   3.647  16.321 -0.1025 -0.8601  0.3060
 6822TIP3    H141957   1.464   3.583  16.252  3.9334 -0.2498  0.2759
 6822TIP3    H241958   1.471   3.731  16.280 -2.6982  0.2421  1.0295
 6823TIP3   OH241959   6.179   0.769   3.131 -0.0412  0.0510  0.2141
 6823TIP3    H141960   6.238   0.830   3.175 -1.8722  1.8738  0.3002
 6823TIP3    H241961   6.237   0.714   3.077  1.7183  1.7278  0.2853
 6824TIP3   OH241962   0.661   5.360   2.990  0.7168  0.4656 -0.0023
 6824TIP3    H141963   0.601   5.424   3.028  0.8954  0.5755  0.1003
 6824TIP3    H241964   0.610   5.316   2.923  0.1302 -0.3210  0.9391
 6825TIP3   OH241965   5.516   5.429  17.239  0.2856  0.1976 -0.0501
 6825TIP3    H141966   5.480   5.494  17.178 -0.7270 -1.0478 -0.8570
 6825TIP3    H241967   5.441   5.405  17.294  0.4206 -0.8501 -0.3077
 6826TIP3   OH241968   3.365   4.500  15.727  0.2663  0.2692 -0.0537
 6826TIP3    H141969   3.399   4.555  15.656  1.2619 -0.8955 -0.5067
 6826TIP3    H241970   3.270   4.504  15.717  0.3869 -0.3374 -1.8546
 6827TIP3   OH241971   1.260   1.801  10.659 -0.3435 -0.7827 -0.3424
 6827TIP3    H141972   1.183   1.745  10.670 -0.6945 -0.0305  1.3392
 6827TIP3    H241973   1.273   1.805  10.564 -1.7800 -1.7245 -0.6139
 6828TIP3   OH241974   3.369   2.890  12.419  0.1013 -0.0431  0.3326
 6828TIP3    H141975   3.384   2.870  12.511 -0.0075  0.0703  0.3744
 6828TIP3    H241976   3.453   2.924  12.388  0.2290 -0.3773  0.3112
 6829TIP3   OH241977   5.907   1.160   0.255 -0.7811  0.4152 -0.7974
 6829TIP3    H141978   5.967   1.087   0.267  1.3399  2.1400 -0.3580
 6829TIP3    H241979   5.839   1.145   0.321  0.6143 -0.1914  0.5902
 6830TIP3   OH241980   0.529   0.881  15.631  0.0262  0.1066 -0.5975
 6830TIP3    H141981   0.478   0.874  15.551 -1.2710 -2.0871  0.3128
 6830TIP3    H241982   0.555   0.791  15.651  1.7540  0.8101  0.5725
 6831TIP3   OH241983   4.298   1.978  16.154 -0.3689  0.7827  0.0384
 6831TIP3    H141984   4.242   1.901  16.142 -0.5069  0.9858 -0.6679
 6831TIP3    H241985   4.348   1.984  16.072  1.2937  0.1238  0.9365
 6832TIP3   OH241986   0.985   4.580   2.822  0.5815  0.4631 -0.1587
 6832TIP3    H141987   0.902   4.620   2.850  0.1090 -1.9577  2.3592
 6832TIP3    H241988   0.959   4.496   2.784  1.8383 -0.2558  0.5024
 6833TIP3   OH241989   3.387   6.786   5.041  0.5962  0.2576  0.3677
 6833TIP3    H141990   3.470   6.738   5.042  0.1049 -0.6752 -1.1276
 6833TIP3    H241991   3.326   6.729   5.088  0.5974  0.5801  0.7699
 6834TIP3   OH241992   4.570   2.077  12.543  0.1671 -0.6920 -0.8538
 6834TIP3    H141993   4.525   2.145  12.494 -0.1321 -0.2117  0.0668
 6834TIP3    H241994   4.660   2.109  12.551 -0.4459  0.6769  1.4151
 6835TIP3   OH241995   5.548   4.485   5.152 -0.1074  0.5845 -0.3289
 6835TIP3    H141996   5.503   4.550   5.098  0.1063 -0.2101 -1.4915
 6835TIP3    H241997   5.477   4.443   5.202 -0.1648  2.2008  1.0214
 6836TIP3   OH241998   1.498   3.377   1.775 -0.1089  0.0744 -0.0290
 6836TIP3    H141999   1.469   3.396   1.686 -0.3408  0.8832  0.2103
 6836TIP3    H242000   1.437   3.311   1.807  0.0302 -0.2829 -0.4975
 6837TIP3   OH242001   0.872   6.209   5.612 -0.0054 -0.4838 -0.1394
 6837TIP3    H142002   0.875   6.172   5.701  0.6143 -0.3416 -0.0985
 6837TIP3    H242003   0.832   6.296   5.624 -0.9718 -0.9096 -0.1635
 6838TIP3   OH242004   1.383   4.812  16.717  0.1869  0.3280  0.7287
 6838TIP3    H142005   1.326   4.888  16.705 -0.3210 -0.3071 -1.4304
 6838TIP3    H242006   1.402   4.782  16.628  0.8598 -1.7243  1.4891
 6839TIP3   OH242007   2.323   5.089   3.441  0.6868  0.1426 -0.1468
 6839TIP3    H142008   2.329   5.184   3.428 -1.2883  0.5847  1.6202
 6839TIP3    H242009   2.348   5.076   3.532 -1.3805 -0.6907  0.3471
 6840TIP3   OH242010   5.906   6.257   6.011 -0.7179 -0.0565 -0.7965
 6840TIP3    H142011   5.829   6.235   6.063 -0.7746  0.4974 -0.6479
 6840TIP3    H242012   5.935   6.342   6.044  1.3236 -1.2447  0.7617
 6841TIP3   OH242013   3.025   1.196   3.768  0.2756  0.0693 -0.2034
 6841TIP3    H142014   2.934   1.221   3.755  0.3311 -0.6271 -2.3587
 6841TIP3    H242015   3.074   1.278   3.761 -0.1653  0.4641  1.0921
 6842TIP3   OH242016   6.429   2.167   4.244  0.2929  0.2216 -0.4876
 6842TIP3    H142017   6.434   2.102   4.314 -0.7988  0.1803 -0.4240
 6842TIP3    H242018   6.427   2.116   4.163  0.6683  0.2278 -0.4990
 6843TIP3   OH242019   0.183   1.509  12.902  0.2074 -0.0257 -0.6576
 6843TIP3    H142020   0.150   1.581  12.956  2.5035 -1.3779  2.9294
 6843TIP3    H242021   0.235   1.553  12.834  1.4670  1.8099  1.3448
 6844TIP3   OH242022   0.196   4.842   0.334  0.2546  0.0514 -0.1391
 6844TIP3    H142023   0.130   4.836   0.266  0.1137  0.9273 -0.0939
 6844TIP3    H242024   0.215   4.751   0.358  1.9415 -0.4310 -2.8924
 6845TIP3   OH242025   0.937   2.202  16.864  0.3223 -0.0203 -0.3185
 6845TIP3    H142026   0.919   2.223  16.955 -1.7090  1.1860 -0.9418
 6845TIP3    H242027   0.852   2.176  16.827  0.7003  1.3247 -2.3025
 6846TIP3   OH242028   1.941   1.165  16.203  0.4949  0.3473 -0.0938
 6846TIP3    H142029   1.855   1.158  16.242  1.3579 -1.6324  1.6476
 6846TIP3    H242030   1.942   1.097  16.135  0.5821  0.5702 -0.3153
 6847TIP3   OH242031   0.172   4.703  13.147  0.3977  0.5018  0.3679
 6847TIP3    H142032   0.145   4.646  13.219  0.7135 -0.0211  0.0823
 6847TIP3    H242033   0.128   4.668  13.070  0.4395  0.7640  0.2236
 6848TIP3   OH242034   2.773   1.534  11.915 -0.2064 -0.4875 -0.1644
 6848TIP3    H142035   2.747   1.594  11.985  0.6772 -1.1949  0.7925
 6848TIP3    H242036   2.795   1.591  11.842  0.2192  0.3529  0.5944
 6849TIP3   OH242037   2.269   5.400  13.718  0.5551  0.0133 -0.3341
 6849TIP3    H142038   2.185   5.355  13.724  0.7557 -0.3720 -0.4366
 6849TIP3    H242039   2.300   5.384  13.629 -0.1306  1.7070 -0.9292
 6850TIP3   OH242040   6.161   3.652   1.854 -0.5612 -0.2813 -0.0350
 6850TIP3    H142041   6.242   3.650   1.906 -0.0270 -0.6942 -0.8548
 6850TIP3    H242042   6.118   3.569   1.875 -0.1308 -0.6501 -0.5530
 6851TIP3   OH242043   0.766   4.633   3.150 -0.2066 -0.5238  0.0049
 6851TIP3    H142044   0.796   4.567   3.212  0.4138  0.0618  0.3353
 6851TIP3    H242045   0.670   4.626   3.153 -0.2117 -0.1687  1.4160
 6852TIP3   OH242046   0.371   6.303   0.845 -0.2087  0.0249  0.0541
 6852TIP3    H142047   0.366   6.384   0.897  0.5581  0.0192  0.1537
 6852TIP3    H242048   0.303   6.313   0.778 -0.5357  0.4754  0.4486
 6853TIP3   OH242049   4.466   0.589   4.977  0.7123  0.1829  0.1576
 6853TIP3    H142050   4.484   0.505   4.934  0.2694 -1.4659  2.8962
 6853TIP3    H242051   4.398   0.630   4.924 -0.2596 -1.9851 -0.3944
 6854TIP3   OH242052   1.782   1.136   2.559  0.2622 -0.6080 -0.0651
 6854TIP3    H142053   1.782   1.170   2.469 -0.1055  0.6383  0.3775
 6854TIP3    H242054   1.702   1.083   2.565  0.7843 -1.4937 -0.7390
 6855TIP3   OH242055   1.940   2.299   3.662 -0.0720  0.2241  0.6703
 6855TIP3    H142056   1.898   2.300   3.576  0.4952 -1.4153  0.3284
 6855TIP3    H242057   1.914   2.381   3.703 -2.1197  0.0649 -0.2244
 6856TIP3   OH242058   5.986   0.559   4.766 -0.1317  0.3656  0.0228
 6856TIP3    H142059   6.070   0.600   4.746  0.1778  0.3023  1.0857
 6856TIP3    H242060   5.926   0.593   4.700  0.8593 -0.0684 -1.1414
 6857TIP3   OH242061   3.610   0.345  16.713  0.2472 -0.3892  0.2037
 6857TIP3    H142062   3.602   0.250  16.724  0.1995 -0.2534  1.4610
 6857TIP3    H242063   3.531   0.370  16.665  0.4516 -1.0252 -0.4919
 6858TIP3   OH242064   4.911   0.817   3.457  0.5043 -0.2978  0.0657
 6858TIP3    H142065   4.827   0.776   3.436  0.7531 -0.7137 -0.1284
 6858TIP3    H242066   4.888   0.905   3.485  0.0602 -0.1637 -0.7093
 6859TIP3   OH242067   0.780   6.159   4.365  0.6701 -0.0311  0.3017
 6859TIP3    H142068   0.693   6.184   4.333 -0.2688 -3.6284 -0.4787
 6859TIP3    H242069   0.763   6.114   4.447  1.7340 -1.0664 -0.0215
 6860TIP3   OH242070   0.224   1.637   4.978  0.3902  0.6236  0.1851
 6860TIP3    H142071   0.182   1.576   5.039 -0.8866 -0.9390 -2.1019
 6860TIP3    H242072   0.317   1.635   5.003  0.4053 -2.2656  0.2938
 6861TIP3   OH242073   5.207   3.187  14.444  0.0408 -0.2604 -0.3484
 6861TIP3    H142074   5.299   3.178  14.419  0.7384  2.1606  1.0750
 6861TIP3    H242075   5.207   3.255  14.511 -2.8322 -0.0072 -0.5062
 6862TIP3   OH242076   2.592   0.061   4.904 -0.2862  0.3702 -0.2435
 6862TIP3    H142077   2.667   0.032   4.853  0.1469  0.5263  0.2975
 6862TIP3    H242078   2.523   0.076   4.839 -0.0156 -0.2848 -0.6863
 6863TIP3   OH242079   5.069   4.275   5.441  0.4449 -0.2832 -0.1429
 6863TIP3    H142080   4.999   4.340   5.447 -0.0253 -0.7717 -0.2199
 6863TIP3    H242081   5.099   4.264   5.531 -0.6375 -1.1952  0.1314
 6864TIP3   OH242082   1.706   5.164   2.366 -0.5525 -0.7208 -0.2380
 6864TIP3    H142083   1.768   5.234   2.345 -0.5170  0.0320  2.0951
 6864TIP3    H242084   1.645   5.203   2.429 -2.4177 -1.9319 -1.1792
 6865TIP3   OH242085   4.412   2.550  13.904  0.2860  0.7748 -0.0426
 6865TIP3    H142086   4.320   2.529  13.921 -0.6570  2.6488 -2.2396
 6865TIP3    H242087   4.443   2.586  13.987 -0.1968 -2.0125  1.4544
 6866TIP3   OH242088   1.838   3.056  12.062  0.2229 -0.1406 -0.1623
 6866TIP3    H142089   1.882   3.139  12.078 -0.4633  0.2901 -0.4792
 6866TIP3    H242090   1.750   3.080  12.033  0.9788 -0.8606 -3.4301
 6867TIP3   OH242091   5.441   1.727   4.419  0.1852 -0.8168 -0.2401
 6867TIP3    H142092   5.440   1.696   4.510 -0.0296 -0.2989 -0.0659
 6867TIP3    H242093   5.401   1.814   4.422  1.7267 -0.0679 -0.5638
 6868TIP3   OH242094   0.002   2.052  16.923  0.3921  0.4551  0.2268
 6868TIP3    H142095   0.069   1.984  16.926  0.1906  0.2379 -0.2222
 6868TIP3    H242096  -0.038   2.044  16.837  0.6884  1.4544 -0.0208
 6869TIP3   OH242097   5.622   2.417  15.442 -0.0414  0.2366  0.0339
 6869TIP3    H142098   5.631   2.366  15.523  1.3339 -0.6210 -0.6254
 6869TIP3    H242099   5.691   2.484  15.447  0.2368  0.0030 -0.5418
 6870TIP3   OH242100   4.803   6.391   2.042  0.1018 -0.2395  0.4767
 6870TIP3    H142101   4.782   6.411   1.950  1.0075 -0.4555  0.2122
 6870TIP3    H242102   4.897   6.410   2.050 -0.2346  1.0911  1.7312
 6871TIP3   OH242103   4.873   4.441  11.248 -0.0531 -0.1229  0.3394
 6871TIP3    H142104   4.787   4.475  11.273 -0.8626 -2.3608  0.7926
 6871TIP3    H242105   4.918   4.426  11.331  0.4537  0.1971  0.1288
 6872TIP3   OH242106   1.119   3.974  14.778 -0.2957 -0.1644 -0.2384
 6872TIP3    H142107   1.105   4.061  14.814 -1.6332  0.5329 -2.3053
 6872TIP3    H242108   1.188   3.985  14.713  0.0569 -0.8122  0.0149
 6873TIP3   OH242109   1.085   5.202   3.931 -0.1572 -0.2289 -0.0444
 6873TIP3    H142110   1.026   5.128   3.946 -0.6013 -0.4906 -2.6525
 6873TIP3    H242111   1.050   5.272   3.986 -0.5439 -1.4968  1.4197
 6874TIP3   OH242112   2.883   3.674  12.225 -0.4336  0.1288 -0.2589
 6874TIP3    H142113   2.810   3.728  12.196  0.5821  0.7947 -1.6611
 6874TIP3    H242114   2.922   3.724  12.297 -2.1816 -0.9291  1.5493
 6875TIP3   OH242115   6.770   3.169   4.851 -0.3168  0.5409 -0.3874
 6875TIP3    H142116   6.692   3.129   4.812 -2.4290  2.9002  1.1198
 6875TIP3    H242117   6.809   3.098   4.902 -0.6447 -1.0700 -2.2172
 6876TIP3   OH242118   6.399   6.344  12.535 -0.4113 -0.3360 -0.3427
 6876TIP3    H142119   6.428   6.271  12.480 -1.0527  0.8859 -2.4416
 6876TIP3    H242120   6.303   6.343  12.527 -0.5604 -0.3863  1.1735
 6877TIP3   OH242121   1.936   6.599   1.869 -0.0606 -0.0363  0.1348
 6877TIP3    H142122   1.990   6.637   1.938  0.1968 -2.5434  1.4232
 6877TIP3    H242123   1.998   6.565   1.805 -0.2841  1.4082 -0.9060
 6878TIP3   OH242124   0.365   0.218   5.164  0.2943 -0.5854 -0.1733
 6878TIP3    H142125   0.392   0.304   5.197  0.5166 -0.2429 -1.2306
 6878TIP3    H242126   0.318   0.179   5.238 -0.5057  0.7533  0.0656
 6879TIP3   OH242127   2.217   1.602  13.312  1.1086 -0.2043 -0.2147
 6879TIP3    H142128   2.289   1.551  13.348  0.4056 -1.7562 -0.9215
 6879TIP3    H242129   2.246   1.627  13.224  1.2473  0.1869 -0.0599
 6880TIP3   OH242130   1.366   1.769  12.874  0.2574  0.5678 -0.3848
 6880TIP3    H142131   1.392   1.861  12.864 -0.6494  0.9473  0.5501
 6880TIP3    H242132   1.276   1.773  12.906  0.5362 -0.6335  0.6203
 6881TIP3   OH242133   5.336   4.081  15.408 -0.0169  0.0460  0.1182
 6881TIP3    H142134   5.355   4.117  15.495  0.4094 -0.3652  0.2002
 6881TIP3    H242135   5.248   4.044  15.416 -0.7257  1.6029 -0.1462
 6882TIP3   OH242136   5.087   5.008   4.045  0.7542  0.6827  0.4035
 6882TIP3    H142137   5.159   4.974   3.992 -0.4495  0.4199 -1.1484
 6882TIP3    H242138   5.094   5.103   4.037  1.2925  0.6799  0.7895
 6883TIP3   OH242139   0.079   2.845  14.164  0.3785  0.3236 -0.1933
 6883TIP3    H142140   0.136   2.867  14.238  0.8514 -0.1945 -0.3957
 6883TIP3    H242141   0.108   2.905  14.094 -0.5257  1.2888  0.2292
 6884TIP3   OH242142   5.352   6.373  14.130 -0.6989 -0.2801  0.3588
 6884TIP3    H142143   5.337   6.362  14.224 -0.2994 -0.0269  0.4577
 6884TIP3    H242144   5.432   6.322  14.113  0.6553  1.6359  0.6466
 6885TIP3   OH242145   1.128   0.887  12.734 -0.1525  0.1396 -0.4603
 6885TIP3    H142146   1.079   0.824  12.680 -1.7274  0.5678  0.3959
 6885TIP3    H242147   1.102   0.867  12.824  0.9535  0.6727 -0.0034
 6886TIP3   OH242148   3.938   4.665  10.922  0.0996 -0.3501  0.4092
 6886TIP3    H142149   3.899   4.726  10.984 -0.7322  0.9756 -1.3263
 6886TIP3    H242150   3.914   4.578  10.955  0.3082  0.2555  2.2937
 6887TIP3   OH242151   1.013   5.054   5.218 -0.1338  0.6846  0.0988
 6887TIP3    H142152   1.086   5.018   5.168 -0.5379  1.6459 -1.2495
 6887TIP3    H242153   1.044   5.055   5.309  0.5955 -1.1851 -0.0993
 6888TIP3   OH242154   5.986   5.061   5.838  0.3749  0.4911 -0.2515
 6888TIP3    H142155   5.978   5.156   5.829  0.7222  0.6081  0.5841
 6888TIP3    H242156   5.929   5.039   5.911  0.6738  0.1276 -0.1224
 6889TIP3   OH242157   4.607   2.870   1.265  0.3806  1.0101 -0.1675
 6889TIP3    H142158   4.642   2.825   1.342  0.3446  1.7538  0.2975
 6889TIP3    H242159   4.593   2.960   1.295 -1.6823  0.8097 -0.3972
 6890TIP3   OH242160   3.460   3.485   3.178  0.4238 -0.4260 -0.8629
 6890TIP3    H142161   3.383   3.520   3.133  1.2973 -1.2693 -3.1707
 6890TIP3    H242162   3.532   3.542   3.149  0.7453  0.2256  1.0915
 6891TIP3   OH242163   5.956   1.226  14.763 -0.2446 -0.0791  0.5408
 6891TIP3    H142164   5.967   1.167  14.838  1.5054  0.9478  1.1625
 6891TIP3    H242165   6.029   1.204  14.705 -1.5623 -0.8399 -0.9135
 6892TIP3   OH242166   4.599   1.558  10.448 -0.7142 -0.5301 -0.3151
 6892TIP3    H142167   4.521   1.572  10.394 -2.1884 -1.5003  1.4434
 6892TIP3    H242168   4.574   1.487  10.507  1.4361 -0.6791  0.4915
 6893TIP3   OH242169   5.181   0.009  12.803 -0.2188  0.0214  0.5825
 6893TIP3    H142170   5.146   0.010  12.892 -0.4330  0.2165  0.4955
 6893TIP3    H242171   5.271  -0.023  12.813 -0.2464  0.0351  0.8678
 6894TIP3   OH242172   4.472   5.911  15.905  0.1190 -0.0030 -0.5685
 6894TIP3    H142173   4.529   5.962  15.848 -0.4593  0.2792 -0.9077
 6894TIP3    H242174   4.387   5.911  15.860 -0.1419 -0.4278 -0.0855
 6895TIP3   OH242175   4.039   5.224   5.590  0.0867 -0.8999 -0.3446
 6895TIP3    H142176   4.005   5.146   5.548  1.2689 -1.8211  0.3392
 6895TIP3    H242177   4.059   5.197   5.679  0.1287  0.2970  0.0340
 6896TIP3   OH242178   2.213   4.060   0.432  0.0258  0.5995 -0.4509
 6896TIP3    H142179   2.140   3.998   0.429 -0.5410  1.2569 -2.6820
 6896TIP3    H242180   2.211   4.103   0.346  2.9639  0.7318 -0.5614
 6897TIP3   OH242181   4.262   1.293  17.132  0.2284 -0.0695  0.3271
 6897TIP3    H142182   4.216   1.245  17.201 -1.3900  0.5001 -0.2984
 6897TIP3    H242183   4.308   1.363  17.178  0.7655 -0.8600  1.0108
 6898TIP3   OH242184   1.888   5.783   6.085  0.3199 -0.0849 -0.1902
 6898TIP3    H142185   1.869   5.691   6.067  0.3812 -0.0790 -0.2865
 6898TIP3    H242186   1.910   5.820   5.999 -2.3845  0.6700 -0.6737
 6899TIP3   OH242187   3.054   3.285   5.478 -0.6105 -0.1754  0.1352
 6899TIP3    H142188   3.033   3.227   5.551 -0.4706 -1.5220 -0.8726
 6899TIP3    H242189   3.119   3.238   5.427 -0.2246  1.0246 -0.5307
 6900TIP3   OH242190   4.620   3.529  15.448  0.3774  0.1314  0.0458
 6900TIP3    H142191   4.670   3.516  15.367  0.0814  1.5655 -0.3887
 6900TIP3    H242192   4.644   3.454  15.503  2.6324  0.4992 -0.3433
 6901TIP3   OH242193   1.673   0.793  14.617 -0.1671 -0.2331  0.2733
 6901TIP3    H142194   1.730   0.853  14.665  0.5799  0.6233 -1.6032
 6901TIP3    H242195   1.633   0.846  14.548  0.3933 -1.8180 -1.3613
 6902TIP3   OH242196   1.166   1.244   1.306  0.1566 -0.4423  0.0974
 6902TIP3    H142197   1.245   1.193   1.325 -0.3932 -1.6182 -0.6569
 6902TIP3    H242198   1.097   1.199   1.355  0.0218  0.9589  1.2882
 6903TIP3   OH242199   3.378   3.920   2.908  0.2791 -0.5877 -0.2656
 6903TIP3    H142200   3.379   3.970   2.827 -2.3624 -0.3611 -0.2431
 6903TIP3    H242201   3.405   3.983   2.975  1.5364 -0.5235 -0.8012
 6904TIP3   OH242202   4.110   6.709   5.365 -0.5405  0.9291  0.2053
 6904TIP3    H142203   4.061   6.712   5.447 -0.6190  1.1183  0.1537
 6904TIP3    H242204   4.194   6.670   5.387 -0.2676  1.6755  0.5281
 6905TIP3   OH242205   3.361   5.489  13.564 -0.0313 -0.3031  0.1247
 6905TIP3    H142206   3.400   5.492  13.476 -2.3648  4.3144 -1.0747
 6905TIP3    H242207   3.412   5.553  13.614 -1.7807  0.8242  0.5355
 6906TIP3   OH242208   0.900   4.344  17.186 -0.3330 -0.0041 -0.2988
 6906TIP3    H142209   0.870   4.274  17.243  0.5583  0.2096  0.4464
 6906TIP3    H242210   0.823   4.368  17.134 -1.5029  0.6354  1.6468
 6907TIP3   OH242211   2.667   3.849  12.125  0.1721  0.1618  0.2440
 6907TIP3    H142212   2.722   3.921  12.156 -0.9182  1.2746 -0.3373
 6907TIP3    H242213   2.671   3.854  12.029  1.3005 -1.5341  0.1475
 6908TIP3   OH242214   3.032   5.811  13.782 -0.3203  0.1273 -0.5696
 6908TIP3    H142215   3.062   5.830  13.693 -1.0687 -1.1764 -1.1318
 6908TIP3    H242216   3.079   5.732  13.807 -2.6220 -1.5710 -1.2105
 6909TIP3   OH242217   2.036   3.935  16.301  0.1843  0.3629  0.4260
 6909TIP3    H142218   2.069   3.863  16.355  0.1373 -0.5733 -0.7441
 6909TIP3    H242219   2.001   3.998  16.364 -1.4202 -1.4378  1.4556
 6910TIP3   OH242220   2.661   1.281   1.952 -0.5792 -0.0996  0.1354
 6910TIP3    H142221   2.574   1.251   1.925 -0.6879  1.3660 -1.3468
 6910TIP3    H242222   2.721   1.212   1.922 -1.1806 -0.9692  0.8905
 6911TIP3   OH242223   4.792   3.603  17.173  0.0163 -0.2703  0.5230
 6911TIP3    H142224   4.790   3.627  17.081 -1.5073  0.7609  0.8015
 6911TIP3    H242225   4.711   3.554  17.188  1.0744 -1.9814  0.9415
 6912TIP3   OH242226   2.338   5.171   4.669  0.0652 -0.0183 -0.0074
 6912TIP3    H142227   2.273   5.236   4.642  1.7342  0.9140 -2.0206
 6912TIP3    H242228   2.291   5.088   4.668 -1.5533  0.8623  0.4306
 6913TIP3   OH242229   1.067   6.492  17.060 -0.3475  0.2068  0.0432
 6913TIP3    H142230   1.154   6.452  17.060  0.2028  1.3223 -1.1007
 6913TIP3    H242231   1.026   6.459  16.980 -0.0220  1.5711 -0.7223
 6914TIP3   OH242232   3.792   4.474  15.048  0.1434  0.5570 -0.0771
 6914TIP3    H142233   3.869   4.430  15.084 -0.3463 -0.3884 -0.1814
 6914TIP3    H242234   3.759   4.415  14.981  1.4992  2.6050 -2.7722
 6915TIP3   OH242235   5.508   1.984   4.019  0.1423  0.2920 -0.5378
 6915TIP3    H142236   5.476   1.961   3.932  0.6764 -2.2939 -0.1294
 6915TIP3    H242237   5.429   2.000   4.070 -0.2888 -0.6641 -0.8796
 6916TIP3   OH242238   0.653   6.041   0.595 -0.0748 -0.4141  0.4367
 6916TIP3    H142239   0.664   6.051   0.500 -3.7509 -1.0032 -0.2056
 6916TIP3    H242240   0.694   5.957   0.615  3.2815  0.9573  0.0406
 6917TIP3   OH242241   3.036   5.848   5.948  0.0326  0.0858  0.2576
 6917TIP3    H142242   3.081   5.870   6.029  1.2021 -0.0502 -0.3320
 6917TIP3    H242243   2.964   5.790   5.975  0.3880  0.0636  1.1862
 6918TIP3   OH242244   1.407   0.689   3.152  0.1167  0.2449  0.4038
 6918TIP3    H142245   1.474   0.622   3.137  1.6247  1.9792 -1.0226
 6918TIP3    H242246   1.445   0.745   3.220 -0.7622  0.1577  0.9792
 6919TIP3   OH242247   1.137   2.022  16.873 -0.1571  0.0039  0.1103
 6919TIP3    H142248   1.059   2.078  16.872 -0.9679 -1.0922  0.4773
 6919TIP3    H242249   1.177   2.038  16.958 -1.5457 -1.4888  1.0905
 6920TIP3   OH242250   5.912   1.459  16.136  0.1874 -0.7681  0.2300
 6920TIP3    H142251   5.859   1.401  16.081 -0.9457 -0.3904  0.8871
 6920TIP3    H242252   5.849   1.517  16.178  1.2015  0.2307  0.4383
 6921TIP3   OH242253   0.027   0.111   5.741  0.0115  0.1205  0.0266
 6921TIP3    H142254   0.047   0.177   5.674  1.6292 -1.0040 -0.6642
 6921TIP3    H242255  -0.052   0.068   5.709  0.5266 -0.1222 -0.9843
 6922TIP3   OH242256   2.327   0.296  14.716 -0.5728 -0.1505 -0.5437
 6922TIP3    H142257   2.278   0.220  14.745  0.6169 -1.4650 -1.7757
 6922TIP3    H242258   2.308   0.365  14.780 -1.9961 -1.3566  0.3652
 6923TIP3   OH242259   0.492   2.566   1.381 -0.1725 -0.2047  0.1610
 6923TIP3    H142260   0.406   2.559   1.423  0.2529 -1.0564  0.9299
 6923TIP3    H242261   0.482   2.516   1.299 -0.7659  0.7746 -0.3797
 6924TIP3   OH242262   2.941   5.793   2.012  0.2461 -0.3069  0.2523
 6924TIP3    H142263   3.017   5.743   2.041 -0.2079 -1.0175  0.2397
 6924TIP3    H242264   2.969   5.884   2.017  0.6222 -0.4723  1.6215
 6925TIP3   OH242265   5.499   3.048   4.170 -0.1827 -0.2760 -0.1286
 6925TIP3    H142266   5.540   2.984   4.227  0.6927 -0.9025 -1.4065
 6925TIP3    H242267   5.572   3.100   4.136 -0.8408  1.1367  0.5615
 6926TIP3   OH242268   5.201   3.243   3.057 -0.4802  0.2819 -0.6320
 6926TIP3    H142269   5.264   3.173   3.075  0.1816  1.3735  1.4961
 6926TIP3    H242270   5.253   3.315   3.022 -0.6789  0.8629  0.2550
 6927TIP3   OH242271   2.771   3.343  12.291 -0.6002  0.6129 -0.1647
 6927TIP3    H142272   2.827   3.397  12.236 -0.2355  1.0802  0.6621
 6927TIP3    H242273   2.826   3.268  12.315 -0.3706  1.0030  0.5342
 6928TIP3   OH242274   6.427   1.201  13.348  0.4069 -0.1359 -0.5593
 6928TIP3    H142275   6.446   1.211  13.255  1.4607 -0.1319 -0.3560
 6928TIP3    H242276   6.503   1.239  13.392  1.2849 -2.6378  0.2724
 6929TIP3   OH242277   1.275   1.444   1.155  0.1432 -0.1114  0.2963
 6929TIP3    H142278   1.228   1.404   1.229 -0.2010  1.2623  0.8666
 6929TIP3    H242279   1.368   1.434   1.178  0.1373 -1.9032 -0.3241
 6930TIP3   OH242280   5.661   6.193  12.588 -0.0284  0.4436  0.2266
 6930TIP3    H142281   5.713   6.142  12.526 -1.2205 -2.2753  1.3107
 6930TIP3    H242282   5.697   6.282  12.582  2.2881 -0.5085 -1.6430
 6931TIP3   OH242283   1.964   4.984   1.119  0.0154 -0.0873 -0.1688
 6931TIP3    H142284   1.897   5.002   1.185 -0.1957  1.7498 -0.8423
 6931TIP3    H242285   2.047   4.986   1.168 -0.0530  2.1409 -0.0253
 6932TIP3   OH242286   1.891   2.065   6.307  1.0572  0.3245  0.0952
 6932TIP3    H142287   1.816   2.088   6.363  1.7226 -1.8819  2.0473
 6932TIP3    H242288   1.852   2.021   6.232  0.2998  0.1490  0.5750
 6933TIP3   OH242289   5.477   3.229   1.648 -0.2621 -0.2758 -0.7049
 6933TIP3    H142290   5.439   3.213   1.735  0.0751 -2.3578 -0.8774
 6933TIP3    H242291   5.406   3.209   1.587 -0.3515  0.7025 -0.9289
 6934TIP3   OH242292   4.636   2.260  11.463 -1.4049  0.3687 -0.3480
 6934TIP3    H142293   4.570   2.236  11.398 -1.8556  1.0051 -0.1266
 6934TIP3    H242294   4.717   2.221  11.430 -1.4297  1.4729 -1.7965
 6935TIP3   OH242295   4.441   2.411  16.877  0.4361 -0.2827  0.2267
 6935TIP3    H142296   4.502   2.420  16.951  1.2750  1.9715 -0.6693
 6935TIP3    H242297   4.411   2.500  16.858 -1.7520 -1.1138 -0.5635
 6936TIP3   OH242298   2.577   6.141  16.575 -0.2835 -0.8730  0.1070
 6936TIP3    H142299   2.526   6.218  16.548  0.9774 -0.2633 -0.6052
 6936TIP3    H242300   2.530   6.107  16.651  0.2588  1.8427  1.7771
 6937TIP3   OH242301   6.397   3.390  16.520  0.3881  0.4073 -0.1729
 6937TIP3    H142302   6.460   3.334  16.565 -0.0412 -0.1329 -0.2355
 6937TIP3    H242303   6.337   3.420  16.588  0.5620  0.7296 -0.1550
 6938TIP3   OH242304   0.795   4.866   0.857 -0.3106 -0.6534  0.4715
 6938TIP3    H142305   0.796   4.881   0.952  0.1248  0.2801  0.3318
 6938TIP3    H242306   0.886   4.876   0.831 -0.5565 -0.0408 -0.1725
 6939TIP3   OH242307   6.457   5.142   6.453 -0.1541 -0.2401 -0.1225
 6939TIP3    H142308   6.447   5.176   6.542  0.6597  1.8298 -0.7641
 6939TIP3    H242309   6.544   5.102   6.452  0.8619  1.8134 -0.5328
 6940TIP3   OH242310   2.364   0.114  13.350 -0.2511 -0.1306 -0.3287
 6940TIP3    H142311   2.437   0.133  13.409 -0.9052  1.4002  0.0320
 6940TIP3    H242312   2.299   0.071  13.406  0.6765 -2.3463 -0.8457
 6941TIP3   OH242313   3.141   3.037   2.312  0.0594  0.8802 -0.4948
 6941TIP3    H142314   3.045   3.038   2.313 -0.1086 -2.5070  0.9258
 6941TIP3    H242315   3.167   3.082   2.392 -0.3164  1.7118 -0.8291
 6942TIP3   OH242316   2.534   2.083   2.625 -0.3879  0.0678 -0.0150
 6942TIP3    H142317   2.503   2.166   2.587 -0.5223  0.2663  0.5124
 6942TIP3    H242318   2.476   2.017   2.588 -1.5402  0.4428  1.0257
 6943TIP3   OH242319   6.630   3.794  14.430  0.1268 -0.4241  0.5146
 6943TIP3    H142320   6.669   3.848  14.499  1.3237 -0.0593 -0.4156
 6943TIP3    H242321   6.536   3.810  14.438  0.3171  0.3492  1.4465
 6944TIP3   OH242322   3.883   0.635   1.900 -0.1681  0.1536 -0.0221
 6944TIP3    H142323   3.941   0.565   1.928  0.3375  1.6871  3.2368
 6944TIP3    H242324   3.938   0.692   1.846  0.9199  0.6327  1.5253
 6945TIP3   OH242325   0.698   3.874   1.259  0.3910  0.4582  0.0153
 6945TIP3    H142326   0.746   3.907   1.182 -0.7940  0.9423 -0.5457
 6945TIP3    H242327   0.640   3.807   1.224  0.9500 -0.4223  0.7534
 6946TIP3   OH242328   1.949   3.354   0.877 -0.1551  0.1630 -0.5351
 6946TIP3    H142329   1.949   3.436   0.928 -1.0061 -0.5147  0.5976
 6946TIP3    H242330   1.870   3.360   0.824 -1.8650 -1.1338  1.6750
 6947TIP3   OH242331   0.022   2.774  13.742  0.4582  0.0266 -0.5123
 6947TIP3    H142332   0.093   2.837  13.756  1.3182 -1.2032  1.0561
 6947TIP3    H242333   0.067   2.693  13.719 -0.4632 -0.6912  0.1585
 6948TIP3   OH242334   1.115   3.782   2.404  0.2496  0.1982  0.4109
 6948TIP3    H142335   1.039   3.756   2.353  0.5548  1.4522 -0.7334
 6948TIP3    H242336   1.190   3.757   2.350  0.6314 -0.1191  1.0755
 6949TIP3   OH242337   5.003   5.144   3.342 -0.5650  0.6360  0.1828
 6949TIP3    H142338   5.047   5.197   3.276  0.3677 -1.3351 -0.8705
 6949TIP3    H242339   5.008   5.196   3.422  0.9085  1.8338 -0.6348
 6950TIP3   OH242340   1.313   6.502  11.946 -0.1872 -0.6186  0.0920
 6950TIP3    H142341   1.384   6.539  11.999 -1.3001 -1.3192  2.1555
 6950TIP3    H242342   1.345   6.415  11.922 -0.4635 -1.0555  1.2826
 6951TIP3   OH242343   0.393   1.787  12.772 -0.6971  0.0029 -0.7656
 6951TIP3    H142344   0.358   1.858  12.825  1.0407  2.8452 -3.1167
 6951TIP3    H242345   0.316   1.744  12.736 -1.8088  0.9463  0.3962
 6952TIP3   OH242346   2.814   1.403  16.632  0.5954 -0.2264 -0.1974
 6952TIP3    H142347   2.749   1.334  16.648  1.5901 -1.1950 -0.2037
 6952TIP3    H242348   2.762   1.478  16.603 -0.3736 -1.6198 -2.3714
 6953TIP3   OH242349   4.546   0.160  15.936  0.1225  0.3482 -0.2120
 6953TIP3    H142350   4.452   0.158  15.920 -0.0988 -1.4293  1.0026
 6953TIP3    H242351   4.583   0.096  15.875  0.5291  0.8270 -0.4815
 6954TIP3   OH242352   6.725   0.975   4.670 -0.2829  0.4893 -0.5100
 6954TIP3    H142353   6.700   1.040   4.736 -1.9330 -0.5414 -0.0550
 6954TIP3    H242354   6.802   0.932   4.707 -1.1634 -0.0599  0.8028
 6955TIP3   OH242355   3.251   6.224  15.908 -0.0628  0.1802 -0.0863
 6955TIP3    H142356   3.258   6.271  15.991 -0.3708 -0.8191  0.5346
 6955TIP3    H242357   3.168   6.253  15.871  0.6603  1.5621 -0.6633
 6956TIP3   OH242358   3.173   2.768   3.361  0.0933 -1.3423 -0.0239
 6956TIP3    H142359   3.237   2.723   3.415  1.6822 -0.6599 -1.2769
 6956TIP3    H242360   3.220   2.842   3.323 -1.6132 -0.4281 -0.4760
 6957TIP3   OH242361   0.679   0.101   6.548  0.0250  0.1980 -0.0126
 6957TIP3    H142362   0.743   0.037   6.577  0.1023 -0.1237 -0.8648
 6957TIP3    H242363   0.610   0.050   6.504 -0.8066  0.5408  0.8518
 6958TIP3   OH242364   5.287   4.134  16.738 -0.5769  0.0399  0.5708
 6958TIP3    H142365   5.349   4.128  16.665 -1.0519 -0.4627  0.2048
 6958TIP3    H242366   5.265   4.043  16.758 -2.2006  0.2410 -0.1618
 6959TIP3   OH242367   3.996   5.066  12.996 -0.7474  0.2533  0.1776
 6959TIP3    H142368   3.967   4.975  12.995  1.0311 -0.3991  1.5275
 6959TIP3    H242369   4.077   5.065  13.048 -0.5536  2.5707  0.0475
 6960TIP3   OH242370   1.715   5.651  11.486 -0.1345  0.1934  0.2929
 6960TIP3    H142371   1.688   5.618  11.400  2.7606  1.6717 -1.2993
 6960TIP3    H242372   1.784   5.591  11.514  1.1732  1.5381  0.0323
 6961TIP3   OH242373   2.783   4.388   3.472  0.2364 -0.3047  0.2065
 6961TIP3    H142374   2.834   4.410   3.394 -1.2041 -1.5545 -1.1794
 6961TIP3    H242375   2.708   4.448   3.468  0.6392  0.3022  1.2332
 6962TIP3   OH242376   4.773   3.963  12.003 -0.1199  0.0915 -0.0516
 6962TIP3    H142377   4.733   3.882  11.971  2.0665 -1.1976  0.3242
 6962TIP3    H242378   4.791   4.013  11.924 -3.2626  1.2208 -0.2123
 6963TIP3   OH242379   2.834   3.680  13.301 -0.1157 -0.6691  0.9176
 6963TIP3    H142380   2.857   3.610  13.240 -0.5614  1.0485 -1.3293
 6963TIP3    H242381   2.756   3.720  13.262  1.4323  2.5194  0.8660
 6964TIP3   OH242382   4.301   3.276  13.578 -0.2615 -0.4086  0.0840
 6964TIP3    H142383   4.299   3.367  13.608 -0.0326 -0.3778  0.0052
 6964TIP3    H242384   4.341   3.280  13.492 -2.1215 -0.3378 -0.8301
 6965TIP3   OH242385   1.148   5.621  13.744  0.0762 -0.5094 -0.1595
 6965TIP3    H142386   1.081   5.637  13.677  1.3205  0.8913 -1.1439
 6965TIP3    H242387   1.153   5.704  13.793 -2.2173 -2.0892  3.1174
 6966TIP3   OH242388   1.647   0.488   3.132  0.2669  0.4799  0.2478
 6966TIP3    H142389   1.677   0.483   3.041 -0.0064  2.6877 -0.0193
 6966TIP3    H242390   1.614   0.401   3.152  0.1093  0.0161 -1.8621
 6967TIP3   OH242391   4.847   1.678  14.293  0.0342 -0.0863 -0.3736
 6967TIP3    H142392   4.762   1.721  14.282 -0.7431 -1.4741 -0.1024
 6967TIP3    H242393   4.886   1.721  14.369  0.2509  1.5587 -1.3646
 6968TIP3   OH242394   4.517   0.436   6.010 -0.0659  0.8815 -0.2214
 6968TIP3    H142395   4.593   0.389   5.976 -0.0246  0.8681 -0.1125
 6968TIP3    H242396   4.553   0.492   6.079 -0.1886  0.7116 -0.0172
 6969TIP3   OH242397   6.349   1.954   5.472 -0.0016 -0.3013 -0.3220
 6969TIP3    H142398   6.375   1.976   5.382  2.5412  0.0620  0.4197
 6969TIP3    H242399   6.254   1.944   5.468  0.1911 -2.2259 -3.4483
 6970TIP3   OH242400   6.033   2.874   3.243  0.4262 -0.2087 -0.4147
 6970TIP3    H142401   6.097   2.939   3.275  1.1547  0.0922 -2.3382
 6970TIP3    H242402   5.950   2.901   3.282  0.5863  2.2952 -1.6049
 6971TIP3   OH242403   0.562   2.351   3.620 -0.3935 -0.0550 -0.0055
 6971TIP3    H142404   0.616   2.274   3.605  1.1850  0.7662  1.0582
 6971TIP3    H242405   0.558   2.359   3.716  0.1633  1.6033 -0.0888
 6972TIP3   OH242406   3.059   3.840   4.359 -0.3622  0.0604  0.2138
 6972TIP3    H142407   2.994   3.883   4.414 -0.7523  0.6193 -0.6622
 6972TIP3    H242408   3.056   3.888   4.276 -0.1951 -1.1148 -0.4962
 6973TIP3   OH242409   2.771   2.142  15.178 -0.0000  0.8435 -0.0877
 6973TIP3    H142410   2.771   2.237  15.185  0.3546  0.8484 -0.1191
 6973TIP3    H242411   2.750   2.111  15.266  0.8603  0.9460  0.1690
 6974TIP3   OH242412   1.566   5.251  13.396  0.5014  0.2222  0.4768
 6974TIP3    H142413   1.500   5.183  13.411  0.9579  0.1508  2.4770
 6974TIP3    H242414   1.647   5.202  13.382  0.5030  0.3380  0.0773
 6975TIP3   OH242415   1.845   2.449  12.892  0.0193  0.0055  0.2060
 6975TIP3    H142416   1.787   2.505  12.840  0.3513 -0.4431 -0.6722
 6975TIP3    H242417   1.847   2.366  12.844  0.6278 -0.3018  0.7467
 6976TIP3   OH242418   5.267   2.911  13.174 -0.1162 -0.0788 -0.8555
 6976TIP3    H142419   5.224   2.933  13.092 -3.0776 -1.0550  0.3208
 6976TIP3    H242420   5.250   2.818  13.187 -0.1419  0.1440  1.0844
 6977TIP3   OH242421   2.648   0.859  16.247 -0.7886 -0.0589  0.1256
 6977TIP3    H142422   2.705   0.826  16.316  2.0000  1.3000 -1.3457
 6977TIP3    H242423   2.615   0.942  16.282 -0.3987  0.0191  0.3155
 6978TIP3   OH242424   3.552   0.226  11.616 -0.1350 -0.3344  0.2776
 6978TIP3    H142425   3.488   0.240  11.686  0.6601 -1.3273  1.2358
 6978TIP3    H242426   3.506   0.171  11.552 -1.5757  2.2202 -1.0880
 6979TIP3   OH242427   5.928   1.477   2.383 -0.0412 -0.8186 -0.9440
 6979TIP3    H142428   5.859   1.478   2.449 -0.0801 -1.8522 -0.9580
 6979TIP3    H242429   5.976   1.559   2.397 -1.3255 -0.0270 -1.0098
 6980TIP3   OH242430   4.877   5.448  14.146  0.2193  0.3538 -0.8808
 6980TIP3    H142431   4.960   5.430  14.103 -0.8184  0.4340 -3.0850
 6980TIP3    H242432   4.855   5.537  14.119 -0.1128  0.7253  0.5294
 6981TIP3   OH242433   4.360   3.108  11.619  0.1811 -0.3369 -0.1490
 6981TIP3    H142434   4.293   3.052  11.659  0.9194 -1.2169 -0.1153
 6981TIP3    H242435   4.313   3.187  11.595 -1.2635 -1.5757 -1.6711
 6982TIP3   OH242436   6.771   5.962   0.197 -0.2057  0.0648  0.4032
 6982TIP3    H142437   6.790   6.038   0.143 -2.8282 -0.0333 -0.8308
 6982TIP3    H242438   6.827   5.972   0.274 -0.3186  3.1449  0.2128
 6983TIP3   OH242439   4.684   6.067   1.183 -0.4465  0.2889  0.0179
 6983TIP3    H142440   4.619   6.047   1.250 -1.9851 -0.0087 -1.4929
 6983TIP3    H242441   4.662   6.009   1.110  1.6432  0.0636 -0.4888
 6984TIP3   OH242442   3.390   3.126   5.316  0.0814 -0.0962 -0.7524
 6984TIP3    H142443   3.403   3.114   5.410 -0.6256 -0.1785 -0.6646
 6984TIP3    H242444   3.389   3.222   5.305 -0.0562 -0.0854 -0.6469
 6985TIP3   OH242445   0.066   5.947   2.556  0.2487  0.6908  0.5983
 6985TIP3    H142446   0.079   5.858   2.524  1.2632  0.4034  1.7098
 6985TIP3    H242447  -0.016   5.976   2.517  0.4769 -0.3219 -0.6654
 6986TIP3   OH242448   1.993   3.671   4.733  0.6448 -0.0494  0.4228
 6986TIP3    H142449   1.962   3.723   4.807  1.4567  1.0351  0.0280
 6986TIP3    H242450   2.021   3.588   4.772  1.7417  0.7736  1.4681
 6987TIP3   OH242451   2.731   1.470  16.244  0.1628 -0.7413 -0.5123
 6987TIP3    H142452   2.795   1.400  16.229 -1.2242 -1.7848 -1.8974
 6987TIP3    H242453   2.665   1.431  16.302  0.4312  0.1213  0.3985
 6988TIP3   OH242454   0.087   2.150  14.035 -0.1834 -0.0037 -0.0747
 6988TIP3    H142455   0.053   2.219  14.092  2.7219  0.2101  1.5775
 6988TIP3    H242456   0.141   2.197  13.971  1.3740 -0.6249  0.7333
 6989TIP3   OH242457   0.321   1.944   2.123 -0.7568  0.0796 -0.3755
 6989TIP3    H142458   0.368   2.027   2.121 -1.1463  0.4168  1.8766
 6989TIP3    H242459   0.250   1.954   2.059  0.9288  0.3243 -2.2989
 6990TIP3   OH242460   6.690   6.706  17.040 -0.2358 -0.2824  0.3568
 6990TIP3    H142461   6.731   6.644  16.979 -0.9807 -0.0417 -0.4121
 6990TIP3    H242462   6.677   6.785  16.988  2.5010  1.2848  1.8306
 6991TIP3   OH242463   2.452   3.074  17.041 -0.7315 -0.4413 -0.3363
 6991TIP3    H142464   2.449   3.148  16.979 -1.9699  0.4445  0.7404
 6991TIP3    H242465   2.375   3.086  17.097 -1.2324 -2.8402 -0.4237
 6992TIP3   OH242466   6.157   4.065  12.978  0.5445  0.0124 -0.3566
 6992TIP3    H142467   6.193   4.112  13.053  2.5789 -0.1880 -1.1473
 6992TIP3    H242468   6.065   4.050  13.001  0.9659  0.4355  1.8302
 6993TIP3   OH242469   5.439   0.191   2.168  0.0501 -0.4316 -0.3632
 6993TIP3    H142470   5.452   0.176   2.074  2.3748  2.0621 -0.5636
 6993TIP3    H242471   5.377   0.264   2.172  1.5117  0.8517 -0.1139
 6994TIP3   OH242472   6.155   3.802   2.939  0.2755 -0.0796  0.3105
 6994TIP3    H142473   6.076   3.750   2.954  0.9923 -1.4845 -0.6334
 6994TIP3    H242474   6.177   3.836   3.026 -1.8491  1.1266  0.4545
 6995TIP3   OH242475   1.972   3.500  12.037  0.5861 -0.3235 -0.5177
 6995TIP3    H142476   1.895   3.446  12.019  1.3039 -1.1773 -1.0720
 6995TIP3    H242477   1.952   3.542  12.121 -1.1240  0.6621 -1.3569
 6996TIP3   OH242478   1.489   3.886   1.954 -0.0839 -0.0963 -0.2693
 6996TIP3    H142479   1.456   3.940   1.883  0.4866  1.3526  0.5311
 6996TIP3    H242480   1.457   3.798   1.934  0.2727  0.2159 -2.4177
 6997TIP3   OH242481   4.360   4.617  16.643  0.5767 -0.3085 -0.8118
 6997TIP3    H142482   4.392   4.706  16.624 -1.0976  0.0283 -2.3396
 6997TIP3    H242483   4.355   4.614  16.739  0.9364  1.1407 -0.7132
 6998TIP3   OH242484   4.089   4.723  12.212 -0.3370  0.2827  0.4864
 6998TIP3    H142485   4.137   4.675  12.279  0.0168 -0.5485 -0.3332
 6998TIP3    H242486   4.086   4.813  12.244  1.3245  0.2464  0.8080
 6999TIP3   OH242487   5.950   5.028  13.441  0.3084  0.3839  0.1105
 6999TIP3    H142488   5.980   4.987  13.522 -1.0177  0.5657  0.7133
 6999TIP3    H242489   5.888   5.095  13.469 -2.9278 -1.8519 -1.1699
 7000TIP3   OH242490   0.485   2.753  17.213 -0.0543 -0.4819 -0.3061
 7000TIP3    H142491   0.412   2.806  17.244  0.6228 -0.7760  1.9632
 7000TIP3    H242492   0.523   2.805  17.141  0.6338  2.2372  1.8595
 7001TIP3   OH242493   5.968   6.175   6.392 -0.0202 -0.0956 -0.0648
 7001TIP3    H142494   5.876   6.200   6.397 -0.0734  0.1306 -1.6068
 7001TIP3    H242495   6.006   6.236   6.328  1.0586 -0.5719  0.0959
 7002TIP3   OH242496   6.233   3.070   2.358 -0.0168 -0.3948 -0.0127
 7002TIP3    H142497   6.175   3.010   2.312  0.2276  1.0413 -2.3711
 7002TIP3    H242498   6.321   3.038   2.339  0.1472  1.0597 -1.9376
 7003TIP3   OH242499   2.583   5.249   1.031  0.1516 -0.3909  0.1325
 7003TIP3    H142500   2.679   5.256   1.032  0.2148 -0.9004  1.7609
 7003TIP3    H242501   2.553   5.320   1.087 -0.4399 -0.1743 -0.4476
 7004TIP3   OH242502   5.732   0.404  13.716 -0.3068  0.6751 -0.5285
 7004TIP3    H142503   5.752   0.356  13.635 -1.3671  0.7503 -0.8527
 7004TIP3    H242504   5.686   0.339  13.770 -2.0189  1.3627 -1.0881
 7005TIP3   OH242505   1.360   1.314  16.485 -0.1515 -0.3359 -0.3554
 7005TIP3    H142506   1.396   1.323  16.573  1.2748  1.4308 -1.0454
 7005TIP3    H242507   1.266   1.303  16.498  0.3671 -4.2314  1.5056
 7006TIP3   OH242508   6.626   0.664   3.780 -0.2556 -0.8939  0.2533
 7006TIP3    H142509   6.614   0.654   3.685  1.0753 -1.0321  0.0762
 7006TIP3    H242510   6.721   0.661   3.792 -0.3656 -0.0757  1.5059
 7007TIP3   OH242511   2.218   3.915  13.801 -0.4672 -0.3592  0.0322
 7007TIP3    H142512   2.295   3.964  13.830  0.9373 -1.3555 -1.8104
 7007TIP3    H242513   2.187   3.963  13.724 -0.7603 -0.8099 -0.1332
 7008TIP3   OH242514   5.988   2.244  16.149  0.3917  0.1099  0.2092
 7008TIP3    H142515   5.934   2.262  16.226 -1.0075 -2.7229  0.0376
 7008TIP3    H242516   5.930   2.261  16.074  0.3813 -1.0026 -0.0502
 7009TIP3   OH242517   2.226   1.694   0.555 -0.1829 -0.5915  0.0065
 7009TIP3    H142518   2.270   1.611   0.573 -1.1324 -1.2014 -0.3998
 7009TIP3    H242519   2.295   1.750   0.519  0.0536 -1.9255 -1.8026
 7010TIP3   OH242520   4.466   2.726  16.610  0.1256 -0.4428  0.4511
 7010TIP3    H142521   4.401   2.681  16.556 -0.5202  1.5597 -0.5669
 7010TIP3    H242522   4.431   2.723  16.699 -0.9176 -0.1736  0.0582
 7011TIP3   OH242523   3.125   4.781  15.386  0.1786 -0.0268  0.0454
 7011TIP3    H142524   3.218   4.802  15.384  0.5957 -1.7026  0.4896
 7011TIP3    H242525   3.081   4.862  15.358  1.7353  0.8746  0.1301
 7012TIP3   OH242526   2.227   1.260   4.282  0.6399 -0.1940  0.3605
 7012TIP3    H142527   2.214   1.196   4.352  1.6271 -1.7073 -0.7951
 7012TIP3    H242528   2.250   1.341   4.328  1.7337 -1.2556  1.7780
 7013TIP3   OH242529   6.154   1.393   4.965  0.4338 -0.0822  0.0258
 7013TIP3    H142530   6.242   1.427   4.984  0.3056  0.4858 -0.3771
 7013TIP3    H242531   6.095   1.460   4.999  0.1461 -0.5562  0.4718
 7014TIP3   OH242532   4.087   0.865  13.690  0.3941 -0.3662  0.3828
 7014TIP3    H142533   4.088   0.904  13.777 -0.3607 -1.5896  0.9691
 7014TIP3    H242534   4.128   0.930  13.634 -0.0324  0.8847  1.4714
 7015TIP3   OH242535   3.836   3.802   4.791 -0.0975  0.5404  0.0198
 7015TIP3    H142536   3.858   3.738   4.723 -1.6634 -0.1558  0.1292
 7015TIP3    H242537   3.888   3.774   4.867 -2.0609 -1.7481  0.6261
 7016TIP3   OH242538   4.402   6.783   2.543  0.0315 -0.2935 -0.6453
 7016TIP3    H142539   4.490   6.768   2.508  0.7792 -1.2124  1.4975
 7016TIP3    H242540   4.372   6.697   2.573 -2.3510 -0.3560 -2.8164
 7017TIP3   OH242541   4.613   6.287  13.894 -0.0761  0.1853 -0.5104
 7017TIP3    H142542   4.569   6.210  13.929  2.9604 -1.9383 -0.9219
 7017TIP3    H242543   4.543   6.347  13.870 -2.6948 -2.9831 -1.4298
 7018TIP3   OH242544   1.940   5.170   5.799  0.1335 -0.6130 -0.5198
 7018TIP3    H142545   1.868   5.142   5.855  0.3400  1.7158  1.0583
 7018TIP3    H242546   1.915   5.257   5.769  1.3694 -0.6181 -1.6586
 7019TIP3   OH242547   1.048   4.203   3.965  0.1032 -0.2106  0.0097
 7019TIP3    H142548   1.045   4.299   3.966  0.1373 -0.1973 -0.7304
 7019TIP3    H242549   1.049   4.180   3.872 -1.5571 -0.9685  0.1271
 7020TIP3   OH242550   1.034   1.684  11.965  1.0647 -0.4380  0.5849
 7020TIP3    H142551   1.053   1.754  11.902  0.2659  0.5313  1.3844
 7020TIP3    H242552   1.113   1.679  12.019  0.3936  1.2968  1.8113
 7021TIP3   OH242553   3.579   1.261   2.859 -0.1448 -0.3270 -0.3308
 7021TIP3    H142554   3.647   1.322   2.829 -0.3720  0.2168  0.2413
 7021TIP3    H242555   3.507   1.273   2.797  0.0755 -0.5135 -0.6237
 7022TIP3   OH242556   4.457   3.737  17.162  0.6286 -0.0038  0.8173
 7022TIP3    H142557   4.522   3.807  17.171 -0.2400  0.7198  1.7899
 7022TIP3    H242558   4.388   3.761  17.224 -1.3126  0.0814 -1.2529
 7023TIP3   OH242559   1.219   3.538  11.556 -0.3899  0.3518 -0.4756
 7023TIP3    H142560   1.180   3.617  11.593  1.5416  0.5811  1.2615
 7023TIP3    H242561   1.297   3.570  11.510  0.0824 -0.4779 -0.2718
 7024TIP3   OH242562   5.338   1.548   5.511  0.4980 -0.0399 -0.1031
 7024TIP3    H142563   5.418   1.512   5.473 -0.8920 -2.5300 -0.8633
 7024TIP3    H242564   5.296   1.593   5.437  0.6019  0.2003 -0.0160
 7025TIP3   OH242565   6.224   3.513   2.658 -0.2705  0.1201 -0.3996
 7025TIP3    H142566   6.145   3.550   2.618  0.4218  0.8641 -1.1308
 7025TIP3    H242567   6.256   3.451   2.592  0.3936  0.7004 -0.6336
 7026TIP3   OH242568   5.959   3.721  15.468 -0.0690  1.0270  0.2759
 7026TIP3    H142569   6.041   3.671  15.469 -0.7457 -0.1579 -0.3139
 7026TIP3    H242570   5.936   3.727  15.375 -0.1345  2.2532  0.3596
 7027TIP3   OH242571   4.152   5.469   4.710 -0.2797  0.1196  0.9211
 7027TIP3    H142572   4.235   5.434   4.741 -0.2540  0.4278  1.2105
 7027TIP3    H242573   4.101   5.483   4.790 -1.2181 -1.5748  0.6464
 7028TIP3   OH242574   0.887   6.397  11.849 -0.2704 -0.0329  0.0378
 7028TIP3    H142575   0.932   6.470  11.890 -0.3378  1.9631 -3.0618
 7028TIP3    H242576   0.954   6.331  11.836  1.3584  1.8776 -2.2163
 7029TIP3   OH242577   6.450   3.537   2.393 -0.0307  0.3328  0.6752
 7029TIP3    H142578   6.364   3.498   2.411 -0.5288  1.1765  0.2072
 7029TIP3    H242579   6.491   3.545   2.479 -0.8027  0.7464  1.0196
 7030TIP3   OH242580   2.320   4.166  16.723  0.2377 -0.1592  0.0554
 7030TIP3    H142581   2.410   4.178  16.756  1.0637  0.3919 -2.2405
 7030TIP3    H242582   2.289   4.087  16.767  2.3016 -1.0605 -0.0001
 7031TIP3   OH242583   1.307   0.022   2.316  0.0679 -0.0955 -0.2340
 7031TIP3    H142584   1.213   0.005   2.306  0.2652 -1.7463  0.5690
 7031TIP3    H242585   1.311   0.094   2.379 -0.6144 -1.2279  1.1418
 7032TIP3   OH242586   3.952   1.590  14.032 -0.2917 -0.2275  0.2864
 7032TIP3    H142587   3.902   1.590  14.114  1.0765  1.5112  1.1913
 7032TIP3    H242588   3.887   1.610  13.964 -1.0029  1.1757  1.3245
 7033TIP3   OH242589   3.321   4.920   4.668  0.0465 -0.0318 -0.4425
 7033TIP3    H142590   3.327   4.840   4.615  1.6026 -0.3171  0.0956
 7033TIP3    H242591   3.330   4.991   4.604  0.1596 -0.3358 -0.7684
 7034TIP3   OH242592   1.238   1.823   2.365  0.0216  0.1297  0.1094
 7034TIP3    H142593   1.317   1.837   2.416 -0.4625  0.5357  0.7654
 7034TIP3    H242594   1.267   1.775   2.288  1.1589  1.6184 -0.4298
 7035TIP3   OH242595   2.564   3.906   2.366  0.2655 -0.4157  0.1600
 7035TIP3    H142596   2.474   3.896   2.398 -0.1974  1.5648 -0.3586
 7035TIP3    H242597   2.579   3.828   2.313 -1.4507 -0.4406 -0.3684
 7036TIP3   OH242598   2.849   1.760  12.106 -0.6165 -0.4549  0.6019
 7036TIP3    H142599   2.848   1.846  12.149  0.6807 -0.3899  0.5375
 7036TIP3    H242600   2.900   1.774  12.026 -2.1357 -0.8140 -0.4801
 7037TIP3   OH242601   0.860   2.153   6.078 -0.7660 -0.0433  0.1320
 7037TIP3    H142602   0.854   2.086   6.010  0.4423 -0.1372  0.0856
 7037TIP3    H242603   0.769   2.173   6.100 -1.2228  0.4432 -1.9423
 7038TIP3   OH242604   6.766   5.129  13.458  0.2822  1.0257  0.2484
 7038TIP3    H142605   6.729   5.141  13.546  0.2458  0.3583  0.3292
 7038TIP3    H242606   6.690   5.133  13.399  0.3066  1.4733  0.2397
 7039TIP3   OH242607   3.332   6.468   5.574  0.4595 -0.1184 -0.6921
 7039TIP3    H142608   3.284   6.544   5.607  1.2388 -0.7227  2.1665
 7039TIP3    H242609   3.269   6.397   5.575  0.2481  0.0526 -1.4282
 7040TIP3   OH242610   3.857   5.988   0.391 -0.0182  0.2064  0.2574
 7040TIP3    H142611   3.847   6.071   0.439  0.4058  1.1392 -1.1911
 7040TIP3    H242612   3.785   5.933   0.422  0.9065  0.2823  2.8252
 7041TIP3   OH242613   1.600   4.875   2.838  0.1078  0.4182  0.3497
 7041TIP3    H142614   1.564   4.887   2.925 -0.7175 -0.7208  0.1891
 7041TIP3    H242615   1.527   4.840   2.787  1.5416 -2.4744  0.1429
 7042TIP3   OH242616   5.525   5.267  11.994 -0.8411  0.1149  0.2827
 7042TIP3    H142617   5.477   5.328  12.049 -0.8183  0.5504 -0.1741
 7042TIP3    H242618   5.596   5.234  12.050 -1.8821 -0.8169  1.0811
 7043TIP3   OH242619   1.581   4.505   0.280 -0.1684  0.2800  0.0642
 7043TIP3    H142620   1.630   4.479   0.358  0.5243  1.6181  0.0950
 7043TIP3    H242621   1.644   4.501   0.209 -1.4184 -3.7213 -1.1014
 7044TIP3   OH242622   6.456   6.198  12.064 -0.4019 -0.0582  0.5887
 7044TIP3    H142623   6.367   6.172  12.040 -0.0563  0.7033 -1.8067
 7044TIP3    H242624   6.446   6.288  12.096 -0.3937  0.4021 -0.6641
 7045TIP3   OH242625   0.167   2.965  11.823 -0.2971  0.6753 -0.1434
 7045TIP3    H142626   0.231   3.028  11.855  1.5265 -0.5585 -1.1752
 7045TIP3    H242627   0.152   2.905  11.896 -0.8660  1.3846  0.3356
 7046TIP3   OH242628   2.070   4.854   0.055 -0.3076 -0.1955 -0.1865
 7046TIP3    H142629   1.984   4.839   0.094  0.1745  0.7520  1.3344
 7046TIP3    H242630   2.126   4.785   0.091 -0.7457 -1.8762 -2.4965
 7047TIP3   OH242631   1.158   1.051  16.770 -0.3432  0.3545 -0.1373
 7047TIP3    H142632   1.148   1.115  16.700 -0.0672 -0.1359 -0.6346
 7047TIP3    H242633   1.133   0.967  16.730 -0.0799  0.0552  0.3168
 7048TIP3   OH242634   2.200   0.330  11.495  0.4186 -0.3053 -0.4890
 7048TIP3    H142635   2.196   0.346  11.401 -0.0309 -0.1382 -0.4447
 7048TIP3    H242636   2.190   0.417  11.534  1.1422 -0.3090 -0.2982
 7049TIP3   OH242637   3.782   2.191   5.883  0.1987 -0.1363 -0.0350
 7049TIP3    H142638   3.765   2.207   5.790 -2.9301  1.5618  0.6853
 7049TIP3    H242639   3.750   2.103   5.899 -1.4657  0.4180 -0.1633
 7050TIP3   OH242640   0.945   1.475   0.710 -0.5752 -0.2502 -0.1488
 7050TIP3    H142641   1.027   1.518   0.684 -1.5246  1.2354 -0.8017
 7050TIP3    H242642   0.954   1.463   0.805  0.1836  0.3882 -0.1258
 7051TIP3   OH242643   2.563   3.358   1.088  0.0271 -0.3163 -0.2282
 7051TIP3    H142644   2.649   3.344   1.127 -0.0403 -1.2404 -0.3708
 7051TIP3    H242645   2.512   3.401   1.156  0.7017  0.5769 -0.2711
 7052TIP3   OH242646   0.047   0.208  14.756 -0.3173 -0.4932  0.1159
 7052TIP3    H142647   0.060   0.270  14.827  1.3245  0.5609 -1.0419
 7052TIP3    H242648  -0.022   0.247  14.702 -0.0778 -0.2408 -0.0073
 7053TIP3   OH242649   2.877   3.366   3.871  0.2129  0.0710 -0.2551
 7053TIP3    H142650   2.879   3.401   3.782  4.0880  0.4273 -0.2020
 7053TIP3    H242651   2.962   3.324   3.882 -1.2726 -2.6841  2.3339
 7054TIP3   OH242652   0.743   0.900  14.226  0.1692 -0.2924 -0.0418
 7054TIP3    H142653   0.672   0.837  14.214  0.1090 -0.3526  0.6092
 7054TIP3    H242654   0.705   0.970  14.280 -0.9797  2.3189 -3.8150
 7055TIP3   OH242655   6.165   2.804  10.630  1.1243 -0.4008 -0.6854
 7055TIP3    H142656   6.088   2.763  10.589  0.9009 -1.4864  0.7337
 7055TIP3    H242657   6.161   2.896  10.603 -1.2555 -0.1930  0.1211
 7056TIP3   OH242658   3.788   2.239   4.275 -0.1716 -0.2666  0.2772
 7056TIP3    H142659   3.693   2.237   4.287 -0.3360  2.6767  0.1791
 7056TIP3    H242660   3.820   2.165   4.326 -2.5602 -2.2547 -0.8370
 7057TIP3   OH242661   5.324   0.089   4.914  0.3596  0.2661 -0.0048
 7057TIP3    H142662   5.403   0.133   4.881  0.5961 -1.2793 -1.6513
 7057TIP3    H242663   5.344  -0.004   4.908 -1.2899 -0.1481  0.3761
 7058TIP3   OH242664   0.735   1.886   2.115  0.1424 -0.5190 -0.5179
 7058TIP3    H142665   0.794   1.911   2.044  0.0290  2.0796  0.2122
 7058TIP3    H242666   0.791   1.839   2.178  0.5362 -1.5582 -1.6069
 7059TIP3   OH242667   0.547   1.261   3.006  0.1368 -0.6385 -0.2229
 7059TIP3    H142668   0.583   1.350   2.999  1.5961 -1.3165 -2.5770
 7059TIP3    H242669   0.623   1.206   3.025 -0.8217 -1.3960  1.6737
 7060TIP3   OH242670   2.155   3.016  13.604 -0.1268  0.2694 -0.0189
 7060TIP3    H142671   2.208   3.001  13.682 -1.4080  0.8969  1.0198
 7060TIP3    H242672   2.068   2.985  13.628 -0.4371  0.0233 -1.3835
 7061TIP3   OH242673   3.724   1.712  13.623 -0.1901 -0.1037 -0.7428
 7061TIP3    H142674   3.735   1.804  13.648 -1.2241 -0.0850 -0.2906
 7061TIP3    H242675   3.757   1.708  13.534 -2.1687  1.2294 -1.6234
 7062TIP3   OH242676   0.528   5.706  13.296 -0.4165 -0.6924  0.8209
 7062TIP3    H142677   0.485   5.621  13.280 -0.5878 -0.4910  0.1761
 7062TIP3    H242678   0.563   5.731  13.210 -0.1078 -0.2510  1.0751
 7063TIP3   OH242679   4.449   6.241   1.502  0.4573 -0.7252 -0.1148
 7063TIP3    H142680   4.423   6.269   1.590  0.1465  1.4177 -0.8410
 7063TIP3    H242681   4.544   6.247   1.502  0.3657  1.5848 -0.5838
 7064TIP3   OH242682   3.968   5.560  12.098  0.0414  0.2495  0.6736
 7064TIP3    H142683   3.904   5.589  12.164 -0.2753  0.0696  0.4479
 7064TIP3    H242684   4.050   5.601  12.125 -0.0042 -0.1110  1.3915
 7065TIP3   OH242685   4.186   4.412   4.553 -0.0238 -0.4151 -0.1800
 7065TIP3    H142686   4.260   4.352   4.552 -1.1592 -2.0421  2.2356
 7065TIP3    H242687   4.184   4.445   4.643 -2.2398 -0.5138 -0.1359
 7066TIP3   OH242688   5.856   1.525   0.653  0.1426 -0.0544 -0.5717
 7066TIP3    H142689   5.887   1.613   0.631  0.0363  0.2128  0.2831
 7066TIP3    H242690   5.768   1.521   0.618  0.0474  0.2887 -0.3778
 7067TIP3   OH242691   1.255   4.137  11.983  0.3554  0.7353  0.2223
 7067TIP3    H142692   1.219   4.226  11.983  0.6020  0.8410  1.1274
 7067TIP3    H242693   1.241   4.106  11.893  0.6577  1.8504 -0.2303
 7068TIP3   OH242694   6.609   4.129   3.691 -0.7598 -0.1734 -0.4639
 7068TIP3    H142695   6.580   4.099   3.777 -0.6979  0.5666 -0.1826
 7068TIP3    H242696   6.538   4.186   3.660 -0.0574  0.8787 -0.1833
 7069TIP3   OH242697   5.324   5.673  13.270 -0.2944  0.1596  0.1410
 7069TIP3    H142698   5.383   5.688  13.195 -0.0204  0.3962  0.3998
 7069TIP3    H242699   5.381   5.677  13.346 -0.9821  3.2783  0.6635
 7070TIP3   OH242700   0.418   1.336  13.923  0.4514  0.2487  0.2536
 7070TIP3    H142701   0.450   1.377  13.842 -0.7368  0.2157 -0.2604
 7070TIP3    H242702   0.493   1.336  13.982  0.9723  1.5226 -0.3808
 7071TIP3   OH242703   4.926   5.643   1.078 -0.4610  0.0433 -0.1684
 7071TIP3    H142704   4.868   5.568   1.089 -0.6188  0.1544 -0.2257
 7071TIP3    H242705   4.903   5.702   1.150 -2.7436  1.5750 -2.0051
 7072TIP3   OH242706   0.433   4.214   3.184  0.3502  0.1504  0.3420
 7072TIP3    H142707   0.345   4.221   3.148  0.5748 -2.1873 -0.8322
 7072TIP3    H242708   0.420   4.205   3.279 -0.4242  2.9571  0.5977
 7073TIP3   OH242709   1.214   6.041   4.808 -0.2853 -0.0202  0.0017
 7073TIP3    H142710   1.218   5.976   4.878  1.0773 -1.0722 -0.9996
 7073TIP3    H242711   1.149   6.104   4.838 -0.1929 -0.7685  1.9233
 7074TIP3   OH242712   4.596   0.438   0.252 -0.4791 -0.0090  0.1350
 7074TIP3    H142713   4.568   0.353   0.284  0.1568 -1.0963 -1.9944
 7074TIP3    H242714   4.692   0.433   0.249 -0.4802  0.3360 -1.0820
 7075TIP3   OH242715   1.576   3.665   1.499  0.2905  0.3033  0.3013
 7075TIP3    H142716   1.623   3.583   1.513  1.0244  0.3211 -1.7057
 7075TIP3    H242717   1.627   3.730   1.547  1.4823  0.0489 -0.5554
 7076TIP3   OH242718   5.274   3.514  10.434 -0.2094 -0.6693 -0.1047
 7076TIP3    H142719   5.316   3.520  10.520  0.2128  0.1657 -0.3654
 7076TIP3    H242720   5.275   3.420  10.414  0.8618 -0.7413  0.2333
 7077TIP3   OH242721   4.997   3.175   1.308  0.1525 -0.5385 -0.2104
 7077TIP3    H142722   5.056   3.247   1.328 -1.0107  0.0910  1.2463
 7077TIP3    H242723   5.047   3.116   1.252  1.1882  1.3114 -1.3093
 7078TIP3   OH242724   6.056   6.757  15.685 -0.3950 -0.5199 -0.5589
 7078TIP3    H142725   6.079   6.715  15.767  1.7192  3.6809  1.3220
 7078TIP3    H242726   5.975   6.804  15.704  0.0597  0.4104 -0.8289
 7079TIP3   OH242727   1.076   6.763  15.252  0.4886  1.1519  0.3747
 7079TIP3    H142728   0.993   6.721  15.274  1.6651 -1.5732  0.0965
 7079TIP3    H242729   1.122   6.770  15.336  0.7576  0.7370  0.2668
 7080TIP3   OH242730   6.422   3.040   1.218  0.3285  0.3589 -0.2347
 7080TIP3    H142731   6.391   2.985   1.146  1.2659  0.3012 -0.6019
 7080TIP3    H242732   6.426   3.128   1.181 -0.8440  0.6488  0.2575
 7081TIP3   OH242733   6.195   6.756   6.148  0.4093 -0.1818 -0.7184
 7081TIP3    H142734   6.230   6.808   6.220  1.3922  0.6131 -1.7248
 7081TIP3    H242735   6.100   6.754   6.163  0.7242 -1.3610  1.4185
 7082TIP3   OH242736   2.771   4.049   3.735 -0.3487  0.1232 -0.0470
 7082TIP3    H142737   2.715   3.984   3.777 -0.7475  0.3684 -0.1955
 7082TIP3    H242738   2.721   4.130   3.738  0.1333  0.4223  0.1100
 7083TIP3   OH242739   5.501   6.296   4.277 -0.3783  0.2064 -0.3708
 7083TIP3    H142740   5.409   6.298   4.251 -0.1606 -2.9230 -1.8566
 7083TIP3    H242741   5.549   6.296   4.195  0.7676 -1.0882  0.2498
 7084TIP3   OH242742   1.225   0.263  13.064 -0.0282  0.0910  1.0157
 7084TIP3    H142743   1.314   0.233  13.043  0.0327  0.3677  0.8808
 7084TIP3    H242744   1.187   0.190  13.115 -0.4057 -0.8611 -0.5679
 7085TIP3   OH242745   6.487   5.354   4.623 -0.1918  0.2893 -0.0935
 7085TIP3    H142746   6.490   5.269   4.667  2.5219  0.6952  0.7012
 7085TIP3    H242747   6.459   5.415   4.691 -1.5266  0.1672 -0.5012
 7086TIP3   OH242748   4.956   1.302   1.617 -0.3669 -0.4733  0.0730
 7086TIP3    H142749   4.953   1.316   1.711  0.4017 -1.9101  0.3344
 7086TIP3    H242750   4.899   1.227   1.601 -0.3052 -0.3929 -0.5678
 7087TIP3   OH242751   5.109   5.121   3.730 -0.0314 -0.6629  0.2616
 7087TIP3    H142752   5.118   5.143   3.823 -1.9243 -0.1756  0.3771
 7087TIP3    H242753   5.038   5.178   3.699  1.5017  0.2229 -1.8544
 7088TIP3   OH242754   5.081   0.957  16.019  0.1644  0.1108  0.4271
 7088TIP3    H142755   5.133   0.888  16.060 -1.2970 -0.3937  1.5545
 7088TIP3    H242756   5.030   0.912  15.952  0.9817  0.5620 -0.5224
 7089TIP3   OH242757   6.683   5.131   1.504  0.3900 -0.3122  0.3287
 7089TIP3    H142758   6.724   5.185   1.436 -0.8160  2.2410  1.4991
 7089TIP3    H242759   6.612   5.086   1.459  0.7686 -0.1322 -0.4696
 7090TIP3   OH242760   2.284   2.900  13.852 -0.0099  0.1030  0.0162
 7090TIP3    H142761   2.229   2.823  13.835 -0.0088 -0.5370  2.5330
 7090TIP3    H242762   2.372   2.873  13.825 -0.3432 -0.0368 -0.9768
 7091TIP3   OH242763   3.031   2.702   4.225  0.5251  0.0200  0.3952
 7091TIP3    H142764   2.962   2.766   4.207  1.8727  1.2586 -0.6136
 7091TIP3    H242765   3.007   2.665   4.310 -2.3479 -0.9574 -0.7016
 7092TIP3   OH242766   5.700   3.956   3.025 -0.3244  0.0749 -0.2372
 7092TIP3    H142767   5.673   4.041   2.990 -0.0307 -0.2457 -1.2627
 7092TIP3    H242768   5.795   3.954   3.012 -0.0074  0.4440  1.6991
 7093TIP3   OH242769   0.033   6.356   4.405  0.2932  0.2720 -0.5263
 7093TIP3    H142770   0.062   6.445   4.423 -1.5230  0.8232 -0.0276
 7093TIP3    H242771   0.106   6.315   4.359  1.4581  1.7733 -0.0998
 7094TIP3   OH242772   2.131   3.060   0.724 -0.2943  0.8715  0.5515
 7094TIP3    H142773   2.059   3.034   0.781  0.4666  1.8131  1.9800
 7094TIP3    H242774   2.160   2.978   0.683 -1.9770  0.4462  0.1566
 7095TIP3   OH242775   2.904   1.036  15.615  0.1241 -0.3073  0.2032
 7095TIP3    H142776   2.951   1.119  15.602  0.1875 -0.2760  0.6244
 7095TIP3    H242777   2.963   0.984  15.669  0.8725 -1.3097 -1.4738
 7096TIP3   OH242778   4.677   0.042   4.070  0.8801  0.2010  0.1076
 7096TIP3    H142779   4.741   0.043   4.142 -0.1332  0.0412  1.0322
 7096TIP3    H242780   4.593   0.028   4.113 -0.1812  3.1091 -0.7942
 7097TIP3   OH242781   4.263   4.311   1.210  0.6405  0.2065 -0.6230
 7097TIP3    H142782   4.329   4.296   1.277  0.3194  1.7067  0.0599
 7097TIP3    H242783   4.180   4.285   1.252  0.3595  1.7230 -0.1799
 7098TIP3   OH242784   0.294   1.591   1.927 -0.1183  0.2515  0.5618
 7098TIP3    H142785   0.389   1.593   1.911 -0.2862 -2.4500 -1.5862
 7098TIP3    H242786   0.259   1.660   1.871  0.3709 -1.0243 -1.4112
 7099TIP3   OH242787   6.809   5.338  13.991 -0.1812 -0.7209 -0.1464
 7099TIP3    H142788   6.773   5.268  14.046 -2.7658  0.1814 -0.5214
 7099TIP3    H242789   6.741   5.353  13.925  0.2762  2.1145 -0.0785
 7100TIP3   OH242790   5.162   2.423   5.189 -0.6144  0.4408 -0.5697
 7100TIP3    H142791   5.067   2.434   5.191 -0.4994  1.6335 -0.8825
 7100TIP3    H242792   5.195   2.503   5.147  0.7440  1.4899  2.2058
 7101TIP3   OH242793   3.746   2.820   2.534  0.3195  0.1325 -0.4572
 7101TIP3    H142794   3.745   2.798   2.627 -0.3301  1.9539  0.0162
 7101TIP3    H242795   3.657   2.804   2.504  0.2603  0.5336 -0.5028
 7102TIP3   OH242796   6.539   1.384  15.402 -0.1423 -0.6894 -0.4324
 7102TIP3    H142797   6.578   1.323  15.464  0.3933 -0.0602 -0.1277
 7102TIP3    H242798   6.480   1.438  15.455 -0.7326 -1.0483 -0.7264
 7103TIP3   OH242799   4.232   5.234   5.077 -0.1106  0.2103 -0.3206
 7103TIP3    H142800   4.215   5.141   5.063 -0.0186 -0.0132  0.8787
 7103TIP3    H242801   4.234   5.243   5.173  1.9808  1.0360 -0.3776
 7104TIP3   OH242802   1.480   0.668   2.660  0.2546  0.3106  0.2707
 7104TIP3    H142803   1.480   0.759   2.690  2.0174 -0.3996  2.7371
 7104TIP3    H242804   1.388   0.644   2.654 -0.2555  2.3270 -0.8383
 7105TIP3   OH242805   6.000   5.090  12.437  0.2017 -0.1960  0.5590
 7105TIP3    H142806   5.956   5.168  12.403  1.3452  0.7969  1.2680
 7105TIP3    H242807   5.977   5.089  12.530  1.5357  0.2857  0.9198
 7106TIP3   OH242808   1.248   1.516   2.321 -0.1885 -0.2838  0.0514
 7106TIP3    H142809   1.221   1.439   2.372 -0.2117  0.6888  1.5578
 7106TIP3    H242810   1.244   1.588   2.383  1.3951  0.6815 -0.9144
 7107TIP3   OH242811   0.113   5.568  12.070  0.0869  0.0025 -0.1608
 7107TIP3    H142812   0.046   5.522  12.120 -0.1719  0.3284 -0.2075
 7107TIP3    H242813   0.156   5.500  12.018 -1.2207  0.0155 -1.2957
 7108TIP3   OH242814   6.555   4.521   5.824 -0.4523  0.2307  0.0805
 7108TIP3    H142815   6.646   4.512   5.853  0.1732 -0.5964 -1.9568
 7108TIP3    H242816   6.560   4.577   5.746 -1.6685  0.0796 -0.1279
 7109TIP3   OH242817   4.628   6.714   3.571 -0.1251 -0.1101  0.0041
 7109TIP3    H142818   4.709   6.669   3.595 -0.6755 -0.7554  0.7063
 7109TIP3    H242819   4.655   6.778   3.505  1.2216  0.7436  1.3076
 7110TIP3   OH242820   4.529   3.637  10.743 -0.1040 -0.2106  0.5631
 7110TIP3    H142821   4.593   3.617  10.812 -0.5575 -0.9488  0.7829
 7110TIP3    H242822   4.566   3.713  10.698  1.5056 -1.2782 -0.0319
 7111TIP3   OH242823   0.068   4.838   4.535 -0.3870 -0.4031 -0.4446
 7111TIP3    H142824   0.029   4.750   4.543  0.4321 -0.7425  0.0134
 7111TIP3    H242825   0.101   4.857   4.624  0.5311 -0.1686 -0.8199
 7112TIP3   OH242826   4.946   3.038  14.610 -0.0265 -0.5135 -0.3253
 7112TIP3    H142827   5.039   3.060  14.607  0.1255 -0.9554  0.7570
 7112TIP3    H242828   4.902   3.118  14.581  0.5926  0.6405  1.7032
 7113TIP3   OH242829   3.936   3.465  12.614 -0.0685 -0.1536 -0.5833
 7113TIP3    H142830   4.031   3.478  12.618 -0.2250  2.4427 -2.6255
 7113TIP3    H242831   3.917   3.454  12.521 -1.9321  1.1039 -0.4020
 7114TIP3   OH242832   4.063   5.129  15.646 -0.1244  0.1366  0.2281
 7114TIP3    H142833   4.081   5.049  15.696 -1.7258 -1.6545 -1.8649
 7114TIP3    H242834   4.009   5.182  15.705 -0.7900 -1.2659  0.9405
 7115TIP3   OH242835   1.463   4.813  12.037 -0.2963  0.4664 -0.2939
 7115TIP3    H142836   1.503   4.733  12.070  1.8023  1.5110 -0.1851
 7115TIP3    H242837   1.379   4.784  12.001  1.0280 -2.0712 -1.6508
 7116TIP3   OH242838   3.547   1.785  14.017 -0.5867  0.0006 -0.3210
 7116TIP3    H142839   3.619   1.848  14.017  0.2142 -0.8774 -0.2822
 7116TIP3    H242840   3.501   1.800  13.935  0.6364 -0.4855 -1.1288
 7117TIP3   OH242841   2.139   4.549  12.140  0.2482  0.2850 -0.0653
 7117TIP3    H142842   2.159   4.478  12.080 -1.8479 -0.8309  0.4705
 7117TIP3    H242843   2.151   4.629  12.088  0.9530 -0.5211 -1.1710
 7118TIP3   OH242844   6.217   0.242  12.868 -0.2346 -0.1454 -0.3907
 7118TIP3    H142845   6.311   0.259  12.869  0.0950 -1.4449 -2.1093
 7118TIP3    H242846   6.179   0.315  12.818 -0.2432  0.6804  0.7943
 7119TIP3   OH242847   0.516   3.747   2.736 -0.6860  0.7483 -0.4939
 7119TIP3    H142848   0.542   3.803   2.809 -0.5673  0.1912 -0.1028
 7119TIP3    H242849   0.464   3.677   2.776 -0.3799  0.2747 -0.8989
 7120TIP3   OH242850   1.033   4.690   2.394 -0.1306 -0.0250  0.3014
 7120TIP3    H142851   1.050   4.656   2.306  2.4277 -1.6148  1.3021
 7120TIP3    H242852   0.938   4.698   2.399 -0.3114  1.2484 -2.9621
 7121TIP3   OH242853   3.377   5.178   5.260 -0.0789 -0.0585  0.1954
 7121TIP3    H142854   3.329   5.097   5.240  0.6471 -1.0600  2.1913
 7121TIP3    H242855   3.469   5.153   5.254  0.1964  1.2104 -1.2241
 7122TIP3   OH242856   6.138   5.538  14.536  0.2234  0.1669  0.3122
 7122TIP3    H142857   6.208   5.579  14.586  0.6086 -0.7520  0.5520
 7122TIP3    H242858   6.143   5.579  14.450  1.2792 -0.1035  0.2273
 7123TIP3   OH242859   5.920   2.960   4.276  0.2699  0.1102  0.2796
 7123TIP3    H142860   6.008   2.968   4.241  0.5697 -2.0012  0.4524
 7123TIP3    H242861   5.870   2.918   4.207  0.1776 -1.4809  1.2585
 7124TIP3   OH242862   1.574   5.520   3.204 -0.9441 -0.1051 -0.3662
 7124TIP3    H142863   1.640   5.472   3.255  0.5777  1.2705 -0.9538
 7124TIP3    H242864   1.546   5.591   3.262 -2.3328 -0.9705  0.0678
 7125TIP3   OH242865   5.165   0.038   0.099 -0.2263 -0.2379  0.1227
 7125TIP3    H142866   5.151   0.089   0.019 -0.7980 -0.8226 -0.1597
 7125TIP3    H242867   5.186   0.104   0.166  0.4405  0.2378 -0.5461
 7126TIP3   OH242868   3.241   5.756   1.156  0.9994  0.0933  0.1873
 7126TIP3    H142869   3.186   5.767   1.078  1.7557 -1.6226 -0.6195
 7126TIP3    H242870   3.330   5.769   1.124  1.3262 -0.7658  0.7402
 7127TIP3   OH242871   0.731   3.767   7.005  0.0427  0.3789  0.0075
 7127TIP3    H142872   0.747   3.722   6.922 -0.6733 -1.4391  0.7984
 7127TIP3    H242873   0.642   3.742   7.029 -0.1887  1.8330  0.7627
 7128TIP3   OH242874   6.739   0.040  15.347 -0.0439 -0.3246 -0.5704
 7128TIP3    H142875   6.784  -0.041  15.373  2.9192  0.8891 -1.4417
 7128TIP3    H242876   6.722   0.029  15.253 -0.4581 -0.2785 -0.5021
 7129TIP3   OH242877   0.497   1.868  15.361 -0.6130 -0.6096  0.1875
 7129TIP3    H142878   0.571   1.850  15.419 -1.8283 -1.9335  1.4065
 7129TIP3    H242879   0.493   1.964  15.357  1.4924 -0.5026 -0.4016
 7130TIP3   OH242880   1.251   0.612   1.930 -0.5413  0.0745 -0.1854
 7130TIP3    H142881   1.228   0.585   1.841 -2.0590  2.0011 -0.4495
 7130TIP3    H242882   1.262   0.707   1.923  0.2227  0.1376  1.5233
 7131TIP3   OH242883   4.040   2.906  13.087  0.1690  0.3454  0.2133
 7131TIP3    H142884   4.095   2.937  13.015  0.4166  0.2170  0.3483
 7131TIP3    H242885   4.080   2.942  13.165  0.6826 -0.6096  0.4125
 7132TIP3   OH242886   5.887   5.597   5.391 -0.3425 -0.4514  0.0512
 7132TIP3    H142887   5.855   5.589   5.481 -2.6332 -0.6328 -0.7051
 7132TIP3    H242888   5.882   5.508   5.357 -0.2924 -0.2473 -0.4919
 7133TIP3   OH242889   6.267   1.900  11.862 -0.5689 -0.4642 -0.4049
 7133TIP3    H142890   6.214   1.876  11.787 -1.1854 -2.0894  0.5033
 7133TIP3    H242891   6.226   1.855  11.936  0.0167  1.0653  0.9241
 7134TIP3   OH242892   6.309   2.708   5.309 -0.4477  0.4013  0.4489
 7134TIP3    H142893   6.252   2.758   5.250 -0.5612  0.0205  0.2343
 7134TIP3    H242894   6.273   2.620   5.308  0.0720  0.1862  0.4088
 7135TIP3   OH242895   6.007   4.491  16.953  0.3550 -0.2669 -0.0371
 7135TIP3    H142896   5.952   4.551  16.904 -0.6170 -1.0623  0.0463
 7135TIP3    H242897   6.063   4.450  16.887 -0.0942 -0.4397 -0.3115
 7136TIP3   OH242898   3.845   3.056  13.872 -0.2843 -0.1792  0.6906
 7136TIP3    H142899   3.841   3.002  13.951 -0.9159  0.4152  1.0770
 7136TIP3    H242900   3.804   3.139  13.897  0.9944  0.6385  0.2220
 7137TIP3   OH242901   1.849   2.116  13.704 -0.6660  0.1288  0.1742
 7137TIP3    H142902   1.810   2.150  13.624  0.2222  0.9175  0.0701
 7137TIP3    H242903   1.803   2.163  13.774 -0.5532  0.3775  0.0824
 7138TIP3   OH242904   4.084   6.588  10.075 -0.1934 -0.1144  0.1417
 7138TIP3    H142905   4.128   6.639  10.006 -0.7648  0.1289 -0.0554
 7138TIP3    H242906   4.081   6.499  10.041 -0.9747  0.1052 -0.4254
 7139TIP3   OH242907   3.796   0.985  14.402  0.0608  0.1673  0.6882
 7139TIP3    H142908   3.845   0.935  14.467  1.7941  0.7826 -0.0926
 7139TIP3    H242909   3.767   0.920  14.339  1.5784 -0.0003  0.1248
 7140TIP3   OH242910   1.253   6.727  15.444  0.3958  0.3334 -0.1666
 7140TIP3    H142911   1.280   6.648  15.491  0.7773 -0.4477 -1.6143
 7140TIP3    H242912   1.330   6.784  15.449 -0.0077  0.7850  1.1925
 7141TIP3   OH242913   4.977   2.896  17.142  0.2541 -0.1069 -0.0563
 7141TIP3    H142914   4.963   2.972  17.086  1.2960 -1.2468 -1.9845
 7141TIP3    H242915   4.894   2.849  17.140  0.1470  0.0883 -0.2738
 7142TIP3   OH242916   0.326   5.632  15.237  0.0724  0.3652  0.1119
 7142TIP3    H142917   0.395   5.698  15.249  1.6115 -0.8973 -1.2643
 7142TIP3    H242918   0.327   5.582  15.319  1.0790  0.1410 -0.0172
 7143TIP3   OH242919   1.183   4.405  11.647 -0.2468  0.9055  0.1187
 7143TIP3    H142920   1.188   4.310  11.635 -0.7687  0.9617 -0.5795
 7143TIP3    H242921   1.244   4.423  11.719  0.0171  0.0711  0.1161
 7144TIP3   OH242922   5.251   5.705   6.000  0.5603  0.1942  0.2585
 7144TIP3    H142923   5.277   5.785   6.047  1.6808 -0.7804  1.3854
 7144TIP3    H242924   5.258   5.636   6.066  2.2382 -1.2689 -1.3249
 7145TIP3   OH242925   1.584   6.552   6.567  0.4019  0.3910 -0.3281
 7145TIP3    H142926   1.544   6.541   6.481 -2.1394  0.3746  0.7769
 7145TIP3    H242927   1.676   6.530   6.554 -0.4177 -2.1680 -2.4962
 7146TIP3   OH242928   0.654   2.111   3.514  0.0410 -0.3397  0.4815
 7146TIP3    H142929   0.674   2.073   3.428  1.0639 -0.6926  0.8607
 7146TIP3    H242930   0.632   2.035   3.569  0.6557 -0.2507  0.8594
 7147TIP3   OH242931   4.637   6.041  15.691 -0.0020  0.4407  0.4284
 7147TIP3    H142932   4.606   5.971  15.633 -0.7158  1.4143 -0.4115
 7147TIP3    H242933   4.732   6.036  15.685 -0.0495 -0.1083 -0.0567
 7148TIP3   OH242934   6.402   1.556   5.673  0.3042  0.6433  0.3557
 7148TIP3    H142935   6.372   1.640   5.708 -0.4498  0.0614  1.1341
 7148TIP3    H242936   6.457   1.519   5.742  1.6012  1.0050 -0.4527
 7149TIP3   OH242937   3.781   4.258  16.355 -0.0896  0.6517 -0.3018
 7149TIP3    H142938   3.821   4.186  16.306 -0.4608  1.7161 -2.2636
 7149TIP3    H242939   3.688   4.251  16.337 -0.6164 -0.4927  2.4729
 7150TIP3   OH242940   1.941   4.116  12.633 -0.2028 -0.3212  0.0081
 7150TIP3    H142941   1.853   4.137  12.603 -0.4671 -0.4689  0.6529
 7150TIP3    H242942   1.945   4.151  12.722  0.6515  0.3576 -0.2803
 7151TIP3   OH242943   3.365   1.779  14.800 -0.4919  0.0521  0.2929
 7151TIP3    H142944   3.437   1.833  14.833  0.4198 -1.2246  0.4686
 7151TIP3    H242945   3.295   1.791  14.864  0.6113 -0.9577  1.7755
 7152TIP3   OH242946   1.671   2.703   3.908 -0.4240  0.6388  0.1609
 7152TIP3    H142947   1.635   2.722   3.994 -1.0734  2.9573 -0.5572
 7152TIP3    H242948   1.594   2.690   3.852 -0.0456  0.7331 -0.3867
 7153TIP3   OH242949   3.861   6.142   3.890  0.7233 -0.5583  0.0201
 7153TIP3    H142950   3.856   6.200   3.814  0.9104 -0.1656  0.3016
 7153TIP3    H242951   3.782   6.160   3.940  1.7594  1.0114  1.1920
 7154TIP3   OH242952   1.464   1.989   5.822  0.7534  0.2273 -0.1808
 7154TIP3    H142953   1.474   1.912   5.879 -0.8772  0.1362  0.0367
 7154TIP3    H242954   1.377   2.024   5.844  0.3500  0.5764 -2.1431
 7155TIP3   OH242955   3.096   0.054   1.907  0.0458  0.2706  0.3204
 7155TIP3    H142956   3.015   0.010   1.930 -1.0027  1.1156 -1.5910
 7155TIP3    H242957   3.098   0.054   1.812  2.4907 -0.0475  0.3065
 7156TIP3   OH242958   0.529   3.981  11.973 -0.0435  0.4378 -0.3547
 7156TIP3    H142959   0.566   4.064  11.942 -0.4353  0.7326 -0.0404
 7156TIP3    H242960   0.568   3.968  12.059 -1.0483  1.0088  0.1988
 7157TIP3   OH242961   5.533   4.913   1.717 -0.2746 -0.1537  0.1358
 7157TIP3    H142962   5.572   4.860   1.647  0.8385  0.4029  0.3146
 7157TIP3    H242963   5.440   4.921   1.692 -1.0271 -3.8042  1.0957
 7158TIP3   OH242964   4.905   1.808   0.383 -0.3428  0.0437 -0.1718
 7158TIP3    H142965   4.896   1.736   0.320  0.5388 -0.1399 -0.1076
 7158TIP3    H242966   4.815   1.833   0.404 -0.7143 -2.0480  0.9522
 7159TIP3   OH242967   6.411   3.793  15.516  0.1017  0.1438 -0.0855
 7159TIP3    H142968   6.354   3.823  15.446 -0.1598  2.2956  0.9704
 7159TIP3    H242969   6.498   3.823  15.492 -0.0152  1.0354  0.5573
 7160TIP3   OH242970   6.730   4.618  15.145  0.1313  0.3644 -0.2188
 7160TIP3    H142971   6.711   4.645  15.055  1.4616  1.6518 -0.1443
 7160TIP3    H242972   6.699   4.528  15.150 -0.1066  0.3208 -1.9180
 7161TIP3   OH242973   1.056   5.239   0.875 -0.4321  0.0675 -0.4844
 7161TIP3    H142974   1.135   5.278   0.913 -0.3873 -0.6542  0.1962
 7161TIP3    H242975   1.016   5.310   0.824 -0.0026  0.8028  0.1796
 7162TIP3   OH242976   3.065   1.437  17.209  0.1915  0.0992  0.1594
 7162TIP3    H142977   3.066   1.399  17.297 -2.2739  0.1906  0.2881
 7162TIP3    H242978   3.027   1.524  17.221  1.2942  0.7563 -0.8268
 7163TIP3   OH242979   3.527   4.570  14.806 -0.1912 -0.7160  0.5079
 7163TIP3    H142980   3.491   4.646  14.759  0.5203 -1.0653 -0.6279
 7163TIP3    H242981   3.479   4.495  14.771 -1.3841 -0.7847  2.1150
 7164TIP3   OH242982   2.821   6.331   2.271 -0.0242 -0.4273 -0.4305
 7164TIP3    H142983   2.891   6.332   2.335  0.2388  0.5873 -0.7039
 7164TIP3    H242984   2.748   6.288   2.315  0.1546  0.2339  0.5423
 7165TIP3   OH242985   5.990   5.306   4.188 -0.2587  0.2190 -0.4195
 7165TIP3    H142986   5.930   5.314   4.263 -1.2698 -0.2147 -1.1513
 7165TIP3    H242987   6.030   5.221   4.198 -0.9879 -0.1787 -0.7698
 7166TIP3   OH242988   3.629   4.755   3.290  0.0364 -0.4316  0.3075
 7166TIP3    H142989   3.703   4.707   3.325 -0.6235  0.8500  3.8113
 7166TIP3    H242990   3.642   4.846   3.318 -1.5585  0.3709 -1.2667
 7167TIP3   OH242991   0.080   3.123   0.120  0.5752 -0.0153 -0.1286
 7167TIP3    H142992   0.136   3.140   0.196  0.4966 -0.8305  0.1237
 7167TIP3    H242993   0.010   3.068   0.155 -1.8562  3.0367  0.1346
 7168TIP3   OH242994   5.444   4.714  13.041  0.3637 -0.0296  0.1668
 7168TIP3    H142995   5.462   4.622  13.026  1.3974  0.0443  0.8736
 7168TIP3    H242996   5.377   4.736  12.976 -1.6531 -1.8408  1.5295
 7169TIP3   OH242997   3.631   2.239   2.111  0.6408  0.5152 -0.1985
 7169TIP3    H142998   3.565   2.175   2.137 -0.1807  1.0958 -0.8036
 7169TIP3    H242999   3.611   2.257   2.019  1.4870  0.8935 -0.3121
 7170TIP3   OH243000   6.638   5.531  11.178 -0.6569 -0.3148 -0.3236
 7170TIP3    H143001   6.654   5.620  11.145  2.0607 -0.5344  0.1431
 7170TIP3    H243002   6.697   5.476  11.128 -1.0962 -1.6118  0.5330
 7171TIP3   OH243003   5.338   0.687   2.259  0.6335 -0.0119  0.0789
 7171TIP3    H143004   5.432   0.685   2.238  0.1740 -0.0236 -2.3093
 7171TIP3    H243005   5.304   0.606   2.222 -0.4619  0.4428  0.0530
 7172TIP3   OH243006   6.244   2.107  16.113  0.1534  0.3928  0.0910
 7172TIP3    H143007   6.294   2.187  16.125  2.2324 -0.9742  1.0897
 7172TIP3    H243008   6.155   2.137  16.093  0.6110  2.9266  1.4646
 7173TIP3   OH243009   5.335   5.115  14.751 -0.1798  0.4083  0.1021
 7173TIP3    H143010   5.264   5.179  14.751 -0.2074  0.4091 -1.2107
 7173TIP3    H243011   5.399   5.150  14.688 -0.3086 -0.9647 -0.8310
 7174TIP3   OH243012   2.972   0.396  11.308  0.7491 -0.6461  0.0685
 7174TIP3    H143013   2.941   0.478  11.269  0.9272 -1.0631 -0.9739
 7174TIP3    H243014   2.964   0.410  11.402  0.3705  0.4110 -0.1081
 7175TIP3   OH243015   6.370   1.157   3.747 -0.0786  0.3599  0.5204
 7175TIP3    H143016   6.326   1.149   3.831 -0.7160  0.5342  0.2119
 7175TIP3    H243017   6.336   1.238   3.709 -2.8318 -1.5615 -1.5821
 7176TIP3   OH243018   0.505   3.192   2.245 -0.1966  0.0015 -0.4217
 7176TIP3    H143019   0.583   3.151   2.283  0.4257  0.3779 -1.2811
 7176TIP3    H243020   0.470   3.246   2.316 -0.8923 -1.7645  0.6699
 7177TIP3   OH243021   0.620   2.861  14.803 -0.7454  0.1319  0.4211
 7177TIP3    H143022   0.624   2.787  14.743 -0.0665  0.9854 -0.6171
 7177TIP3    H243023   0.711   2.889  14.813 -0.6132 -0.9706  3.1508
 7178TIP3   OH243024   0.041   0.323   0.703 -0.1225  0.3082  0.3471
 7178TIP3    H143025   0.110   0.328   0.637 -0.2251  1.5763  0.3155
 7178TIP3    H243026  -0.040   0.317   0.653 -0.0963 -0.4228  0.3809
 7179TIP3   OH243027   1.258   2.907   3.496  0.7699 -0.1864  0.4574
 7179TIP3    H143028   1.182   2.850   3.486  1.2827 -0.9625  0.8949
 7179TIP3    H243029   1.228   2.978   3.552  0.4160 -0.5944  0.7944
 7180TIP3   OH243030   6.244   2.363  15.868  0.4302  0.2503  0.2962
 7180TIP3    H143031   6.286   2.312  15.799  1.2527 -0.4923  1.3116
 7180TIP3    H243032   6.283   2.450  15.861  1.3284 -0.1304  0.5213
 7181TIP3   OH243033   0.242   5.312   6.732 -0.0194  0.6803 -0.3762
 7181TIP3    H143034   0.187   5.285   6.658 -2.1377 -2.3477  2.0664
 7181TIP3    H243035   0.187   5.372   6.783  0.5263  0.8877 -0.0205
 7182TIP3   OH243036   6.261   4.335   6.212  0.6515 -0.0278  0.5462
 7182TIP3    H143037   6.314   4.407   6.179  0.7693 -0.5525 -0.4552
 7182TIP3    H243038   6.318   4.291   6.276  2.0031 -1.3442 -1.4048
 7183TIP3   OH243039   5.296   1.967  15.613 -0.6425  0.1139  0.9104
 7183TIP3    H143040   5.215   2.007  15.581 -0.2486  0.3929  0.2417
 7183TIP3    H243041   5.273   1.876  15.628 -0.6995 -0.1817 -0.7734
 7184TIP3   OH243042   5.084   0.445  13.565 -0.0683  0.1083  0.8665
 7184TIP3    H143043   5.133   0.497  13.629  2.3549  1.2150 -1.7062
 7184TIP3    H243044   5.038   0.509  13.512 -0.8214 -0.6976  0.5184
 7185TIP3   OH243045   1.603   1.255   1.005  0.4447  0.6799 -0.6168
 7185TIP3    H143046   1.632   1.186   1.065 -2.7025  0.0055  0.2944
 7185TIP3    H243047   1.645   1.335   1.039  1.1573 -0.1785  0.6006
 7186TIP3   OH243048   2.542   2.335  11.122 -0.0590 -0.4470  0.6085
 7186TIP3    H143049   2.483   2.260  11.133  0.9179 -1.3090  0.1342
 7186TIP3    H243050   2.545   2.350  11.028 -0.3192  0.2592  0.7083
 7187TIP3   OH243051   0.232   2.925  13.363 -0.7138 -0.4032  0.0336
 7187TIP3    H143052   0.220   2.832  13.341 -1.6533 -0.0804 -0.8920
 7187TIP3    H243053   0.255   2.966  13.279 -1.2586  0.3595  0.2499
 7188TIP3   OH243054   2.423   2.673   0.275  0.1875  0.1150 -0.4362
 7188TIP3    H143055   2.460   2.758   0.249  0.5208  0.1338  0.0741
 7188TIP3    H243056   2.330   2.690   0.289  0.1067  0.2186 -1.0972
 7189TIP3   OH243057   0.024   3.063   5.330  1.0632 -0.0010  0.1213
 7189TIP3    H143058  -0.007   2.980   5.365  0.4039  1.1422  2.4445
 7189TIP3    H243059  -0.046   3.092   5.271 -0.1046  0.2604  1.5802
 7190TIP3   OH243060   6.792   4.475   1.639  0.3194  0.3097  0.1063
 7190TIP3    H143061   6.750   4.556   1.667 -0.7983 -0.8161  1.8257
 7190TIP3    H243062   6.747   4.450   1.559  0.7701  1.4301 -0.5168
 7191TIP3   OH243063   2.473   0.513  13.974 -0.5426 -0.1325 -0.0307
 7191TIP3    H143064   2.505   0.427  14.002 -1.8791 -0.8854 -0.7216
 7191TIP3    H243065   2.552   0.562  13.954  0.2694 -1.0398  0.8152
 7192TIP3   OH243066   4.544   2.694  13.052 -0.6796 -0.2954 -0.3276
 7192TIP3    H143067   4.480   2.757  13.021  0.2356  0.8367  0.0029
 7192TIP3    H243068   4.525   2.614  13.003  0.0313  1.0865 -3.0889
 7193TIP3   OH243069   6.020   0.782  17.229 -0.5122 -0.1876 -0.5145
 7193TIP3    H143070   6.087   0.842  17.263 -1.1511  1.1890 -1.5910
 7193TIP3    H243071   5.959   0.839  17.182 -1.7711 -1.5686 -0.6030
 7194TIP3   OH243072   3.595   3.087   1.643  0.6809  0.0380 -0.2504
 7194TIP3    H143073   3.520   3.133   1.606  1.0300  0.7131 -0.1426
 7194TIP3    H243074   3.565   3.056   1.728  0.6996  0.8439  0.0599
 7195TIP3   OH243075   4.036   5.148  14.716 -0.1219  0.3996  0.5719
 7195TIP3    H143076   4.038   5.070  14.660  1.6941 -0.3391  1.5709
 7195TIP3    H243077   3.988   5.119  14.794 -0.7729  0.7700  0.3167
 7196TIP3   OH243078   3.814   1.186  11.719 -0.1474  0.3129 -0.5343
 7196TIP3    H143079   3.776   1.250  11.779  0.0172  0.2097 -0.3151
 7196TIP3    H243080   3.872   1.133  11.775  0.0672  0.2650 -0.7989
 7197TIP3   OH243081   1.032   2.858  16.255  0.2124  0.9063 -0.1553
 7197TIP3    H143082   1.065   2.920  16.320  0.2893  1.3912 -0.6540
 7197TIP3    H243083   0.994   2.787  16.308  2.5453  0.0226  0.4458
 7198TIP3   OH243084   4.767   4.045  15.396  0.6549 -0.0451 -0.5795
 7198TIP3    H143085   4.776   3.953  15.372 -0.3680  0.4031 -2.9758
 7198TIP3    H243086   4.842   4.088  15.356  2.2513 -0.0426  2.2253
 7199TIP3   OH243087   5.183   5.566   0.477  0.0996 -0.5817  0.1140
 7199TIP3    H143088   5.276   5.583   0.464  0.0678 -1.4193 -1.4617
 7199TIP3    H243089   5.140   5.617   0.408 -0.5943 -0.3773  0.6914
 7200TIP3   OH243090   6.696   5.152  14.179  0.3846  0.4020  0.2379
 7200TIP3    H143091   6.704   5.057  14.171  2.2650  0.5558 -0.2636
 7200TIP3    H243092   6.609   5.166  14.217 -0.3323 -1.4496 -0.6216
 7201TIP3   OH243093   3.933   1.809   0.963  0.1960 -0.6530  0.4500
 7201TIP3    H143094   4.000   1.747   0.935  0.5070 -0.3706  0.5706
 7201TIP3    H243095   3.955   1.831   1.053 -0.5590 -1.2223  0.7864
 7202TIP3   OH243096   3.051   5.184  14.388 -0.2033  0.7990  0.1108
 7202TIP3    H143097   2.967   5.140  14.403  0.9718 -1.0346  1.8949
 7202TIP3    H243098   3.034   5.276  14.408 -2.1659  0.7800 -1.2731
 7203TIP3   OH243099   3.777   2.222  11.402  0.2619  0.1417 -0.5423
 7203TIP3    H143100   3.855   2.178  11.367 -1.7706 -1.0267 -4.1243
 7203TIP3    H243101   3.792   2.315  11.385  1.9102  0.2649  1.2649
 7204TIP3   OH243102   3.906   2.118  13.388 -0.0378  0.1835 -0.2277
 7204TIP3    H143103   3.827   2.074  13.357 -1.1223  2.5814 -1.1077
 7204TIP3    H243104   3.934   2.067  13.463 -2.7836 -0.4025  0.4976
 7205TIP3   OH243105   0.177   0.819  15.179  0.7824 -0.0297 -0.2393
 7205TIP3    H143106   0.172   0.849  15.270  0.4662 -0.6970 -0.0284
 7205TIP3    H243107   0.088   0.787  15.160  1.4193 -2.1355  0.0198
 7206TIP3   OH243108   4.504   6.726   1.130  0.0615  0.5560 -0.2227
 7206TIP3    H143109   4.490   6.819   1.113 -0.6157  0.6358  0.7004
 7206TIP3    H243110   4.592   6.709   1.097  0.0864  1.4525 -0.6600
 7207TIP3   OH243111   3.037   5.822  15.491 -0.1086  0.3254  0.4417
 7207TIP3    H143112   3.021   5.819  15.586 -3.2795  0.2667  0.0058
 7207TIP3    H243113   3.068   5.734  15.470  2.0048  0.7300  1.5511
 7208TIP3   OH243114   3.227   4.689  11.295  0.0887 -0.3282  0.1807
 7208TIP3    H143115   3.213   4.744  11.218  2.2190 -0.6087 -0.4712
 7208TIP3    H243116   3.200   4.744  11.368 -0.3735  0.5794 -0.6402
 7209TIP3   OH243117   5.261   0.005   4.444 -0.3987 -0.1919 -0.3384
 7209TIP3    H143118   5.216   0.055   4.512 -0.4907  0.1041 -0.6187
 7209TIP3    H243119   5.195  -0.010   4.377 -0.3633 -0.6598 -0.2746
 7210TIP3   OH243120   5.952   6.644   0.377  0.3044 -0.1306 -0.6501
 7210TIP3    H143121   5.890   6.678   0.313  0.7352  1.6282 -0.1737
 7210TIP3    H243122   5.904   6.573   0.421 -1.0935  0.6563 -0.8286
 7211TIP3   OH243123   6.448   4.051   0.060 -0.4506  0.3908 -0.0171
 7211TIP3    H143124   6.422   4.007   0.141 -0.0595 -1.2517 -0.7372
 7211TIP3    H243125   6.542   4.066   0.070 -0.6814  1.6611  0.4673
 7212TIP3   OH243126   4.197   4.379  10.963  0.2677  0.3469 -0.2671
 7212TIP3    H143127   4.130   4.312  10.950  1.6868 -0.8616 -1.6984
 7212TIP3    H243128   4.169   4.425  11.042 -0.1003 -2.7596  1.5680
 7213TIP3   OH243129   3.027   3.052   0.455 -0.1651  0.0072  1.1604
 7213TIP3    H143130   3.120   3.068   0.443  0.1445 -1.0560  2.0419
 7213TIP3    H243131   2.985   3.135   0.429  1.0785  0.8218  1.6591
 7214TIP3   OH243132   5.043   3.684   5.263 -0.1538  0.1514  0.6222
 7214TIP3    H143133   5.016   3.776   5.257 -0.6537 -0.1121 -2.7892
 7214TIP3    H243134   5.134   3.683   5.231 -0.9804 -0.7708 -1.9373
 7215TIP3   OH243135   6.529   4.495  11.500 -0.3925  0.4180  0.5258
 7215TIP3    H143136   6.585   4.419  11.513 -0.3990  0.6417  2.0821
 7215TIP3    H243137   6.553   4.555  11.571 -2.6459  0.4881  1.2966
 7216TIP3   OH243138   6.082   4.582  15.482 -0.6257  0.2457  0.6307
 7216TIP3    H143139   6.042   4.646  15.423 -0.0670  1.6536  1.7293
 7216TIP3    H243140   6.016   4.564  15.548 -0.2627  0.8469  1.1675
 7217TIP3   OH243141   4.486   6.637   1.745  0.4114  0.5675  0.0103
 7217TIP3    H143142   4.471   6.712   1.688  0.4918 -2.3549 -4.3250
 7217TIP3    H243143   4.581   6.626   1.745  0.2742 -0.9768 -1.6507
 7218TIP3   OH243144   1.605   0.483  11.002 -0.1280 -0.0171  0.4969
 7218TIP3    H143145   1.546   0.508  11.073 -1.0888  0.1060 -0.3133
 7218TIP3    H243146   1.628   0.392  11.021 -0.3388  0.0319  0.9916
 7219TIP3   OH243147   3.625   6.393   4.879 -0.0657  0.1755  0.7514
 7219TIP3    H143148   3.550   6.386   4.938 -0.2707 -1.7688  0.3252
 7219TIP3    H243149   3.587   6.408   4.793  0.2126  2.4420  0.9640
 7220TIP3   OH243150   0.398   2.003  13.532 -0.4600 -1.0569  0.0326
 7220TIP3    H143151   0.412   2.056  13.454 -0.9550  0.4429  0.9129
 7220TIP3    H243152   0.340   1.933  13.503  1.0079 -1.7473 -1.3903
 7221TIP3   OH243153   0.680   5.874  12.714  0.7782  0.4444 -0.3577
 7221TIP3    H143154   0.619   5.880  12.788 -0.2194  1.3276 -1.2184
 7221TIP3    H243155   0.632   5.911  12.640  2.4700  1.5191 -0.9972
 7222TIP3   OH243156   3.577   5.620   4.148  0.1866  0.1379  0.6836
 7222TIP3    H143157   3.647   5.663   4.198 -0.8091  2.2152  0.4078
 7222TIP3    H243158   3.583   5.658   4.061 -0.7214 -0.3389  0.4069
 7223TIP3   OH243159   0.605   3.927   2.940 -0.0381  0.2386 -0.0516
 7223TIP3    H143160   0.525   3.901   2.987  0.5020 -1.0479  0.2177
 7223TIP3    H243161   0.653   3.981   3.002 -0.8972  1.4150 -0.3815
 7224TIP3   OH243162   0.543   3.968   4.400 -0.2025  0.7183  0.1639
 7224TIP3    H143163   0.602   3.965   4.475 -1.5539 -1.2711  1.2441
 7224TIP3    H243164   0.470   3.910   4.424 -1.8501  1.8675 -1.7275
 7225TIP3   OH243165   4.433   0.183   0.106 -0.3409  0.0225  0.0165
 7225TIP3    H143166   4.361   0.134   0.145  1.2636 -3.1224 -0.6668
 7225TIP3    H243167   4.419   0.176   0.012 -0.3443  1.3808 -0.1008
 7226TIP3   OH243168   1.508   0.897   0.508  0.3602 -0.0074  0.6166
 7226TIP3    H143169   1.596   0.936   0.510  0.1473  0.4889  0.6231
 7226TIP3    H243170   1.463   0.938   0.582 -0.0387  0.1408  0.2943
 7227TIP3   OH243171   2.737   1.529  16.942 -0.3473  0.0810  0.4553
 7227TIP3    H143172   2.779   1.445  16.924 -0.7383 -0.2195  0.8913
 7227TIP3    H243173   2.649   1.520  16.905 -0.2167  0.4976  0.0341
 7228TIP3   OH243174   5.967   4.080  12.717 -0.0560  0.3193  0.0873
 7228TIP3    H143175   6.003   4.061  12.630  2.9179  1.8282  0.8296
 7228TIP3    H243176   6.005   4.013  12.774  0.3461  1.0168  0.6565
 7229TIP3   OH243177   0.996   4.511   6.107 -0.1284  0.2808  0.3770
 7229TIP3    H143178   1.042   4.547   6.184  0.7242 -0.6399  0.3184
 7229TIP3    H243179   1.041   4.429   6.089 -1.0504 -0.0591 -0.4383
 7230TIP3   OH243180   4.422   1.219   1.026  0.3272  0.1918 -0.1108
 7230TIP3    H143181   4.359   1.219   1.098  0.1006  0.2302 -0.3066
 7230TIP3    H243182   4.461   1.132   1.028  1.1631  0.5655  0.7830
 7231TIP3   OH243183   6.626   6.403   4.793  0.2347  0.6384  0.0880
 7231TIP3    H143184   6.681   6.463   4.844 -0.2906  0.2565  1.1202
 7231TIP3    H243185   6.567   6.364   4.857 -0.5969  0.3154 -0.8569
 7232TIP3   OH243186   3.446   5.004  16.606  0.3558  0.0543 -0.2506
 7232TIP3    H143187   3.361   4.964  16.586  0.3787  0.4399 -1.1423
 7232TIP3    H243188   3.464   4.977  16.696 -1.0095  0.4729  0.1714
 7233TIP3   OH243189   4.838   4.130  11.814 -0.1132 -0.3673  0.3581
 7233TIP3    H143190   4.933   4.133  11.805 -0.1098 -0.5798  0.3280
 7233TIP3    H243191   4.805   4.176  11.737 -0.0005  1.2356  1.2300
 7234TIP3   OH243192   5.736   1.436  13.919 -0.2994  0.5228  0.7912
 7234TIP3    H143193   5.762   1.418  13.828  0.0858 -0.6182  1.0984
 7234TIP3    H243194   5.669   1.503  13.912 -1.5405 -0.7580 -0.4921
 7235TIP3   OH243195   5.658   6.029   2.766  0.2854  0.3283 -0.4228
 7235TIP3    H143196   5.657   6.124   2.751 -1.5571  0.3213 -0.5254
 7235TIP3    H243197   5.635   6.020   2.858  2.4357  0.0024  0.1569
 7236TIP3   OH243198   0.046   5.490   2.030 -0.3746  0.4853  0.2258
 7236TIP3    H143199   0.008   5.474   2.116 -0.2138  1.0619  0.4077
 7236TIP3    H243200   0.106   5.416   2.016 -0.0009  0.6704  0.8371
 7237TIP3   OH243201   3.307   5.056  15.372 -0.4919  0.0155 -0.0907
 7237TIP3    H143202   3.225   5.083  15.414 -0.0050 -0.5335  1.2492
 7237TIP3    H243203   3.375   5.104  15.418  0.6389 -4.4786  3.7174
 7238TIP3   OH243204   1.985   2.399  12.612  0.0547 -0.1731  0.0576
 7238TIP3    H143205   1.960   2.454  12.686  0.8806  1.8605 -1.0681
 7238TIP3    H243206   2.003   2.462  12.542  2.2229 -1.8310 -0.9772
 7239TIP3   OH243207   4.511   4.284  13.737  0.7786 -0.2395 -0.2195
 7239TIP3    H143208   4.503   4.257  13.828  2.1471  1.6576  0.5184
 7239TIP3    H243209   4.518   4.380  13.740 -1.0687  0.0547 -2.4746
 7240TIP3   OH243210   5.256   2.054  11.812  0.3727  0.1081 -0.0898
 7240TIP3    H143211   5.234   2.110  11.887  0.2883  0.9100 -0.6885
 7240TIP3    H243212   5.269   2.116  11.740  2.0277 -0.5212 -0.3742
 7241TIP3   OH243213   4.330   3.931   2.419 -0.4150  0.5057  0.0868
 7241TIP3    H143214   4.258   3.910   2.360  0.2507 -0.5210 -0.3903
 7241TIP3    H243215   4.339   4.026   2.413 -2.5140  0.8257  1.1043
 7242TIP3   OH243216   3.589   4.682  14.291  0.2605 -1.0088 -0.0904
 7242TIP3    H143217   3.614   4.593  14.314  0.6606 -1.1722 -1.0863
 7242TIP3    H243218   3.561   4.676  14.199  2.2914  0.2208 -0.8594
 7243TIP3   OH243219   1.324   1.026   5.321 -0.0652  0.0122 -0.4457
 7243TIP3    H143220   1.391   1.001   5.385 -0.3829 -2.0253 -0.8372
 7243TIP3    H243221   1.241   1.011   5.366 -0.2788 -0.8089 -1.0797
 7244TIP3   OH243222   3.933   1.517  11.689  0.5361 -0.2554 -0.6994
 7244TIP3    H143223   3.925   1.444  11.627  1.0331 -0.7578 -0.1806
 7244TIP3    H243224   3.984   1.482  11.762  0.1144  0.3823 -0.0792
 7245TIP3   OH243225   0.810   6.355  16.083  0.8651  0.3669 -0.0786
 7245TIP3    H143226   0.829   6.402  16.165 -1.4341  0.5615  0.3897
 7245TIP3    H243227   0.896   6.321  16.056  1.7081  0.2268  2.4388
 7246TIP3   OH243228   1.833   6.274   4.885 -0.5819  0.3571 -0.2528
 7246TIP3    H143229   1.814   6.354   4.934  0.0563  0.6214 -0.4292
 7246TIP3    H243230   1.808   6.203   4.943  0.1733  0.6635  0.4621
 7247TIP3   OH243231   0.277   3.740  15.760 -0.3779  0.3419 -0.8377
 7247TIP3    H143232   0.284   3.745  15.665 -2.5348  0.7641 -1.0343
 7247TIP3    H243233   0.260   3.647  15.777 -0.5353  0.3529 -0.9268
 7248TIP3   OH243234   4.499   3.522   6.209  0.0816  0.7549  0.1443
 7248TIP3    H143235   4.579   3.478   6.179 -0.4890  0.1887 -0.6003
 7248TIP3    H243236   4.437   3.451   6.225 -1.1264  1.2778 -1.8889
 7249TIP3   OH243237   1.523   0.553   4.338  0.1279  0.6304 -0.3808
 7249TIP3    H143238   1.508   0.585   4.427 -1.3988  0.3544 -0.5140
 7249TIP3    H243239   1.472   0.613   4.283 -0.1889 -0.1197 -0.9157
 7250TIP3   OH243240   1.263   2.826  13.113 -0.4552  0.2906 -0.1583
 7250TIP3    H143241   1.202   2.843  13.041  0.0301  2.2809 -0.1522
 7250TIP3    H243242   1.302   2.911  13.132  1.2602 -0.6648  0.8171
 7251TIP3   OH243243   3.834   2.320  14.510 -0.4673  0.3146 -0.4408
 7251TIP3    H143244   3.869   2.342  14.596  1.3544 -1.4714 -0.6384
 7251TIP3    H243245   3.742   2.301  14.525  0.2143 -1.8179  1.5467
 7252TIP3   OH243246   6.522   2.472  14.135  0.1300 -0.5479 -0.4230
 7252TIP3    H143247   6.522   2.460  14.230  0.3210 -0.7685 -0.4511
 7252TIP3    H243248   6.603   2.518  14.117 -1.8254  3.5566  0.0240
 7253TIP3   OH243249   6.284   1.453  13.658  0.4774  0.0339  0.1320
 7253TIP3    H143250   6.356   1.507  13.624  0.6897  0.2552  0.9084
 7253TIP3    H243251   6.275   1.382  13.595  0.7589  0.5160 -0.4620
 7254TIP3   OH243252   1.769   0.964   0.564  0.4166  0.0305 -0.1719
 7254TIP3    H143253   1.844   0.917   0.601  0.0646 -0.1237  0.3596
 7254TIP3    H243254   1.750   1.032   0.629  0.2358  0.2108 -0.4128
 7255TIP3   OH243255   0.720   4.603   0.742 -0.3178  0.0992  0.2628
 7255TIP3    H143256   0.740   4.691   0.773 -2.5119  0.7006  0.1791
 7255TIP3    H243257   0.792   4.549   0.774 -0.5354  1.3380  3.1687
 7256TIP3   OH243258   0.895   5.650  13.247  0.2358  0.3100  0.0639
 7256TIP3    H143259   0.805   5.658  13.215  0.0572  0.0967  0.5102
 7256TIP3    H243260   0.924   5.564  13.218  0.6047  0.7230 -0.8372
 7257TIP3   OH243261   2.333   3.985   4.102 -0.0581 -0.6618 -0.4864
 7257TIP3    H143262   2.413   4.036   4.094 -0.2812  0.2205  2.0485
 7257TIP3    H243263   2.361   3.901   4.139 -0.2608 -0.3441  0.4259
 7258TIP3   OH243264   4.209   0.211   1.245 -0.1243  0.2118  0.3603
 7258TIP3    H143265   4.237   0.271   1.314  1.3608  2.8740 -2.3130
 7258TIP3    H243266   4.289   0.191   1.197 -1.2819 -0.4623 -1.3815
 7259TIP3   OH243267   4.109   6.607  12.849 -0.6539  0.0672  0.3799
 7259TIP3    H143268   4.063   6.568  12.775 -0.3148  3.3465 -1.7842
 7259TIP3    H243269   4.202   6.591  12.831 -0.5112  1.7250 -0.5406
 7260TIP3   OH243270   2.086   4.862  16.787 -0.0084 -0.4094 -0.0698
 7260TIP3    H143271   2.034   4.907  16.721 -0.6428 -2.0833 -0.7740
 7260TIP3    H243272   2.024   4.804  16.830  0.4293  0.5082  1.9234
 7261TIP3   OH243273   6.538   6.299  12.766 -0.3185  0.6031 -0.0739
 7261TIP3    H143274   6.500   6.326  12.683  0.9120 -0.2586 -0.9593
 7261TIP3    H243275   6.526   6.204  12.768 -0.3600  0.6175  0.7438
 7262TIP3   OH243276   4.325   3.987  12.838 -0.5547  1.0299 -0.0411
 7262TIP3    H143277   4.403   4.012  12.788 -0.1811 -0.7622 -0.4309
 7262TIP3    H243278   4.314   4.057  12.902  2.1901  0.6818  0.9406
 7263TIP3   OH243279   6.509   0.834   1.835 -0.1680 -0.6428 -0.1700
 7263TIP3    H143280   6.529   0.871   1.921 -0.2580  0.1775 -0.4954
 7263TIP3    H243281   6.506   0.740   1.850  0.8374 -0.5865  0.5241
 7264TIP3   OH243282   5.779   4.492   6.508 -0.7353  0.0787 -0.2188
 7264TIP3    H143283   5.812   4.576   6.476  1.0782 -0.9166 -1.1249
 7264TIP3    H243284   5.687   4.491   6.485 -0.6543  1.5946 -0.6660
 7265TIP3   OH243285   2.085   2.720   5.209 -0.3033  0.4827 -0.4178
 7265TIP3    H143286   2.163   2.664   5.210 -0.4578  0.2671  0.0212
 7265TIP3    H243287   2.118   2.808   5.195 -0.0686  0.2686 -1.3041
 7266TIP3   OH243288   3.303   1.705  16.687 -0.2137  0.0634 -0.1779
 7266TIP3    H143289   3.216   1.694  16.650 -0.3895  2.3491 -0.6234
 7266TIP3    H243290   3.296   1.781  16.744  1.7640  1.2208 -1.3286
 7267TIP3   OH243291   4.943   0.549   1.357  0.0418  0.0902 -0.3398
 7267TIP3    H143292   5.024   0.592   1.386 -0.3590  0.4516  0.2806
 7267TIP3    H243293   4.935   0.473   1.414 -0.6160  0.6597  0.3506
 7268TIP3   OH243294   3.310   1.453  12.455 -0.5838 -0.0237 -0.0193
 7268TIP3    H143295   3.374   1.419  12.517 -1.2302 -0.0079  0.6768
 7268TIP3    H243296   3.274   1.531  12.497 -1.0019  0.0106 -0.4282
 7269TIP3   OH243297   6.335   6.775   5.505 -0.1454 -0.7934  1.0579
 7269TIP3    H143298   6.278   6.699   5.499 -0.8028 -0.3000  0.8542
 7269TIP3    H243299   6.408   6.755   5.446  1.2372 -2.5239  3.2257
 7270TIP3   OH243300   2.730   0.873  11.046  0.4334  0.2393  0.6858
 7270TIP3    H143301   2.653   0.929  11.037 -0.8313 -1.3050  1.3338
 7270TIP3    H243302   2.750   0.845  10.956 -0.8305 -0.6902  0.6786
 7271TIP3   OH243303   1.546   5.949   6.633  0.0437  0.4254  0.4022
 7271TIP3    H143304   1.512   6.036   6.613  0.0716 -0.0297 -1.9728
 7271TIP3    H243305   1.468   5.896   6.650 -0.1063  0.5386  0.0855
 7272TIP3   OH243306   5.636   1.529   6.474  0.1917  0.1064 -0.6755
 7272TIP3    H143307   5.594   1.611   6.502  0.1488  0.1471 -0.8561
 7272TIP3    H243308   5.720   1.529   6.519 -0.4266 -0.5004  0.5499
 7273TIP3   OH243309   1.103   4.836   3.827  0.2235  0.1761 -0.1732
 7273TIP3    H143310   1.009   4.843   3.812 -0.0121 -2.0795 -0.0113
 7273TIP3    H243311   1.112   4.805   3.917  1.0332 -1.1328 -0.6735
 7274TIP3   OH243312   6.483   5.608   1.181  0.2436 -0.4606  0.1287
 7274TIP3    H143313   6.447   5.688   1.141  1.3419  0.4447  0.8748
 7274TIP3    H243314   6.410   5.573   1.233 -0.1518  0.2565  0.0734
 7275TIP3   OH243315   6.348   4.446   4.559 -0.3561 -0.1780  0.1358
 7275TIP3    H143316   6.275   4.439   4.621 -1.2117  1.0200 -0.7059
 7275TIP3    H243317   6.374   4.355   4.543 -1.3836 -0.6089  0.7770
 7276TIP3   OH243318   0.711   4.593   4.291  0.1534  0.1333 -0.4638
 7276TIP3    H143319   0.752   4.542   4.221 -1.5779 -1.1010 -0.6504
 7276TIP3    H243320   0.620   4.565   4.291 -0.4228  1.8202  0.7737
 7277TIP3   OH243321   5.432   5.094  10.600  0.7119  0.5696 -0.0177
 7277TIP3    H143322   5.486   5.173  10.597  0.7795  0.5160 -0.2403
 7277TIP3    H243323   5.484   5.031  10.650 -1.1669  2.0384  4.3556
 7278TIP3   OH243324   4.675   0.259   4.654  0.2077 -0.1581 -0.0863
 7278TIP3    H143325   4.739   0.219   4.712  0.0221  1.4808  1.3506
 7278TIP3    H243326   4.705   0.349   4.643 -1.9490  0.7697  0.9064
 7279TIP3   OH243327   0.171   0.340  16.215  0.1992  0.3945  0.0907
 7279TIP3    H143328   0.203   0.279  16.148 -2.4363  1.2661 -2.1402
 7279TIP3    H243329   0.231   0.415  16.209  0.3137  0.2405 -0.9732
 7280TIP3   OH243330   2.123   0.238   0.894  0.4215  0.4144  0.4907
 7280TIP3    H143331   2.151   0.162   0.945 -1.2563  0.2682  1.2533
 7280TIP3    H243332   2.121   0.208   0.804  0.8212 -0.1163  0.6537
 7281TIP3   OH243333   3.098   0.720   4.837 -0.0914  0.1685  0.2973
 7281TIP3    H143334   3.168   0.727   4.901 -0.5051 -1.9235  1.0399
 7281TIP3    H243335   3.137   0.674   4.763 -1.1972 -3.6369  1.8112
 7282TIP3   OH243336   6.099   5.886  10.614 -0.5309 -0.3283  0.0512
 7282TIP3    H143337   6.075   5.858  10.703  1.1298  2.2047  1.4385
 7282TIP3    H243338   6.192   5.866  10.607  0.1397  2.3595  0.2181
 7283TIP3   OH243339   4.030   3.625   6.161  0.3212  0.3043 -0.3604
 7283TIP3    H143340   4.035   3.538   6.202 -0.5762 -0.2869 -1.4265
 7283TIP3    H243341   3.975   3.676   6.220  0.5202  0.0270  0.0704
 7284TIP3   OH243342   6.346   1.660  12.824  0.0040  0.2918 -0.4099
 7284TIP3    H143343   6.286   1.707  12.766  0.2493  0.2967 -0.6639
 7284TIP3    H243344   6.337   1.568  12.799  1.8066  0.5050 -2.0859
 7285TIP3   OH243345   3.683   0.776   5.397  0.3715  1.0562  0.4976
 7285TIP3    H143346   3.631   0.853   5.377  0.3891  1.1423  0.7778
 7285TIP3    H243347   3.719   0.793   5.484  0.1169  0.5908  0.6943
 7286TIP3   OH243348   5.175   6.178  11.338 -0.0758  0.2012 -0.4277
 7286TIP3    H143349   5.232   6.102  11.355  0.6651  0.6592 -0.8042
 7286TIP3    H243350   5.131   6.157  11.256  0.3692  0.3166 -0.6965
 7287TIP3   OH243351   5.971   0.532  17.042 -0.0802  0.2014 -0.3622
 7287TIP3    H143352   5.981   0.599  17.109  0.7453 -0.3127  0.0333
 7287TIP3    H243353   5.952   0.582  16.962 -1.1750  0.8134  0.2454
 7288TIP3   OH243354   1.930   4.876  11.412 -0.8122  0.5775 -0.0541
 7288TIP3    H143355   1.956   4.815  11.343 -2.1506  1.0433 -0.9997
 7288TIP3    H243356   1.876   4.824  11.471  0.1739  0.2287  0.5744
 7289TIP3   OH243357   4.860   3.234   4.406 -0.0343  0.4044  0.3834
 7289TIP3    H143358   4.956   3.235   4.403  0.0079 -1.4117  0.1767
 7289TIP3    H243359   4.838   3.183   4.483 -0.7692 -1.6222 -1.0758
 7290TIP3   OH243360   6.031   5.393   0.686 -0.0438  0.0803 -0.6864
 7290TIP3    H143361   6.117   5.436   0.691  0.4103 -0.9450  2.5994
 7290TIP3    H243362   5.970   5.456   0.724 -0.1017 -0.5305  0.2558
 7291TIP3   OH243363   2.123   4.879   2.340 -0.3405  0.0889  0.0665
 7291TIP3    H143364   2.060   4.878   2.412 -0.1566  0.3199  0.2369
 7291TIP3    H243365   2.179   4.803   2.357  0.1775  0.5706  0.6137
 7292TIP3   OH243366   5.988   3.673   3.132 -0.2600 -0.3562  0.7693
 7292TIP3    H143367   6.031   3.677   3.218  1.2023  0.3607  0.0474
 7292TIP3    H243368   5.971   3.580   3.117  0.6433 -0.6162  1.2948
 7293TIP3   OH243369   2.152   1.666  15.704  0.2798  0.3596  1.0747
 7293TIP3    H143370   2.094   1.597  15.670 -0.8668  1.5143  0.5766
 7293TIP3    H243371   2.093   1.728  15.747  1.2526  1.1549  1.3042
 7294TIP3   OH243372   2.096   0.921  17.044 -0.0784 -0.1703 -0.0829
 7294TIP3    H143373   2.052   0.910  16.959  2.3748 -0.5595 -1.3746
 7294TIP3    H243374   2.148   0.841  17.055  0.4507  0.3360  1.3124
 7295TIP3   OH243375   3.418   3.766   1.565 -0.2958 -0.9614 -0.5289
 7295TIP3    H143376   3.391   3.711   1.638  0.1746  1.3850  1.5470
 7295TIP3    H243377   3.513   3.771   1.571 -0.3445  0.3292 -0.4293
 7296TIP3   OH243378   0.915   2.836  16.895 -0.1318 -0.0757  0.4275
 7296TIP3    H143379   0.999   2.854  16.852 -0.3111 -0.0229  0.0918
 7296TIP3    H243380   0.915   2.741  16.908 -0.3001 -0.1661 -0.1815
 7297TIP3   OH243381   4.134   4.658   0.823 -0.0674  0.4391 -0.7344
 7297TIP3    H143382   4.119   4.708   0.903  2.2382  1.0524 -0.6142
 7297TIP3    H243383   4.072   4.585   0.828 -0.1423  0.6019  1.4719
 7298TIP3   OH243384   4.913   6.256  14.254 -0.2830  0.2371 -0.1804
 7298TIP3    H143385   4.846   6.312  14.216 -0.1058 -0.7459 -2.0606
 7298TIP3    H243386   4.980   6.249  14.185  0.6975 -0.5572  0.8159
 7299TIP3   OH243387   0.343   6.055  12.042  0.0750 -0.1506  0.3110
 7299TIP3    H143388   0.267   6.028  12.095  0.2682 -1.4608 -0.0298
 7299TIP3    H243389   0.399   6.102  12.104 -0.6413  0.1406  0.7600
 7300TIP3   OH243390   0.283   4.204  16.295  0.3852  1.2497  0.2293
 7300TIP3    H143391   0.255   4.116  16.271  0.5966  0.0364  3.8407
 7300TIP3    H243392   0.338   4.233  16.222  1.6628 -2.2814 -0.3694
 7301TIP3   OH243393   6.792   4.248  14.076  0.1987  0.2647  0.2233
 7301TIP3    H143394   6.740   4.264  14.155  0.2343  0.4455  0.2114
 7301TIP3    H243395   6.836   4.331  14.060  1.6460 -0.2999  1.0784
 7302TIP3   OH243396   0.381   1.512  12.652  0.0509  0.2849  0.3113
 7302TIP3    H143397   0.423   1.562  12.583  2.3820 -0.3969  1.1247
 7302TIP3    H243398   0.445   1.512  12.724 -1.3274 -0.9217  1.6105
 7303TIP3   OH243399   0.834   4.129  16.132 -0.0495  0.2184  0.5423
 7303TIP3    H143400   0.800   4.050  16.090 -0.3604  0.5512  0.1686
 7303TIP3    H243401   0.870   4.097  16.215  0.5491 -0.4410  0.0492
 7304TIP3   OH243402   4.392   1.263   4.243  0.2061  0.1823  0.3690
 7304TIP3    H143403   4.340   1.243   4.165  0.5428  0.2037  0.1382
 7304TIP3    H243404   4.400   1.358   4.242 -0.2531  0.2256  0.7298
 7305TIP3   OH243405   5.520   0.066   3.213 -0.1560 -0.0729 -0.1745
 7305TIP3    H143406   5.532   0.157   3.241 -1.2964 -0.2891  1.1708
 7305TIP3    H243407   5.608   0.032   3.201  0.3162  0.8300  0.6136
 7306TIP3   OH243408   5.564   1.355   5.922  0.5022 -0.3800  0.1604
 7306TIP3    H143409   5.577   1.339   6.015  0.7093 -1.0621  0.0228
 7306TIP3    H243410   5.542   1.448   5.916 -2.2363 -0.8709  1.1621
 7307TIP3   OH243411   1.114   3.025  15.574  0.4258  0.1198  0.2779
 7307TIP3    H143412   1.170   3.003  15.500 -0.7181  1.5075 -1.0674
 7307TIP3    H243413   1.026   3.002  15.546  0.0827 -0.4323  1.6925
 7308TIP3   OH243414   3.324   5.222  15.876 -0.9549  0.8450 -0.2497
 7308TIP3    H143415   3.312   5.158  15.946 -0.3870 -1.4234 -2.1154
 7308TIP3    H243416   3.414   5.252  15.885 -0.7315  0.1883 -0.3060
 7309TIP3   OH243417   5.840   5.428  13.310 -0.5735  0.1817 -0.1228
 7309TIP3    H143418   5.830   5.382  13.227 -0.9311  0.9639 -0.5278
 7309TIP3    H243419   5.897   5.503  13.288  1.1390 -0.7919  0.8064
 7310TIP3   OH243420   6.433   0.893  15.948  0.2741  0.0874 -0.0567
 7310TIP3    H143421   6.402   0.893  16.038 -0.5030 -1.8811 -0.2818
 7310TIP3    H243422   6.479   0.810  15.937 -0.0580  0.0624 -1.6029
 7311TIP3   OH243423   3.357   5.598  10.957  0.1623 -0.4821  0.3749
 7311TIP3    H143424   3.399   5.554  11.031 -2.5670 -0.9802  1.7804
 7311TIP3    H243425   3.358   5.691  10.980  1.5592 -0.3222 -0.2347
 7312TIP3   OH243426   0.050   3.633   5.746 -0.0388 -0.0434  0.8400
 7312TIP3    H143427   0.006   3.691   5.808 -1.0455 -1.4180  1.4726
 7312TIP3    H243428   0.120   3.593   5.797  0.9268  0.9027  0.2876
 7313TIP3   OH243429   1.147   3.751   5.192 -0.1672 -0.0984  0.2969
 7313TIP3    H143430   1.223   3.778   5.243  0.6736  0.6991 -1.2918
 7313TIP3    H243431   1.182   3.731   5.105 -1.9006  1.2815 -0.7937
 7314TIP3   OH243432   6.131   2.876  14.974 -0.1804  0.1542  0.0608
 7314TIP3    H143433   6.180   2.840  14.900 -0.0869 -1.9203  1.0760
 7314TIP3    H243434   6.197   2.889  15.042 -0.6951 -0.6040  0.7134
 7315TIP3   OH243435   2.295   5.620   4.297  0.0764  0.3574  0.0070
 7315TIP3    H143436   2.361   5.660   4.240  0.4626 -0.2108  0.0614
 7315TIP3    H243437   2.344   5.572   4.363 -0.3626  1.3600  1.0996
 7316TIP3   OH243438   5.877   3.689   0.315 -0.3688 -1.0396  0.2596
 7316TIP3    H143439   5.835   3.708   0.231 -0.7630  0.1440  0.7087
 7316TIP3    H243440   5.936   3.616   0.296  1.4411  0.8013 -1.6576
 7317TIP3   OH243441   6.049   1.572   0.139  0.1635 -0.1522  0.0313
 7317TIP3    H143442   6.049   1.565   0.234  3.2227  0.7817  0.2164
 7317TIP3    H243443   6.018   1.487   0.108 -0.3765 -0.6517  1.8501
 7318TIP3   OH243444   5.046   5.372  10.163  0.3649 -0.4227  0.7241
 7318TIP3    H143445   5.115   5.390  10.098 -1.7559  0.6544 -1.3905
 7318TIP3    H243446   5.058   5.440  10.229  1.1096 -0.0329  0.2104
 7319TIP3   OH243447   5.906   1.588  16.587  0.5345 -0.1171  0.1020
 7319TIP3    H143448   5.975   1.621  16.530 -0.4629 -0.7284 -1.5231
 7319TIP3    H243449   5.845   1.544  16.528 -1.1436  0.2116  1.5149
 7320TIP3   OH243450   3.184   3.387   1.940  0.2924  0.3747 -0.7319
 7320TIP3    H143451   3.090   3.388   1.959  0.3384 -1.6584 -0.1601
 7320TIP3    H243452   3.218   3.466   1.983 -1.1325  1.1051 -0.8997
 7321TIP3   OH243453   0.194   0.377   3.888 -0.2294 -0.0353  0.1369
 7321TIP3    H143454   0.148   0.432   3.951 -1.4058  1.5236 -1.9220
 7321TIP3    H243455   0.145   0.295   3.887 -1.9455  0.9309 -0.6745
 7322TIP3   OH243456   2.528   3.480  12.057 -0.5379 -0.1428  0.2049
 7322TIP3    H143457   2.468   3.552  12.077 -0.5147 -0.5211  1.7848
 7322TIP3    H243458   2.604   3.523  12.017 -1.3745  0.4628 -0.7811
 7323TIP3   OH243459   3.531   4.148   1.701  0.2362 -0.1277 -0.2080
 7323TIP3    H143460   3.615   4.193   1.712  1.4713 -2.4427  0.3712
 7323TIP3    H243461   3.484   4.164   1.782  0.6390  0.1673 -0.0285
 7324TIP3   OH243462   2.160   4.805   4.178  0.1484 -0.2998 -0.3384
 7324TIP3    H143463   2.170   4.709   4.179 -0.2875 -0.3668 -1.4305
 7324TIP3    H243464   2.203   4.833   4.098  0.0950  0.4069 -0.1275
 7325TIP3   OH243465   1.006   4.219  14.403 -0.7041  0.3129 -0.5645
 7325TIP3    H143466   1.082   4.273  14.379  0.1030  0.4278  2.0130
 7325TIP3    H243467   1.036   4.129  14.393 -0.7413  0.3395 -0.9601
 7326TIP3   OH243468   6.296   6.435   1.003 -0.3098  0.1134  0.1925
 7326TIP3    H143469   6.226   6.499   1.000 -0.6312  0.2211  4.2810
 7326TIP3    H243470   6.259   6.356   0.963 -1.7672  0.9700 -0.2110
 7327TIP3   OH243471   5.999   2.712   5.141  0.1500 -0.7205  0.1843
 7327TIP3    H143472   6.039   2.632   5.177 -0.5178 -1.0456  0.2216
 7327TIP3    H243473   6.061   2.782   5.164 -0.0975 -0.9539  1.7181
 7328TIP3   OH243474   3.253   1.830   4.021  0.0506 -0.1405 -0.0272
 7328TIP3    H143475   3.267   1.793   4.108  1.1246 -1.2723 -0.6441
 7328TIP3    H243476   3.272   1.923   4.031  0.4548 -0.3101  0.8798
 7329TIP3   OH243477   6.770   4.212   1.807  0.1679 -0.2976 -0.4736
 7329TIP3    H143478   6.792   4.138   1.751  2.3804 -0.8287  0.9691
 7329TIP3    H243479   6.805   4.289   1.761  2.8177 -0.8336  0.5012
 7330TIP3   OH243480   0.500   1.453   0.340  0.1118  0.5281  0.2616
 7330TIP3    H143481   0.512   1.373   0.392  1.6919  0.2701 -0.4702
 7330TIP3    H243482   0.518   1.524   0.402  0.4568  0.2711  0.4581
 7331TIP3   OH243483   3.438   1.451  13.206  0.2740 -1.0150 -0.2000
 7331TIP3    H143484   3.431   1.543  13.184  0.5128 -0.5408  1.5681
 7331TIP3    H243485   3.379   1.439  13.281 -0.0880 -2.3946 -0.6660
 7332TIP3   OH243486   1.174   4.107  16.559 -0.1270  0.3289 -0.9955
 7332TIP3    H143487   1.133   4.028  16.596  1.6825 -0.0679  0.3348
 7332TIP3    H243488   1.102   4.157  16.521 -1.8918 -0.1655  1.4894
 7333TIP3   OH243489   3.462   5.851   6.344  0.1891 -0.2235  0.0043
 7333TIP3    H143490   3.394   5.809   6.397 -1.6356  1.4063 -0.9139
 7333TIP3    H243491   3.439   5.830   6.254 -0.1609  1.7971 -0.4115
 7334TIP3   OH243492   0.466   0.339  12.056  0.3810  0.5618  0.4479
 7334TIP3    H143493   0.513   0.392  11.992  1.4466  1.0942  1.6199
 7334TIP3    H243494   0.389   0.391  12.079 -1.1552 -0.5145 -1.8183
 7335TIP3   OH243495   3.273   1.912   0.633 -0.1115 -0.2648 -0.1913
 7335TIP3    H143496   3.183   1.941   0.651  0.2007  1.4993 -1.1871
 7335TIP3    H243497   3.313   1.987   0.588  1.6081 -1.3375 -0.5227
 7336TIP3   OH243498   2.785   4.140  16.287  0.2587  0.1217 -0.3604
 7336TIP3    H143499   2.732   4.217  16.307 -1.8271 -1.3644  0.2224
 7336TIP3    H243500   2.729   4.066  16.310  1.8485 -1.5994 -1.6937
 7337TIP3   OH243501   0.725   0.462  15.551 -0.1328 -0.5736  0.3928
 7337TIP3    H143502   0.751   0.547  15.514 -1.0322 -0.6038 -0.3267
 7337TIP3    H243503   0.771   0.397  15.497  0.3745 -0.5659  0.8006
 7338TIP3   OH243504   2.278   2.174   6.579  0.1365  0.0401 -0.1171
 7338TIP3    H143505   2.361   2.129   6.567  1.3009  2.0330  0.0193
 7338TIP3    H243506   2.212   2.106   6.566  1.7727 -1.7086  0.2594
 7339TIP3   OH243507   6.655   1.419   1.530 -0.5440  0.9906  0.1692
 7339TIP3    H143508   6.727   1.415   1.594 -0.8833 -3.2503  0.6077
 7339TIP3    H243509   6.698   1.444   1.448  1.0502  0.6549  0.8496
 7340TIP3   OH243510   3.562   1.027  15.860 -0.3275 -0.3865 -0.3103
 7340TIP3    H143511   3.638   1.084  15.849 -0.5497 -0.5085 -3.2362
 7340TIP3    H243512   3.599   0.939  15.868 -0.0977 -0.2101  0.6176
 7341TIP3   OH243513   0.872   3.906  11.619 -0.7839 -0.3335  0.1096
 7341TIP3    H143514   0.797   3.855  11.649 -0.8289 -0.6010 -0.4540
 7341TIP3    H243515   0.840   3.954  11.543 -0.7047  0.4382  0.5526
 7342TIP3   OH243516   1.095   3.503   0.174 -0.5663  0.5118  0.1748
 7342TIP3    H143517   1.119   3.505   0.082  0.5708 -1.0408  0.4037
 7342TIP3    H243518   1.057   3.589   0.191  0.9536  1.5092 -1.2717
 7343TIP3   OH243519   5.824   1.567   2.099  0.4143  0.0538 -0.4675
 7343TIP3    H143520   5.802   1.481   2.063 -2.3823 -0.5449  2.2883
 7343TIP3    H243521   5.784   1.629   2.038  0.9124 -0.6050 -1.5050
 7344TIP3   OH243522   6.665   5.078  15.925  0.0544 -0.4825  0.5104
 7344TIP3    H143523   6.669   5.044  16.015  0.6028 -0.0718  0.6473
 7344TIP3    H243524   6.572   5.084  15.906 -0.0961  0.4644  1.4558
 7345TIP3   OH243525   0.604   5.445  12.989 -0.2019 -0.0076 -0.0069
 7345TIP3    H143526   0.589   5.457  12.896 -0.8919  1.9022  0.3064
 7345TIP3    H243527   0.533   5.387  13.017 -0.6905  0.3579 -0.4662
 7346TIP3   OH243528   3.208   4.533  14.182 -0.3122 -0.4051 -0.1087
 7346TIP3    H143529   3.260   4.500  14.109  0.4969  1.7184 -0.5905
 7346TIP3    H243530   3.215   4.466  14.249  0.3815 -1.6252 -1.3468
 7347TIP3   OH243531   4.523   3.482  12.521  0.4244 -0.6664  0.8274
 7347TIP3    H143532   4.607   3.511  12.558  0.3702  0.0581  0.4029
 7347TIP3    H243533   4.548   3.423  12.450  0.5848 -0.4389  0.6901
 7348TIP3   OH243534   5.499   0.132  13.450 -0.0908  0.0357  0.4710
 7348TIP3    H143535   5.435   0.141  13.379  0.6148 -1.8564 -0.4955
 7348TIP3    H243536   5.449   0.145  13.530 -0.6562  3.6570 -0.3211
 7349TIP3   OH243537   4.836   5.352   0.436 -0.3338 -0.5679  0.0195
 7349TIP3    H143538   4.853   5.427   0.379 -1.2860 -0.6989 -0.4563
 7349TIP3    H243539   4.885   5.280   0.395  1.0432 -0.1036  0.7901
 7350TIP3   OH243540   6.342   1.120  11.594 -0.0351 -0.5174 -0.0025
 7350TIP3    H143541   6.411   1.129  11.529  1.7991 -1.4543  1.7214
 7350TIP3    H243542   6.317   1.028  11.591 -1.0201 -0.2510 -0.3940
 7351TIP3   OH243543   0.674   3.159  15.564 -0.2340 -0.5876  1.1782
 7351TIP3    H143544   0.583   3.186  15.578 -1.4377 -1.8414 -2.9472
 7351TIP3    H243545   0.702   3.210  15.488  1.3576 -2.6144  0.3298
 7352TIP3   OH243546   3.430   2.824   1.578  0.3086  0.0905  0.3069
 7352TIP3    H143547   3.403   2.774   1.655  0.4482 -3.0540 -1.5418
 7352TIP3    H243548   3.523   2.842   1.593  0.2519 -0.1707  0.9983
 7353TIP3   OH243549   2.779   1.530  11.067  0.7897  0.5348 -0.2710
 7353TIP3    H143550   2.796   1.556  11.158 -0.7055 -1.2537  0.5894
 7353TIP3    H243551   2.714   1.593  11.036  0.3237  0.3890  0.3708
 7354TIP3   OH243552   5.018   1.316   2.164 -0.0908  0.3596 -0.3495
 7354TIP3    H143553   5.007   1.273   2.248  0.7522  0.9608  0.0861
 7354TIP3    H243554   5.015   1.410   2.184  0.8534  0.5121 -0.8640
 7355TIP3   OH243555   3.497   6.806   3.871  0.2115 -0.0233  0.0197
 7355TIP3    H143556   3.566   6.863   3.837 -0.5766  0.0739 -1.4669
 7355TIP3    H243557   3.423   6.864   3.887 -0.3486 -0.4876 -0.8023
 7356TIP3   OH243558   3.765   4.252   5.623  0.2901 -0.0747  0.2840
 7356TIP3    H143559   3.716   4.192   5.567  3.4140 -1.3318 -1.3488
 7356TIP3    H243560   3.811   4.195   5.684  0.4573  0.9891  1.1838
 7357TIP3   OH243561   0.750   6.268   3.406 -0.4376  0.3681  0.1626
 7357TIP3    H143562   0.797   6.306   3.480  1.6514  0.5027 -1.1584
 7357TIP3    H243563   0.658   6.289   3.423 -0.0415  0.4581  2.6462
 7358TIP3   OH243564   1.257   1.139   2.062 -0.1106  0.0389  0.1156
 7358TIP3    H143565   1.195   1.123   2.133  1.1706  1.6614  1.7136
 7358TIP3    H243566   1.202   1.153   1.985 -1.5886 -1.0679  0.9126
 7359TIP3   OH243567   4.073   1.864  12.426  0.0313  0.0481  0.0015
 7359TIP3    H143568   4.163   1.868  12.457 -0.7596  2.0113  2.3606
 7359TIP3    H243569   4.043   1.776  12.447  0.7166  0.1223  1.3653
 7360TIP3   OH243570   3.268   5.936  14.224 -0.4720  0.4665  0.1261
 7360TIP3    H143571   3.340   5.995  14.245 -0.6078  0.6544  0.0664
 7360TIP3    H243572   3.298   5.887  14.148 -0.6988  1.0715 -0.3664
 7361TIP3   OH243573   6.198   2.582  17.248 -0.0767  0.5066  0.2983
 7361TIP3    H143574   6.247   2.637  17.310 -0.7779  0.8823  0.5221
 7361TIP3    H243575   6.218   2.618  17.162 -0.5787  1.1459  0.4487
 7362TIP3   OH243576   2.373   6.315   3.846  0.0146 -0.1339 -0.6429
 7362TIP3    H143577   2.310   6.261   3.893  0.2037  0.8304  0.7805
 7362TIP3    H243578   2.456   6.299   3.890  0.1069  1.1447 -0.3152
 7363TIP3   OH243579   5.088   0.939   0.581 -0.0907  0.0760  0.1712
 7363TIP3    H143580   5.091   0.892   0.664  0.5429 -1.0712 -0.4808
 7363TIP3    H243581   5.057   1.027   0.605  0.5041 -0.0882  1.6706
 7364TIP3   OH243582   6.588   4.483  12.936 -0.4397 -0.5945  0.5281
 7364TIP3    H143583   6.530   4.558  12.950 -0.5948 -0.1556 -2.0464
 7364TIP3    H243584   6.531   4.407  12.944 -0.6295 -0.3750  1.4469
 7365TIP3   OH243585   3.098   5.840  11.259  0.4450  1.0110 -0.7296
 7365TIP3    H143586   3.179   5.875  11.294 -0.0633  1.0091  0.5032
 7365TIP3    H243587   3.124   5.790  11.181  1.5181  1.6038 -0.7651
 7366TIP3   OH243588   1.943   1.760  11.757  0.7490  0.3321  0.1293
 7366TIP3    H143589   1.962   1.845  11.797  0.9178  1.1371 -1.6093
 7366TIP3    H243590   1.854   1.740  11.787 -0.9313  3.0362 -2.4896
 7367TIP3   OH243591   4.910   3.785   5.491  0.8973 -0.6448 -0.1279
 7367TIP3    H143592   4.834   3.763   5.437  0.5023 -0.2147  0.2327
 7367TIP3    H243593   4.942   3.701   5.523  0.2165 -0.8005  0.1778
 7368TIP3   OH243594   4.330   4.318  14.337 -0.6963 -0.1509  0.1917
 7368TIP3    H143595   4.375   4.401  14.330  2.7335 -1.9595 -4.3874
 7368TIP3    H243596   4.394   4.258  14.376 -1.7346 -1.4044  0.0708
 7369TIP3   OH243597   0.308   3.028   2.137 -0.0391 -0.0205 -0.0196
 7369TIP3    H143598   0.375   3.044   2.203  0.0402 -0.3547 -0.0162
 7369TIP3    H243599   0.245   3.099   2.149  0.5271  0.5398 -0.2994
 7370TIP3   OH243600   5.555   1.206   3.528 -0.1108 -0.0700  0.0475
 7370TIP3    H143601   5.484   1.144   3.515 -0.2878  0.3388 -0.9859
 7370TIP3    H243602   5.614   1.192   3.454 -0.8898  1.9804 -1.0274
 7371TIP3   OH243603   5.177   3.736   6.067  0.3148  0.2574 -0.0370
 7371TIP3    H143604   5.107   3.671   6.071 -0.6471  1.3028  0.8376
 7371TIP3    H243605   5.247   3.699   6.121 -0.6411  0.3979  1.3509
 7372TIP3   OH243606   6.498   1.317   0.777 -0.0017  0.1366  0.3977
 7372TIP3    H143607   6.550   1.303   0.857  1.3405 -0.3794 -0.5211
 7372TIP3    H243608   6.425   1.256   0.786 -0.7338  1.1615  1.9082
 7373TIP3   OH243609   5.228   4.326   0.154 -0.0414 -0.6534 -0.0322
 7373TIP3    H143610   5.292   4.294   0.217 -0.4806 -2.6473 -0.5370
 7373TIP3    H243611   5.281   4.357   0.080  0.7030  4.5898  2.2745
 7374TIP3   OH243612   4.520   4.518  14.404  0.4865 -0.1589  0.0339
 7374TIP3    H143613   4.614   4.533  14.419  0.2016  3.2395 -0.8075
 7374TIP3    H243614   4.480   4.604  14.413 -2.3486 -1.2307 -1.2303
 7375TIP3   OH243615   4.725   1.825   2.633  0.1501 -0.7675 -0.2919
 7375TIP3    H143616   4.678   1.870   2.563 -0.6001 -2.5170 -0.9534
 7375TIP3    H243617   4.708   1.732   2.618 -0.8481 -1.1919  2.7278
 7376TIP3   OH243618   2.746   6.656   0.376 -0.1354  0.1440  0.0490
 7376TIP3    H143619   2.702   6.592   0.432 -0.5016  0.0451 -0.3484
 7376TIP3    H243620   2.831   6.616   0.357 -0.8178 -0.7947 -1.1771
 7377TIP3   OH243621   5.159   0.230  13.729 -0.3487  0.2580  0.0090
 7377TIP3    H143622   5.164   0.285  13.808  0.1381  0.7265 -0.3369
 7377TIP3    H243623   5.122   0.288  13.662  3.0279  1.2238 -1.2059
 7378TIP3   OH243624   3.343   5.480  16.779 -0.0488 -0.2399  0.2073
 7378TIP3    H143625   3.269   5.421  16.766 -0.8779  0.7508  0.3355
 7378TIP3    H243626   3.417   5.421  16.798 -0.8968 -1.2173  0.5811
 7379TIP3   OH243627   1.284   6.593   6.431  0.6837  0.1078  0.3051
 7379TIP3    H143628   1.261   6.668   6.485  2.0752  0.8869 -0.1346
 7379TIP3    H243629   1.240   6.608   6.348 -0.7346 -0.6490  0.8731
 7380TIP3   OH243630   6.754   1.509   0.949  0.3079 -0.1138  0.1976
 7380TIP3    H143631   6.696   1.464   1.010 -2.5291 -0.8072 -2.7213
 7380TIP3    H243632   6.784   1.440   0.889  0.9083  0.9068 -0.7148
 7381TIP3   OH243633   5.479   3.116  13.796  0.2034  0.0562 -0.1856
 7381TIP3    H143634   5.491   3.147  13.706  1.9208  0.4468  0.1378
 7381TIP3    H243635   5.519   3.029  13.798  0.6134  0.2487  0.3058
 7382TIP3   OH243636   0.276   4.641  11.218 -0.3817 -0.7698  0.0442
 7382TIP3    H143637   0.181   4.643  11.216 -0.4445  0.0350  1.9431
 7382TIP3    H243638   0.297   4.575  11.285  0.3611 -0.2810  0.3043
 7383TIP3   OH243639   2.141   5.641   5.558 -0.0425 -0.1994  0.0515
 7383TIP3    H143640   2.054   5.637   5.519  0.4319 -1.6128 -0.9743
 7383TIP3    H243641   2.147   5.562   5.611  0.4555  0.1221  0.4838
 7384TIP3   OH243642   2.298   2.701   2.961 -0.7430  0.0561 -0.9788
 7384TIP3    H143643   2.311   2.792   2.984 -0.5900  0.2541 -1.8319
 7384TIP3    H243644   2.363   2.653   3.013 -2.7148  0.0986  1.7166
 7385TIP3   OH243645   2.032   1.682  15.368 -0.6991  0.2700 -0.0000
 7385TIP3    H143646   1.977   1.629  15.310  0.4277 -0.6151 -0.2984
 7385TIP3    H243647   2.071   1.748  15.312  1.1345 -1.1646 -0.5082
 7386TIP3   OH243648   0.622   5.039   1.705 -0.5801  0.3229  0.3224
 7386TIP3    H143649   0.660   4.956   1.734  1.1954  0.7229 -0.7165
 7386TIP3    H243650   0.675   5.106   1.748  0.3166  0.8986 -1.5430
 7387TIP3   OH243651   4.461   4.970   1.508 -0.6390  0.2521 -0.6127
 7387TIP3    H143652   4.527   5.019   1.459 -0.5460  1.1242  0.3477
 7387TIP3    H243653   4.428   4.905   1.445  0.3369  0.5263 -1.4405
 7388TIP3   OH243654   1.307   4.134  11.579 -0.0107 -0.1220  0.3024
 7388TIP3    H143655   1.332   4.052  11.622  0.8676 -1.5351 -2.6613
 7388TIP3    H243656   1.390   4.179  11.564 -0.0584 -0.5561 -1.4918
 7389TIP3   OH243657   5.079   1.129  12.266  0.2339  0.1231 -0.1843
 7389TIP3    H143658   4.989   1.103  12.284 -0.4715  2.9820  0.9752
 7389TIP3    H243659   5.082   1.142  12.171  0.1943 -2.3891 -0.5818
 7390TIP3   OH243660   4.750   4.558  15.878  0.5349 -0.2552 -0.0829
 7390TIP3    H143661   4.690   4.546  15.951 -0.1765  0.6292 -0.5007
 7390TIP3    H243662   4.835   4.529  15.911 -0.2155 -2.1427  0.3045
 7391TIP3   OH243663   5.778   5.538   4.495  0.7323 -0.3413 -0.6110
 7391TIP3    H143664   5.792   5.604   4.427  1.7792  1.3879  1.1801
 7391TIP3    H243665   5.796   5.583   4.577 -1.7976 -1.9668  0.9829
 7392TIP3   OH243666   0.651   5.937  15.529  0.3545  0.4295 -0.1750
 7392TIP3    H143667   0.713   5.865  15.528  0.9793  0.9377  0.7440
 7392TIP3    H243668   0.680   5.994  15.601 -0.9524  0.8662  0.0477
 7393TIP3   OH243669   0.847   5.227   2.170 -0.3078  0.0601  0.6645
 7393TIP3    H143670   0.761   5.231   2.212 -0.7337 -2.7519  0.2660
 7393TIP3    H243671   0.859   5.314   2.132 -1.6680  1.4209  3.1161
 7394TIP3   OH243672   0.653   5.438  14.508  0.1597 -0.6767  0.1576
 7394TIP3    H143673   0.607   5.438  14.424 -0.8818  2.2805  0.6069
 7394TIP3    H243674   0.744   5.419  14.485 -0.1451 -0.1501 -1.6379
 7395TIP3   OH243675   2.129   1.199  15.536 -0.8221 -0.1235  0.4933
 7395TIP3    H143676   2.080   1.220  15.457  0.9274 -0.3964 -0.7361
 7395TIP3    H243677   2.143   1.104  15.532 -0.8980 -0.1796  1.2583
 7396TIP3   OH243678   1.377   4.346   1.476  0.7987 -0.0529  0.4314
 7396TIP3    H143679   1.330   4.282   1.423  3.4149  0.3573 -2.7078
 7396TIP3    H243680   1.314   4.416   1.492 -0.6771 -1.1725 -0.3148
 7397TIP3   OH243681   0.952   4.383  11.474 -0.2199  0.1451  0.5061
 7397TIP3    H143682   1.010   4.340  11.536  1.4371 -0.4846 -1.3595
 7397TIP3    H243683   0.980   4.350  11.388 -1.4395  2.0367 -0.6999
 7398TIP3   OH243684   1.569   3.641   5.125  0.0053  0.6504 -0.4121
 7398TIP3    H143685   1.641   3.651   5.187 -1.1299  1.6257  0.7787
 7398TIP3    H243686   1.546   3.549   5.130  1.5943  0.1478 -1.3424
 7399TIP3   OH243687   0.701   6.472  13.554 -0.1658 -0.0612  0.1983
 7399TIP3    H143688   0.735   6.416  13.484 -1.8739  0.7926 -1.4168
 7399TIP3    H243689   0.700   6.416  13.631 -0.8923 -1.9708 -1.1234
 7400TIP3   OH243690   5.326   3.088  12.708  0.0197  0.4246  0.4482
 7400TIP3    H143691   5.402   3.124  12.663 -0.0072 -0.5417 -0.4171
 7400TIP3    H243692   5.251   3.130  12.666  0.0024 -0.3217 -0.2754
 7401TIP3   OH243693   3.946   4.188  15.274  0.1399  0.3155  0.0319
 7401TIP3    H143694   4.027   4.232  15.246  0.0361 -1.4994 -3.5930
 7401TIP3    H243695   3.972   4.142  15.354  2.1049  1.3954  0.1058
 7402TIP3   OH243696   3.141   6.681   0.676  0.4015  0.5927  0.0037
 7402TIP3    H143697   3.132   6.709   0.766 -0.7020  2.5889 -0.6722
 7402TIP3    H243698   3.067   6.721   0.630  1.6247  0.7038 -2.0231
 7403TIP3   OH243699   4.597   5.841  17.184 -0.5980 -0.2352 -0.4077
 7403TIP3    H143700   4.679   5.793  17.190 -1.7016 -2.1622  0.1469
 7403TIP3    H243701   4.565   5.847  17.274 -1.3431 -0.0266 -0.6727
 7404TIP3   OH243702   1.955   2.558  14.539 -0.3677 -0.2523  0.4035
 7404TIP3    H143703   2.024   2.533  14.601 -1.6202 -0.7467  1.6404
 7404TIP3    H243704   1.907   2.628  14.583 -0.8579 -0.1361 -0.2992
 7405TIP3   OH243705   6.709   0.485  15.358  0.4524 -0.1375 -0.0019
 7405TIP3    H143706   6.702   0.482  15.454 -0.6371 -1.6654 -0.0935
 7405TIP3    H243707   6.674   0.401  15.329  0.9307  0.2351 -1.7466
 7406TIP3   OH243708   2.138   0.851   1.106  0.5058 -0.0776 -0.4464
 7406TIP3    H143709   2.092   0.930   1.135 -0.2519 -0.2837 -1.0695
 7406TIP3    H243710   2.230   0.868   1.128  0.5991  1.6380 -1.8951
 7407TIP3   OH243711   5.205   3.665   1.505  0.2087  0.1565  0.0526
 7407TIP3    H143712   5.295   3.688   1.485  0.2609 -0.2227 -0.1562
 7407TIP3    H243713   5.186   3.590   1.448 -0.4158  0.5789 -0.3078
 7408TIP3   OH243714   5.042   2.680   6.019 -0.1317  0.1086 -0.4215
 7408TIP3    H143715   5.127   2.640   6.003  0.4951  0.9616  0.6625
 7408TIP3    H243716   4.979   2.609   6.004  0.7749 -0.6218 -0.8904
 7409TIP3   OH243717   0.195   3.789  11.671  0.5837  0.0002 -0.1262
 7409TIP3    H143718   0.228   3.868  11.628  1.1526  0.3143  0.8548
 7409TIP3    H243719   0.227   3.717  11.617 -0.0246  0.4294 -1.0892
 7410TIP3   OH243720   1.338   3.427   5.956 -0.8450  0.0959  0.2452
 7410TIP3    H143721   1.433   3.430   5.944 -0.8466  2.4914  0.4377
 7410TIP3    H243722   1.317   3.334   5.949  1.2436 -0.3308 -1.8606
 7411TIP3   OH243723   1.596   5.569  15.859  0.1407  0.0715  0.2629
 7411TIP3    H143724   1.568   5.512  15.931 -2.0844  0.8154  0.0627
 7411TIP3    H243725   1.590   5.514  15.781  0.6346 -0.1801  0.4030
 7412TIP3   OH243726   2.460   5.325  13.246  0.0036  0.5247 -0.3005
 7412TIP3    H143727   2.383   5.317  13.190  0.2531 -1.0003 -0.4625
 7412TIP3    H243728   2.527   5.365  13.190 -0.0065 -0.1929 -0.8353
 7413TIP3   OH243729   2.980   5.455  12.433 -0.4528  0.1381  0.3179
 7413TIP3    H143730   2.983   5.546  12.461  0.3080 -0.1127  1.0989
 7413TIP3    H243731   2.944   5.458  12.344 -0.8811  1.1497  0.5158
 7414TIP3   OH243732   1.176   1.852   3.979  0.0529 -0.4038  0.5644
 7414TIP3    H143733   1.224   1.780   3.937  0.1786  0.1816 -0.3116
 7414TIP3    H243734   1.225   1.930   3.955 -1.5995  0.2752 -0.7886
 7415TIP3   OH243735   3.037   5.581   0.598  0.1710  0.1460 -0.3505
 7415TIP3    H143736   3.125   5.617   0.607  1.1934 -2.3538  0.3126
 7415TIP3    H243737   3.019   5.539   0.682 -1.6532  0.5557 -0.4951
 7416TIP3   OH243738   2.115   3.201   3.245  0.0676  0.4208 -0.0247
 7416TIP3    H143739   2.172   3.221   3.172 -0.0432  0.8080 -0.0045
 7416TIP3    H243740   2.155   3.124   3.286 -0.7449 -0.8265 -1.4446
 7417TIP3   OH243741   1.243   2.262  11.279  0.1923 -0.0477  0.2216
 7417TIP3    H143742   1.177   2.276  11.212 -1.8238 -1.0810  1.8737
 7417TIP3    H243743   1.194   2.262  11.361  2.2717 -0.8029  1.5483
 7418TIP3   OH243744   4.455   5.150  13.978  0.0656  0.2642 -0.4321
 7418TIP3    H143745   4.452   5.164  14.073  0.9381  1.8364 -0.6130
 7418TIP3    H243746   4.528   5.089  13.965  0.5842  0.8244 -0.1709
 7419TIP3   OH243747   4.888   5.002   5.327  0.2761  0.1944  0.2957
 7419TIP3    H143748   4.891   5.097   5.335 -0.7391  0.1033  2.2385
 7419TIP3    H243749   4.811   4.985   5.271  0.3687  0.4951  0.0734
 7420TIP3   OH243750   2.410   0.926  13.893  0.7846  0.0058  0.1391
 7420TIP3    H143751   2.391   0.885  13.809  1.2626  0.9376 -0.4425
 7420TIP3    H243752   2.336   0.904  13.949 -0.2720  0.6246 -0.9868
 7421TIP3   OH243753   3.289   5.893  14.889  1.3313 -0.1855  0.0738
 7421TIP3    H143754   3.258   5.945  14.815  1.0550  0.3193  0.5341
 7421TIP3    H243755   3.376   5.928  14.909  0.7375  0.8040  1.0230
 7422TIP3   OH243756   1.720   4.111   1.257 -0.3287  0.2649  0.1307
 7422TIP3    H143757   1.808   4.149   1.266 -0.5160  0.2984  2.6367
 7422TIP3    H243758   1.717   4.079   1.167  3.3693 -2.4224  0.6786
 7423TIP3   OH243759   2.242   3.510  11.672 -0.4125 -0.5224  0.1886
 7423TIP3    H143760   2.297   3.435  11.650 -1.5392 -1.3934  0.2139
 7423TIP3    H243761   2.233   3.558  11.590 -0.3368 -0.8708 -0.0283
 7424TIP3   OH243762   1.812   0.881   4.867 -0.4395  0.5544 -0.1051
 7424TIP3    H143763   1.885   0.871   4.929  0.0562  0.5733 -0.6754
 7424TIP3    H243764   1.832   0.961   4.820 -0.2141 -0.0530 -1.0673
 7425TIP3   OH243765   0.521   5.947   6.120 -0.0348  0.2809  0.7891
 7425TIP3    H143766   0.585   5.914   6.183 -0.4505  0.0844  1.1135
 7425TIP3    H243767   0.436   5.918   6.154 -0.1485 -1.7917 -1.0174
 7426TIP3   OH243768   1.293   3.880   0.311 -0.0604  0.2420  0.2629
 7426TIP3    H143769   1.372   3.931   0.292 -0.4377  0.6806 -0.1533
 7426TIP3    H243770   1.319   3.789   0.297  0.0365  0.4665 -1.0923
 7427TIP3   OH243771   5.557   4.146  13.189  0.2200  0.1075  0.1690
 7427TIP3    H143772   5.630   4.193  13.149 -0.3014  1.0383  0.2766
 7427TIP3    H243773   5.511   4.105  13.116  1.0709 -0.8391  0.1381
 7428TIP3   OH243774   0.114   3.939  13.051 -0.6212 -0.0560 -0.2452
 7428TIP3    H143775   0.069   3.854  13.045 -1.9385  0.6742 -1.2919
 7428TIP3    H243776   0.120   3.969  12.960  2.7511 -0.4332 -0.2605
 7429TIP3   OH243777   0.524   3.038   1.716 -0.8573  0.1354  0.6086
 7429TIP3    H143778   0.449   2.993   1.678 -0.3327  0.7676 -1.2836
 7429TIP3    H243779   0.564   3.084   1.642  1.0091  0.3449  1.6955
 7430TIP3   OH243780   5.897   6.806  12.216  0.0834  0.0196 -0.1168
 7430TIP3    H143781   5.850   6.757  12.149  0.4355 -0.0561 -0.3108
 7430TIP3    H243782   5.959   6.861  12.167  0.5805 -0.2878  0.1514
 7431TIP3   OH243783   0.905   3.625   2.907  0.2136 -0.4751  0.9962
 7431TIP3    H143784   0.968   3.662   2.970 -0.9293 -0.6854  2.3157
 7431TIP3    H243785   0.939   3.537   2.888  1.3536  0.1286  0.1543
 7432TIP3   OH243786   0.151   6.365  12.188  0.0343 -0.1779  0.2017
 7432TIP3    H143787   0.204   6.384  12.111 -0.4782  1.2703  0.1798
 7432TIP3    H243788   0.215   6.348  12.258  0.6781  3.4270  0.6624
 7433TIP3   OH243789   5.425   0.699   2.527  0.2027  0.5503 -0.2312
 7433TIP3    H143790   5.495   0.639   2.501  0.2485  0.0597  0.9593
 7433TIP3    H243791   5.371   0.709   2.449  1.7545  1.1793 -1.2763
 7434TIP3   OH243792   2.752   1.478  14.481 -0.3264  0.0674  0.2693
 7434TIP3    H143793   2.838   1.519  14.490  0.2484 -0.8087 -0.9316
 7434TIP3    H243794   2.718   1.511  14.398 -1.1737  0.4186  0.7391
 7435TIP3   OH243795   2.857   0.432   2.078  0.1173  0.0663  0.6613
 7435TIP3    H143796   2.901   0.410   1.995 -0.7351  0.5330  0.0681
 7435TIP3    H243797   2.892   0.369   2.141 -0.4821 -1.4266 -0.4377
 7436TIP3   OH243798   2.562   1.554  13.180 -0.9727  0.3031 -0.2261
 7436TIP3    H143799   2.500   1.581  13.113 -0.7358 -1.9375 -1.4693
 7436TIP3    H243800   2.514   1.492  13.235 -0.8174  1.2127  0.9824
 7437TIP3   OH243801   3.271   3.254   4.405 -0.0141 -0.0828 -0.4910
 7437TIP3    H143802   3.234   3.183   4.458  2.0977 -0.5326  0.4829
 7437TIP3    H243803   3.202   3.275   4.341 -0.6000 -3.2497 -1.0623
 7438TIP3   OH243804   1.343   4.653   3.160 -1.1407  0.1260 -0.0206
 7438TIP3    H143805   1.303   4.679   3.078 -0.9283  0.4824 -0.0115
 7438TIP3    H243806   1.368   4.561   3.147 -0.0501  0.5073 -0.7681
 7439TIP3   OH243807   0.194   3.241   5.797 -0.4664 -0.0895  0.1273
 7439TIP3    H143808   0.179   3.212   5.707 -0.7512 -1.1380  0.4944
 7439TIP3    H243809   0.286   3.221   5.814 -0.3101  0.4539 -0.0378
 7440TIP3   OH243810   1.245   2.535  12.472 -0.9519 -0.8240  0.1132
 7440TIP3    H143811   1.319   2.509  12.528  0.4389  1.0458 -0.7261
 7440TIP3    H243812   1.207   2.452  12.442  1.1430 -1.8788  0.1636
 7441TIP3   OH243813   0.532   6.094  13.557  0.4802  0.0799  0.1568
 7441TIP3    H143814   0.512   6.051  13.473  1.1974  0.4551 -0.2192
 7441TIP3    H243815   0.487   6.178  13.552  0.0844 -0.1170  0.3761
 7442TIP3   OH243816   4.773   3.983   4.406  0.0792 -0.6017  1.1800
 7442TIP3    H143817   4.841   4.043   4.375  0.4575 -1.1593  0.9037
 7442TIP3    H243818   4.777   3.909   4.345 -4.0398  1.3468 -1.9930
 7443TIP3   OH243819   5.925   0.802   0.526 -0.5886  0.5819  0.2602
 7443TIP3    H143820   5.878   0.877   0.562 -2.1705 -0.8948  1.4218
 7443TIP3    H243821   5.857   0.742   0.496  0.5851 -0.9017  0.4304
 7444TIP3   OH243822   0.844   1.653  15.802  0.0218 -0.2601 -0.2973
 7444TIP3    H143823   0.800   1.570  15.784  1.7607 -1.3135  0.0442
 7444TIP3    H243824   0.935   1.639  15.774  0.2018  1.7927 -0.9328
 7445TIP3   OH243825   1.022   3.521  12.212  0.5507  0.4629  0.9268
 7445TIP3    H143826   1.110   3.552  12.234  0.6433 -0.3343  1.7157
 7445TIP3    H243827   1.002   3.455  12.278  0.7296 -1.8764 -1.2054
 7446TIP3   OH243828   4.278   1.219   0.766 -0.5450 -0.4905 -0.2705
 7446TIP3    H143829   4.245   1.129   0.771  1.2658 -1.2331 -0.5798
 7446TIP3    H243830   4.373   1.209   0.765 -0.2917  1.4725  0.0823
 7447TIP3   OH243831   1.833   5.930  15.754 -0.3979  0.1512  0.0603
 7447TIP3    H143832   1.868   5.843  15.772 -1.2188  0.0269  1.1886
 7447TIP3    H243833   1.885   5.962  15.681  0.8434 -0.7253  0.5239
 7448TIP3   OH243834   6.004   6.268  14.561  0.6493 -0.1322 -0.5740
 7448TIP3    H143835   5.977   6.357  14.539  0.3715  0.2138  1.0275
 7448TIP3    H243836   5.929   6.213  14.538  0.3428  0.2214 -0.4186
 7449TIP3   OH243837   4.406   4.751  14.471 -0.0242  0.2185  0.0844
 7449TIP3    H143838   4.443   4.833  14.436  0.0129 -0.3861 -1.3624
 7449TIP3    H243839   4.316   4.750  14.437  0.3793 -0.9504 -0.9794
 7450TIP3   OH243840   4.791   5.167  10.988 -0.1200 -0.1021  0.2857
 7450TIP3    H143841   4.869   5.222  10.987 -0.2448  0.1726  2.2504
 7450TIP3    H243842   4.763   5.164  10.897  1.0485  1.4274 -0.1671
 7451TIP3   OH243843   6.124   1.754   5.195  0.3344  0.2477  0.0519
 7451TIP3    H143844   6.176   1.800   5.128 -2.0387  1.9783 -0.7329
 7451TIP3    H243845   6.082   1.682   5.148  0.4789  0.0365  0.2411
 7452TIP3   OH243846   2.320   0.907   4.930 -0.4816 -0.3424 -0.1776
 7452TIP3    H143847   2.286   0.940   5.014 -0.0867  0.2571 -0.2428
 7452TIP3    H243848   2.365   0.983   4.892 -1.0988 -0.4575 -1.1715
 7453TIP3   OH243849   0.334   3.598   3.839 -0.6507 -0.0431 -0.0153
 7453TIP3    H143850   0.395   3.661   3.801  0.9519 -1.5342 -0.0498
 7453TIP3    H243851   0.279   3.570   3.766  0.2617 -0.4874 -0.5461
 7454TIP3   OH243852   1.963   2.049  16.747  0.0252  0.2022 -0.3039
 7454TIP3    H143853   1.943   1.958  16.728  1.4588  0.2016 -1.9762
 7454TIP3    H243854   1.985   2.088  16.663  0.1378  1.9316  0.4714
 7455TIP3   OH243855   1.487   6.670  15.840 -0.7911  0.1188  0.1974
 7455TIP3    H143856   1.441   6.751  15.814 -0.1536  0.6048  0.5523
 7455TIP3    H243857   1.431   6.632  15.907 -0.4511  0.9783  1.0021
 7456TIP3   OH243858   1.317   3.157   5.960  0.1011  0.0004 -0.0151
 7456TIP3    H143859   1.323   3.098   5.885 -0.7434 -0.9530  0.6462
 7456TIP3    H243860   1.250   3.118   6.017 -0.6451  1.7036  0.3484
 7457TIP3   OH243861   1.092   3.560  17.146 -0.2925  0.1193 -0.0781
 7457TIP3    H143862   1.119   3.643  17.107  1.0264 -0.9791 -1.6558
 7457TIP3    H243863   1.122   3.494  17.084 -2.2486 -1.5089  0.5987
 7458TIP3   OH243864   5.631   0.577   0.285  0.3027  0.1455  0.0299
 7458TIP3    H143865   5.560   0.514   0.296 -0.7301  0.7918 -2.4640
 7458TIP3    H243866   5.676   0.549   0.205  0.3146  2.0757 -0.6828
 7459TIP3   OH243867   5.098   2.544  14.207 -0.2954  0.0409  0.0192
 7459TIP3    H143868   5.091   2.612  14.274  0.2298 -0.6141  0.7431
 7459TIP3    H243869   5.190   2.545  14.182 -0.2518 -0.5280  0.1568
 7460TIP3   OH243870   1.594   5.516  13.364 -0.6885 -0.4776  0.1277
 7460TIP3    H143871   1.514   5.545  13.320 -0.8290  1.2310  1.4113
 7460TIP3    H243872   1.574   5.427  13.394 -2.1911 -0.0248  0.5618
 7461TIP3   OH243873   3.973   3.935   0.117  1.0409  0.0672  0.3650
 7461TIP3    H143874   3.920   3.996   0.066  0.8448 -1.0098 -0.7636
 7461TIP3    H243875   3.937   3.939   0.205  0.2804  0.7022  0.0349
 7462TIP3   OH243876   3.501   2.169  13.052  0.2479 -0.0377  0.0546
 7462TIP3    H143877   3.438   2.238  13.076  1.7808  0.9858  1.3049
 7462TIP3    H243878   3.451   2.088  13.058 -1.3791  0.8539 -0.5929
 7463TIP3   OH243879   3.891   6.468   5.845 -0.8618 -1.0475  0.9091
 7463TIP3    H143880   3.985   6.452   5.856 -0.5587 -0.2737 -0.4170
 7463TIP3    H243881   3.884   6.511   5.760 -2.2615  0.3233  1.6752
 7464TIP3   OH243882   1.256   6.460   3.101 -0.3479 -0.0550 -0.3247
 7464TIP3    H143883   1.325   6.510   3.056  0.5527 -0.8997  0.0976
 7464TIP3    H243884   1.282   6.460   3.193 -0.8750 -0.4411 -0.1729
 7465TIP3   OH243885   2.038   3.994   3.683 -0.1466 -0.2541  0.6344
 7465TIP3    H143886   2.103   3.931   3.716  0.5490  0.5458  0.8254
 7465TIP3    H243887   2.090   4.065   3.646 -0.9262 -0.3876 -0.7879
 7466TIP3   OH243888   5.232   4.323  14.920 -0.2167 -0.1573  0.1684
 7466TIP3    H143889   5.265   4.389  14.860 -0.0491  0.1120  0.5550
 7466TIP3    H243890   5.291   4.326  14.995 -0.9941  0.1986  0.7845
 7467TIP3   OH243891   1.835   3.246   3.205  0.4943  0.5188 -0.0141
 7467TIP3    H143892   1.810   3.276   3.292  0.6071 -0.5472  0.4058
 7467TIP3    H243893   1.927   3.273   3.195  0.4541  0.7165  0.1606
 7468TIP3   OH243894   0.463   0.532  13.506  0.2653  0.1136 -0.1809
 7468TIP3    H143895   0.387   0.572  13.546 -0.0182  0.7730 -1.3433
 7468TIP3    H243896   0.475   0.579  13.424  2.4424  0.6233  0.3487
 7469TIP3   OH243897   2.462   6.481   0.859  0.1687 -0.3417 -0.3246
 7469TIP3    H143898   2.491   6.451   0.773 -1.5897  1.6629 -1.7090
 7469TIP3    H243899   2.401   6.412   0.888 -0.8053 -0.0932 -1.6635
 7470TIP3   OH243900   0.865   5.171  15.912  0.3826 -0.0204  0.2973
 7470TIP3    H143901   0.869   5.209  15.824  0.3839 -1.4603 -0.3574
 7470TIP3    H243902   0.935   5.215  15.960 -0.6645  1.9616  0.0795
 7471TIP3   OH243903   4.543   3.972   3.249  0.0869  0.4855 -0.5091
 7471TIP3    H143904   4.575   4.060   3.269 -0.1058  0.7896 -1.5321
 7471TIP3    H243905   4.600   3.941   3.179  0.8024 -0.6107  0.5055
 7472TIP3   OH243906   4.655   6.765   1.507  0.5729 -0.3591  0.2701
 7472TIP3    H143907   4.653   6.673   1.484 -3.9519 -0.4458  0.0820
 7472TIP3    H243908   4.664   6.811   1.423  0.0997 -0.6869  0.0316
 7473TIP3   OH243909   6.435   1.229  15.203 -0.8363  0.2219  0.0441
 7473TIP3    H143910   6.500   1.161  15.188 -1.3545  0.0897 -1.8284
 7473TIP3    H243911   6.474   1.286  15.269  0.8064 -0.3324 -0.4159
 7474TIP3   OH243912   6.021   5.511  15.803  0.3032  0.0680 -0.0217
 7474TIP3    H143913   6.103   5.547  15.770  1.1642 -1.1427  0.7006
 7474TIP3    H243914   6.029   5.416  15.791  0.5026 -0.4325  3.1133
 7475TIP3   OH243915   1.779   4.747   4.880 -0.0510  0.0144 -0.3553
 7475TIP3    H143916   1.717   4.728   4.950  0.1969 -1.7199 -0.5671
 7475TIP3    H243917   1.732   4.806   4.821 -1.0975 -0.3844  0.0643
 7476TIP3   OH243918   0.182   6.252  12.747 -0.3210 -0.1390 -0.1189
 7476TIP3    H143919   0.148   6.167  12.773  1.4879 -0.8387  0.0765
 7476TIP3    H243920   0.213   6.292  12.828 -1.1479  0.7280 -0.2078
 7477TIP3   OH243921   4.561   4.979  13.787 -0.0129  0.3915 -0.1981
 7477TIP3    H143922   4.486   4.990  13.728  0.6322  0.2046 -1.0833
 7477TIP3    H243923   4.554   4.889  13.818 -0.2375  0.4194 -0.1702
 7478TIP3   OH243924   3.888   3.412  16.315  0.3165 -0.0041 -0.2104
 7478TIP3    H143925   3.927   3.360  16.245  0.2853  1.2003 -1.1446
 7478TIP3    H243926   3.804   3.368  16.333  0.5270 -0.5748 -0.6023
 7479TIP3   OH243927   2.381   3.377   2.740  0.5270 -0.3640 -0.3036
 7479TIP3    H143928   2.307   3.398   2.684 -0.8407  1.2680  1.9223
 7479TIP3    H243929   2.455   3.424   2.701 -0.4780  1.0671 -0.5779
 7480TIP3   OH243930   6.435   1.037   0.142 -0.3632  0.0315  0.0146
 7480TIP3    H143931   6.417   0.962   0.199 -0.1056 -1.1263 -1.3471
 7480TIP3    H243932   6.493   1.094   0.193  0.9931 -1.6422  0.4438
 7481TIP3   OH243933   1.041   3.209  14.272  0.2090  0.2328  0.2119
 7481TIP3    H143934   1.021   3.126  14.315  0.5466  0.2748  0.4512
 7481TIP3    H243935   1.089   3.185  14.193  2.6237  0.2902  1.5608
 7482TIP3   OH243936   3.592   5.117   1.051  0.0223 -0.6272  0.1994
 7482TIP3    H143937   3.633   5.192   1.095 -0.7691  0.0716 -0.2174
 7482TIP3    H243938   3.648   5.101   0.975  0.0540 -0.3003  0.1522
 7483TIP3   OH243939   2.377   4.237   1.236 -0.3748  0.2307 -0.2000
 7483TIP3    H143940   2.352   4.218   1.327  0.7051 -1.9385 -0.3033
 7483TIP3    H243941   2.447   4.175   1.216 -0.1431  1.0802 -2.3405
 7484TIP3   OH243942   2.466   3.957  11.615 -0.0465 -0.2393 -0.1442
 7484TIP3    H143943   2.424   3.991  11.693  1.2797  1.3434 -0.0753
 7484TIP3    H243944   2.491   3.867  11.639  0.0196  0.0960  1.1320
 7485TIP3   OH243945   0.987   3.537  16.432  0.4396 -0.6377 -0.3593
 7485TIP3    H143946   1.024   3.464  16.483  0.4056 -0.0607  0.4997
 7485TIP3    H243947   1.034   3.533  16.349 -2.2956 -4.1678 -2.0310
 7486TIP3   OH243948   4.907   2.552  13.060  0.5903  0.7021  0.0493
 7486TIP3    H143949   4.879   2.526  12.973  1.1134  2.0570 -0.5414
 7486TIP3    H243950   4.862   2.635  13.077  0.8531  0.6909  0.8840
 7487TIP3   OH243951   3.897   2.044  10.465 -0.0105  0.0415 -0.4705
 7487TIP3    H143952   3.818   2.091  10.490  0.5072  1.4710 -1.4051
 7487TIP3    H243953   3.866   1.967  10.417 -0.8873 -0.9734  1.5648
 7488TIP3   OH243954   1.790   3.233   4.934 -0.0321 -0.3985  0.1630
 7488TIP3    H143955   1.811   3.158   4.878  0.3578  0.3021 -0.6582
 7488TIP3    H243956   1.812   3.204   5.022 -0.7884 -1.5761 -0.0192
 7489TIP3   OH243957   0.034   5.715   5.365  0.3882 -0.1477  0.4913
 7489TIP3    H143958   0.038   5.796   5.313  0.5871 -0.9926 -0.8721
 7489TIP3    H243959   0.125   5.685   5.369  0.1381 -1.0628 -0.3016
 7490TIP3   OH243960   3.738   0.653   4.926 -0.0460  0.5186  0.0647
 7490TIP3    H143961   3.656   0.684   4.965 -0.6513 -0.0344 -0.7402
 7490TIP3    H243962   3.719   0.563   4.899 -0.5431  1.6189 -3.8777
 7491TIP3   OH243963   2.006   1.155  14.722 -0.6309  0.6830  0.5255
 7491TIP3    H143964   2.028   1.227  14.662  0.7208  0.0770  0.2516
 7491TIP3    H243965   2.031   1.188  14.809  2.1892 -0.2201  0.1545
 7492TIP3   OH243966   4.265   2.922  12.262  0.1050 -0.4949  0.0444
 7492TIP3    H143967   4.227   2.897  12.178  2.3244 -3.0422 -0.3202
 7492TIP3    H243968   4.360   2.926  12.246  0.4404  0.9279  1.9810
 7493TIP3   OH243969   5.560   1.198   2.573  0.7993  0.3260  0.3080
 7493TIP3    H143970   5.543   1.168   2.662  1.3301  0.0248  0.3120
 7493TIP3    H243971   5.656   1.204   2.568  0.9664 -2.1218 -1.0286
 7494TIP3   OH243972   2.053   6.472  11.854 -0.2930 -0.7957 -0.0299
 7494TIP3    H143973   2.114   6.535  11.815  0.9023 -1.4424  0.7482
 7494TIP3    H243974   2.013   6.520  11.927  0.8130 -0.9959  0.7275
 7495TIP3   OH243975   1.964   4.215   4.682  0.6099  0.4836 -0.3146
 7495TIP3    H143976   2.012   4.238   4.602  0.4213  0.9649 -0.2951
 7495TIP3    H243977   2.005   4.135   4.713  1.8387  1.2471  0.0776
 7496TIP3   OH243978   3.083   3.444   4.895  0.1982 -0.4315 -0.0364
 7496TIP3    H143979   3.048   3.415   4.811 -1.1745  1.0958 -0.0479
 7496TIP3    H243980   3.130   3.525   4.875  1.2668 -0.9070  0.4466
 7497TIP3   OH243981   0.250   0.096   0.538 -0.2577 -0.2204 -0.2780
 7497TIP3    H143982   0.259   0.190   0.555 -0.7288 -0.2010 -0.1218
 7497TIP3    H243983   0.329   0.057   0.575  0.6122  0.2659 -1.5799
 7498TIP3   OH243984   2.731   5.973   2.499 -0.4791 -0.1124 -0.6106
 7498TIP3    H143985   2.758   6.041   2.561 -2.7128 -0.1376  0.4824
 7498TIP3    H243986   2.813   5.934   2.470  0.7945  1.9082  0.0047
 7499TIP3   OH243987   2.809   6.125  16.025 -0.4000  0.2887 -0.4367
 7499TIP3    H143988   2.767   6.040  16.008  0.1687 -0.2724  0.7849
 7499TIP3    H243989   2.849   6.114  16.112  1.4484  1.1223 -1.1341
 7500TIP3   OH243990   5.511   0.696  13.774  0.1552  0.3064 -0.0707
 7500TIP3    H143991   5.549   0.736  13.852  0.2053  1.0681 -0.4738
 7500TIP3    H243992   5.581   0.641  13.738 -0.6779 -2.2264  1.8574
 7501TIP3   OH243993   5.660   0.789  13.978  0.3796  0.0904  0.7092
 7501TIP3    H143994   5.750   0.813  13.957 -0.2838  2.1017 -0.0829
 7501TIP3    H243995   5.662   0.768  14.072  1.7829 -0.6336  0.5432
 7502TIP3   OH243996   0.499   6.487   1.476  0.1263 -0.4397 -0.0452
 7502TIP3    H143997   0.466   6.407   1.435 -0.9232 -0.7926  1.3928
 7502TIP3    H243998   0.568   6.517   1.417 -0.3522 -1.6673 -1.3069
 7503TIP3   OH243999   3.830   2.529   2.688 -0.1663 -0.1028 -0.3707
 7503TIP3    H144000   3.849   2.585   2.612  1.4377 -0.3619 -0.1886
 7503TIP3    H244001   3.737   2.509   2.679 -1.0008  3.0581 -0.1228
 7504TIP3   OH244002   0.116   5.864  16.780  0.3846 -0.5239  0.1695
 7504TIP3    H144003   0.050   5.927  16.809  1.2704  0.3430  0.3444
 7504TIP3    H244004   0.124   5.880  16.685 -1.0939 -2.0209 -0.2603
 7505TIP3   OH244005   2.738   1.105   0.650  0.0988 -0.0977  0.4402
 7505TIP3    H144006   2.700   1.022   0.680 -1.3192 -0.1623 -1.3647
 7505TIP3    H244007   2.822   1.080   0.612  0.5261 -0.4239  1.5647
 7506TIP3   OH244008   1.341   0.211   2.104 -0.4924  0.0370 -0.1144
 7506TIP3    H144009   1.364   0.134   2.157 -0.4638  0.5829  0.6820
 7506TIP3    H244010   1.390   0.199   2.023  0.2012 -0.3469  0.3498
 7507TIP3   OH244011   2.885   1.493  14.812  0.1782  0.2185  0.2238
 7507TIP3    H144012   2.972   1.475  14.778 -0.5690 -0.7422 -1.2905
 7507TIP3    H244013   2.853   1.566  14.759 -0.9814 -1.2662 -1.2148
 7508TIP3   OH244014   2.752   0.432   1.365 -0.5849 -0.3418  0.5692
 7508TIP3    H144015   2.692   0.474   1.304 -0.0737 -0.6768 -0.1706
 7508TIP3    H244016   2.717   0.343   1.375 -0.1556 -0.5723  0.0498
 7509TIP3   OH244017   2.474   3.797  15.245 -0.3560 -0.3790  0.1422
 7509TIP3    H144018   2.545   3.744  15.208 -0.6731  0.6953 -2.1435
 7509TIP3    H244019   2.517   3.877  15.274 -0.7145  0.7003 -2.1704
 7510TIP3   OH244020   6.107   0.203  16.232  0.3528  0.4473  0.7405
 7510TIP3    H144021   6.099   0.180  16.139  0.3440 -0.8607  1.0412
 7510TIP3    H244022   6.016   0.207  16.263  0.3615 -1.5116  1.2011
 7511TIP3   OH244023   4.020   5.356  13.167 -0.4147  0.2969  0.3727
 7511TIP3    H144024   3.944   5.408  13.192  0.3083  0.7189  1.7994
 7511TIP3    H244025   3.987   5.268  13.155 -1.1362  0.4785  0.9736
 7512TIP3   OH244026   4.851   1.358  13.812 -0.2139  0.3337 -0.6903
 7512TIP3    H144027   4.933   1.310  13.799 -0.3419  0.2188 -1.0787
 7512TIP3    H244028   4.845   1.369  13.907 -0.0228 -0.1425 -0.6196
 7513TIP3   OH244029   6.420   2.391  16.435 -0.2575  0.0732 -0.6139
 7513TIP3    H144030   6.345   2.440  16.468  0.4334  0.7286  0.0049
 7513TIP3    H244031   6.395   2.366  16.346 -0.8514  1.0251 -0.7226
 7514TIP3   OH244032   2.900   3.664  15.577 -0.3445  0.9643  0.1230
 7514TIP3    H144033   2.952   3.647  15.499 -1.1432  1.2798 -0.4928
 7514TIP3    H244034   2.909   3.584  15.630 -0.0688  0.6178 -0.4391
 7515TIP3   OH244035   1.226   0.993  11.172 -1.0808  0.4864  0.7281
 7515TIP3    H144036   1.300   0.981  11.112 -1.3768 -1.2944  0.6599
 7515TIP3    H244037   1.266   1.014  11.256 -0.3890 -1.3742  0.9158
 7516TIP3   OH244038   2.293   3.959   1.288 -0.2722  0.2910 -0.7254
 7516TIP3    H144039   2.325   3.871   1.269  0.1981 -0.1776  1.8624
 7516TIP3    H244040   2.352   3.992   1.356 -2.6583  1.0537  1.1315
 7517TIP3   OH244041   0.645   0.421  16.862 -0.6101  0.3964  0.3173
 7517TIP3    H144042   0.630   0.346  16.920  2.4155 -1.4563 -1.0402
 7517TIP3    H244043   0.612   0.392  16.777  2.1497 -0.2259 -0.6302
 7518TIP3   OH244044   2.796   5.958  14.507  0.3742  0.2136 -0.0544
 7518TIP3    H144045   2.747   5.934  14.585 -0.5827  1.0178 -0.3884
 7518TIP3    H244046   2.753   5.909  14.436 -1.8586  2.9973 -0.8132
 7519TIP3   OH244047   4.554   2.541   2.631 -0.9492  0.0551  1.0967
 7519TIP3    H144048   4.520   2.458   2.664  0.8801 -0.8994  0.7256
 7519TIP3    H244049   4.645   2.542   2.659 -0.5427  1.2430 -0.1654
 7520TIP3   OH244050   6.192   3.560  15.118 -0.2967  0.3211 -0.5761
 7520TIP3    H144051   6.166   3.590  15.205 -1.0897  1.0889 -1.0524
 7520TIP3    H244052   6.110   3.560  15.068 -0.2236 -2.1192 -0.7738
 7521TIP3   OH244053   5.681   5.625  16.025 -0.2473 -0.2113  0.1121
 7521TIP3    H144054   5.742   5.553  16.011 -0.7519 -0.9574  1.5073
 7521TIP3    H244055   5.632   5.599  16.103 -1.3332  1.0522 -0.1218
 7522TIP3   OH244056   4.997   2.284  11.470 -0.0433  0.4983  0.4738
 7522TIP3    H144057   4.985   2.189  11.473  0.6357  0.3877 -0.1207
 7522TIP3    H244058   4.938   2.315  11.402 -1.1008  0.6569  1.4242
 7523TIP3   OH244059   4.812   5.382   2.154  0.2703 -0.1447  0.0305
 7523TIP3    H144060   4.742   5.430   2.198  1.4820  0.5232  1.2895
 7523TIP3    H244061   4.803   5.292   2.185 -0.6366 -0.2983 -0.6198
 7524TIP3   OH244062   5.129   5.982  17.089  0.0474 -1.1327  0.3538
 7524TIP3    H144063   5.173   6.066  17.074 -0.5920 -0.4488  2.0207
 7524TIP3    H244064   5.167   5.923  17.024  0.9068  0.2994 -0.5080
 7525TIP3   OH244065   1.312   1.088   3.800 -0.0829 -0.1090 -0.2224
 7525TIP3    H144066   1.254   1.031   3.850 -1.8435  2.3852  0.8072
 7525TIP3    H244067   1.261   1.113   3.724  0.0131  1.2604  0.1354
 7526TIP3   OH244068   6.527   4.069   5.220 -0.2455 -0.1303 -0.0240
 7526TIP3    H144069   6.589   4.141   5.209 -1.2613  0.5834 -1.2389
 7526TIP3    H244070   6.580   3.990   5.206  0.5993  0.4157  0.0051
 7527TIP3   OH244071   3.741   1.963   5.743  0.8848 -0.6059 -0.2661
 7527TIP3    H144072   3.791   1.885   5.720  0.5862 -1.0339  0.4891
 7527TIP3    H244073   3.768   2.029   5.679  2.2139 -0.8973 -0.0418
 7528TIP3   OH244074   1.011   2.944  13.901 -0.0530 -0.5452  0.3292
 7528TIP3    H144075   1.043   2.941  13.811 -0.0112  0.2879  0.3129
 7528TIP3    H244076   1.040   3.029  13.934 -1.2217 -0.2636  0.6939
 7529TIP3   OH244077   1.840   3.253   1.448 -0.3398 -0.5145  0.7113
 7529TIP3    H144078   1.797   3.329   1.488 -1.1044  0.0541 -1.0745
 7529TIP3    H244079   1.772   3.187   1.443 -0.8502  0.0714 -1.2799
 7530TIP3   OH244080   6.411   6.445  13.699  0.2114 -0.0931  0.4503
 7530TIP3    H144081   6.421   6.448  13.794 -0.1841 -0.1650  0.4967
 7530TIP3    H244082   6.427   6.354  13.676  0.4923 -0.0387  0.4246
 7531TIP3   OH244083   5.852   0.718   5.770  0.2872  0.4111  0.1213
 7531TIP3    H144084   5.864   0.809   5.798 -1.9651  0.7153  0.3307
 7531TIP3    H244085   5.776   0.687   5.820 -0.8195 -0.6266 -2.0278
 7532TIP3   OH244086   5.214   4.722  15.991  0.3463  0.7496 -0.5115
 7532TIP3    H144087   5.253   4.800  15.953  2.0838  0.0925 -0.1913
 7532TIP3    H244088   5.287   4.676  16.032 -0.8188 -0.4676  0.3228
 7533TIP3   OH244089   1.789   6.093  12.605  0.2176  0.5182  0.4458
 7533TIP3    H144090   1.789   6.170  12.548 -0.4863 -0.4269 -0.8708
 7533TIP3    H244091   1.697   6.079  12.627 -0.2517 -2.1986 -2.5566
 7534TIP3   OH244092   2.580   0.776   5.518 -0.0683  0.1319 -0.3493
 7534TIP3    H144093   2.542   0.689   5.505  0.7581 -0.0481 -1.7185
 7534TIP3    H244094   2.656   0.761   5.574 -0.4833  0.1285  0.2264
 7535TIP3   OH244095   3.416   2.906   0.005 -0.0236  0.0920  0.0356
 7535TIP3    H144096   3.480   2.840  -0.024 -0.7293  0.0204 -1.4428
 7535TIP3    H244097   3.467   2.986   0.016  0.6815 -0.4594  0.9902
 7536TIP3   OH244098   3.087   0.176   3.070 -0.3914  0.5039  0.4046
 7536TIP3    H144099   3.087   0.137   2.983 -0.6959  0.4222  0.4397
 7536TIP3    H244100   3.113   0.267   3.056  0.1969  0.3200  0.3089
 7537TIP3   OH244101   4.824   6.491  11.471 -0.5365  0.2368  0.0946
 7537TIP3    H144102   4.822   6.415  11.413 -3.2244  0.0741  0.2479
 7537TIP3    H244103   4.865   6.560  11.419 -1.2358 -0.4018 -1.3744
 7538TIP3   OH244104   5.773   6.714  13.237  0.4459  0.6391 -0.7668
 7538TIP3    H144105   5.681   6.706  13.260  0.4039 -1.0172 -1.4385
 7538TIP3    H244106   5.819   6.713  13.321 -0.0977  0.8812 -0.4619
 7539TIP3   OH244107   6.631   1.632   6.014  0.5735  0.3825  0.1602
 7539TIP3    H144108   6.673   1.683   5.945 -1.2483 -0.1851 -1.4401
 7539TIP3    H244109   6.663   1.543   6.001 -0.5953  0.0658 -0.6803
 7540TIP3   OH244110   5.741   0.780  12.171  0.6241 -0.1030 -0.4256
 7540TIP3    H144111   5.727   0.872  12.195  0.7018 -0.1755 -0.1039
 7540TIP3    H244112   5.654   0.740  12.181  1.0504 -0.6032  1.7940
 7541TIP3   OH244113   5.340   0.187   1.093 -0.5683  0.6893 -0.0790
 7541TIP3    H144114   5.424   0.166   1.053 -1.0571 -1.7339  0.0167
 7541TIP3    H244115   5.358   0.264   1.147  1.3787  0.7367 -0.7075
 7542TIP3   OH244116   2.657   4.431  16.641 -0.3397  0.8989 -0.4645
 7542TIP3    H144117   2.695   4.425  16.553  0.7976 -0.8815  0.0817
 7542TIP3    H244118   2.562   4.421  16.626 -0.2773  1.7297 -1.5592
 7543TIP3   OH244119   4.733   0.550  11.099  0.1866  0.0720 -0.7805
 7543TIP3    H144120   4.803   0.531  11.036 -0.1611 -1.8001 -0.6861
 7543TIP3    H244121   4.747   0.641  11.125  1.6256  0.2217 -1.9476
 7544TIP3   OH244122   1.394   2.755  14.010  0.3532 -0.8264  0.0461
 7544TIP3    H144123   1.341   2.737  13.933  0.1942 -0.4623  0.0653
 7544TIP3    H244124   1.439   2.673  14.029  0.3536 -0.9320 -0.4019
 7545TIP3   OH244125   2.375   3.389   0.871  0.2792 -0.0316 -0.0247
 7545TIP3    H144126   2.321   3.327   0.919 -0.8748  0.6299 -0.4475
 7545TIP3    H244127   2.448   3.408   0.930 -0.3662 -0.3211  0.8747
 7546TIP3   OH244128   4.784   2.720   5.711 -0.2795  0.6962 -0.1227
 7546TIP3    H144129   4.732   2.647   5.677 -0.1924 -0.3127  1.7421
 7546TIP3    H244130   4.818   2.764   5.634 -0.0514 -1.4541 -1.3304
 7547TIP3   OH244131   6.781   3.016   3.938 -0.2874  0.0177 -0.5214
 7547TIP3    H144132   6.872   3.004   3.912  0.4614 -0.0479  1.8966
 7547TIP3    H244133   6.756   3.100   3.900  0.3150 -0.5531 -2.2932
 7548TIP3   OH244134   5.774   0.762  14.851  0.2864  0.2567 -0.1946
 7548TIP3    H144135   5.729   0.723  14.926  2.1995  0.2111  1.0094
 7548TIP3    H244136   5.791   0.853  14.877  1.4376  0.0937 -0.3134
 7549TIP3   OH244137   2.668   6.802   1.679  0.2359  0.0485  0.1075
 7549TIP3    H144138   2.747   6.756   1.708  0.0916 -0.8787 -0.9184
 7549TIP3    H244139   2.606   6.789   1.751  1.0797  1.0393  1.0577
 7550TIP3   OH244140   1.199   5.274  10.944 -0.2094  0.0301 -0.5264
 7550TIP3    H144141   1.237   5.209  10.885 -0.8267 -0.0212 -0.8798
 7550TIP3    H244142   1.205   5.235  11.031  2.5692  0.9215 -0.2023
 7551TIP3   OH244143   3.687   5.196   6.516 -0.2631 -0.4084  0.9180
 7551TIP3    H144144   3.757   5.216   6.454 -1.7887  2.2959 -0.1047
 7551TIP3    H244145   3.655   5.110   6.490  0.9913 -0.5731 -0.1849
 7552TIP3   OH244146   5.851   2.936  12.442  0.0509 -0.3330  0.0288
 7552TIP3    H144147   5.839   2.883  12.521 -2.1786  3.2314  2.4095
 7552TIP3    H244148   5.762   2.952  12.411  0.5515  2.1736 -0.3301
 7553TIP3   OH244149   2.888   4.887  16.354 -0.3620 -0.3647 -0.2365
 7553TIP3    H144150   2.808   4.897  16.406  0.4137 -0.5427  1.0178
 7553TIP3    H244151   2.883   4.797  16.322 -0.4803 -0.5022  0.1545
 7554TIP3   OH244152   3.934   5.169  11.451  0.1439  0.5581 -0.1289
 7554TIP3    H144153   4.015   5.186  11.405  1.0293  1.1307  1.5337
 7554TIP3    H244154   3.913   5.252  11.495 -0.0510 -0.2228  1.3414
 7555TIP3   OH244155   0.970   3.594   4.378  0.1001  0.2099  0.2663
 7555TIP3    H144156   0.883   3.617   4.409  0.0134  1.3254 -0.7498
 7555TIP3    H244157   0.957   3.511   4.331 -0.5528  0.7108 -0.4653
 7556TIP3   OH244158   5.118   3.422  12.444 -0.0522  0.2103  0.0782
 7556TIP3    H144159   5.068   3.502  12.458  0.1038  0.2016  0.7017
 7556TIP3    H244160   5.106   3.402  12.351  0.5410  1.3883 -0.2660
 7557TIP3   OH244161   6.634   6.358   0.426 -0.3127 -0.1604  0.0126
 7557TIP3    H144162   6.582   6.438   0.433  0.1984  0.2062 -0.2656
 7557TIP3    H244163   6.649   6.347   0.332  1.2270  0.4932  0.1495
 7558TIP3   OH244164   6.031   4.444   1.609  0.3016  0.1590  0.4498
 7558TIP3    H144165   6.035   4.465   1.516  0.4901  2.3547  0.8840
 7558TIP3    H244166   6.070   4.357   1.616  1.6165  0.5349 -1.3552
 7559TIP3   OH244167   4.049   1.250   6.230 -0.0278 -0.5841 -0.0843
 7559TIP3    H144168   4.104   1.217   6.160  0.9911  0.3675  0.2336
 7559TIP3    H244169   4.046   1.345   6.215  0.7293 -0.2802  1.4994
 7560TIP3   OH244170   3.383   0.549  16.050  0.0218  0.1391 -0.4822
 7560TIP3    H144171   3.342   0.462  16.055  0.6931 -0.2055 -0.8937
 7560TIP3    H244172   3.451   0.546  16.117 -0.6739  0.7535  0.2805
 7561TIP3   OH244173   5.821   0.635   2.300 -0.0157 -0.2519  0.4911
 7561TIP3    H144174   5.827   0.606   2.391 -2.5761 -0.2683  0.7303
 7561TIP3    H244175   5.730   0.662   2.290  0.5746  1.1557 -1.6778
 7562TIP3   OH244176   6.276   5.697   3.303  0.1026  0.5985 -0.5243
 7562TIP3    H144177   6.235   5.663   3.382 -0.2707  1.6271 -0.2624
 7562TIP3    H244178   6.364   5.659   3.303  0.0052  0.3672  0.2236
 7563TIP3   OH244179   6.381   4.228  14.981  0.0185 -0.1665 -0.4829
 7563TIP3    H144180   6.410   4.289  14.913 -0.3208  1.4657  0.7775
 7563TIP3    H244181   6.437   4.248  15.056 -0.3102 -1.2090  0.0522
 7564TIP3   OH244182   6.305   0.978  13.094 -0.2421 -0.0526  0.1835
 7564TIP3    H144183   6.352   0.942  13.019  1.4024 -0.0962  1.1756
 7564TIP3    H244184   6.303   0.906  13.157  0.4461  0.6697  1.0506
 7565TIP3   OH244185   2.745   1.045  14.785 -0.2481 -0.5601 -0.4615
 7565TIP3    H144186   2.741   1.133  14.746  1.9346  0.5558  1.6141
 7565TIP3    H244187   2.682   0.994  14.733 -0.5865  1.8334 -2.6406
 7566TIP3   OH244188   5.874   3.630   5.292  0.2821 -0.5183 -0.0786
 7566TIP3    H144189   5.844   3.597   5.376  1.1955  0.0186  0.4786
 7566TIP3    H244190   5.863   3.725   5.298 -0.1762 -0.5162 -0.7890
 7567TIP3   OH244191   3.058   3.935  15.415 -0.2724  0.6914  0.2232
 7567TIP3    H144192   2.986   3.914  15.355 -1.1694 -0.4519  1.6449
 7567TIP3    H244193   3.047   3.874  15.488  0.3422  2.4931  1.9030
 7568TIP3   OH244194   1.146   3.719  11.124 -0.3261  0.2037 -0.1508
 7568TIP3    H144195   1.052   3.728  11.139 -0.6334  1.9799 -2.6167
 7568TIP3    H244196   1.175   3.806  11.097  2.3120  0.0091  1.6731
 7569TIP3   OH244197   3.410   2.761  10.694  0.3865  0.1752  0.2635
 7569TIP3    H144198   3.361   2.811  10.629 -0.3665 -3.4112 -2.2207
 7569TIP3    H244199   3.358   2.768  10.774 -1.3845  0.7534 -0.8688
 7570TIP3   OH244200   0.500   5.168  16.317 -0.3518  0.0980 -0.0900
 7570TIP3    H144201   0.520   5.259  16.341  1.7646 -0.3479  0.0331
 7570TIP3    H244202   0.517   5.164  16.223 -1.3953  0.0318 -0.2929
 7571TIP3   OH244203   4.167   1.440   3.301 -0.4097  0.3918  0.2717
 7571TIP3    H144204   4.094   1.418   3.242 -0.5647  2.2493 -0.2943
 7571TIP3    H244205   4.150   1.531   3.326  1.8751  0.9777 -0.1290
 7572TIP3   OH244206   3.249   0.181  12.074  0.3063  0.2525  0.7373
 7572TIP3    H144207   3.200   0.262  12.079 -0.2460  0.1713 -2.1333
 7572TIP3    H244208   3.200   0.120  12.129 -0.3930  1.2891  1.2953
 7573TIP3   OH244209   5.699   4.163   0.247  0.6114 -0.4534 -0.4979
 7573TIP3    H144210   5.668   4.129   0.163 -1.0336 -0.1450 -0.0526
 7573TIP3    H244211   5.712   4.085   0.302 -3.7812 -0.5634  0.7420
 7574TIP3   OH244212   3.529   3.740  13.403  0.3540  0.5435  0.3538
 7574TIP3    H144213   3.538   3.740  13.308  0.6650 -2.0066  0.3147
 7574TIP3    H244214   3.441   3.775  13.419 -1.0691 -2.0432 -1.1426
 7575TIP3   OH244215   4.015   0.332  16.108  0.0845  0.7724  0.3942
 7575TIP3    H144216   4.004   0.245  16.070 -1.4461  0.7488  0.7924
 7575TIP3    H244217   4.043   0.316  16.197 -2.6833  0.4961  1.3220
 7576TIP3   OH244218   0.691   2.748  12.812 -0.7605 -0.3778 -0.0442
 7576TIP3    H144219   0.781   2.715  12.816  0.1226  1.9419  0.5069
 7576TIP3    H244220   0.683   2.786  12.724 -1.5499 -1.4203 -0.4438
 7577TIP3   OH244221   4.207   6.685  16.094  0.0240 -0.0755 -0.2729
 7577TIP3    H144222   4.249   6.689  16.008  2.0574 -0.6320  0.6474
 7577TIP3    H244223   4.146   6.611  16.087  1.6152 -1.4110 -0.6739
 7578TIP3   OH244224   3.253   5.231   0.457 -0.3692  0.5911  0.4834
 7578TIP3    H144225   3.272   5.198   0.545  2.3626 -2.2736 -0.9659
 7578TIP3    H244226   3.334   5.271   0.428 -1.2803  1.6433 -0.7252
 7579TIP3   OH244227   0.068   2.029  13.122  0.3479 -0.1934  0.3145
 7579TIP3    H144228  -0.019   2.015  13.084 -0.2082  0.9248  1.0967
 7579TIP3    H244229   0.070   2.123  13.141  1.0856 -0.5026  1.8479
 7580TIP3   OH244230   6.453   6.616  13.242 -0.1890  0.8998  0.0185
 7580TIP3    H144231   6.515   6.654  13.179 -0.8915 -0.6157 -1.6785
 7580TIP3    H244232   6.372   6.605  13.191 -1.0882  0.5123  1.4858
 7581TIP3   OH244233   4.689   1.903  11.017  0.2701  0.2930  0.0837
 7581TIP3    H144234   4.688   1.807  11.014  1.8254  0.2596 -0.5790
 7581TIP3    H244235   4.762   1.927  10.959  0.6128  1.8273  1.1090
 7582TIP3   OH244236   4.003   5.955   1.834  0.0227  0.1779 -0.2196
 7582TIP3    H144237   4.079   5.949   1.892  0.8690  0.2472 -1.2859
 7582TIP3    H244238   3.948   5.882   1.860  1.8740 -1.7523 -1.3759
 7583TIP3   OH244239   5.176   2.321  10.638  0.2454  0.4548  0.4237
 7583TIP3    H144240   5.108   2.254  10.627 -0.5503  1.5203 -1.8601
 7583TIP3    H244241   5.173   2.372  10.557  1.0585  3.0670  1.9078
 7584TIP3   OH244242   3.712   3.197  15.195 -0.5531 -0.2520 -0.5013
 7584TIP3    H144243   3.691   3.278  15.149 -0.1012 -0.1942 -0.6131
 7584TIP3    H244244   3.687   3.127  15.135 -1.3918 -0.2130 -0.2139
 7585TIP3   OH244245   1.436   6.629  11.251 -0.3719 -0.7551 -0.4459
 7585TIP3    H144246   1.360   6.648  11.195  0.5687  0.8830 -1.2558
 7585TIP3    H244247   1.498   6.585  11.194 -0.2006 -0.8998 -0.1494
 7586TIP3   OH244248   5.139   2.680   2.877 -0.0459  0.0977 -0.0282
 7586TIP3    H144249   5.145   2.766   2.918  1.1517 -0.7302  1.6660
 7586TIP3    H244250   5.079   2.631   2.932  1.0725 -0.8397  0.4028
 7587TIP3   OH244251   5.773   0.128   1.868  0.0101 -0.3790  0.5338
 7587TIP3    H144252   5.825   0.165   1.939  1.9814 -0.8004 -0.5943
 7587TIP3    H244253   5.810   0.041   1.854 -0.1520 -0.2284 -1.1064
 7588TIP3   OH244254   0.289   4.279  13.573 -0.1374 -0.0544 -0.2590
 7588TIP3    H144255   0.363   4.311  13.625 -0.5466  1.8767 -0.7744
 7588TIP3    H244256   0.329   4.220  13.509  0.6596 -0.6586  0.7560
 7589TIP3   OH244257   4.717   3.681  12.313  0.1957  0.0801  0.5935
 7589TIP3    H144258   4.756   3.597  12.335  0.6894  0.1911  0.1588
 7589TIP3    H244259   4.700   3.723  12.398 -1.4605 -1.0700  0.8754
 7590TIP3   OH244260   1.586   1.551   0.182 -0.0788  0.0353 -0.0084
 7590TIP3    H144261   1.558   1.484   0.244  1.8420 -1.7309 -0.9345
 7590TIP3    H244262   1.529   1.540   0.107 -0.3077  0.0028  0.1697
 7591TIP3   OH244263   0.715   6.646  16.272 -0.0720  0.0730  0.1281
 7591TIP3    H144264   0.663   6.726  16.277  1.6561  1.2835 -0.4052
 7591TIP3    H244265   0.667   6.583  16.327 -0.4556  2.0535  2.2014
 7592TIP3   OH244266   2.768   2.816   5.650 -0.0349  0.1938  0.2443
 7592TIP3    H144267   2.699   2.751   5.664  0.1994 -0.1050  0.0260
 7592TIP3    H244268   2.725   2.900   5.667 -0.2362 -0.0382  0.9064
 7593TIP3   OH244269   3.345   4.839  14.329 -0.1456  0.2250 -0.5952
 7593TIP3    H144270   3.294   4.791  14.394 -0.5486  0.1861 -0.9388
 7593TIP3    H244271   3.417   4.779  14.306  0.7287  0.7192  0.7203
 7594TIP3   OH244272   6.806   1.156  14.336  0.2796 -0.0753  0.1230
 7594TIP3    H144273   6.822   1.074  14.289  1.9341  1.5933 -2.5380
 7594TIP3    H244274   6.734   1.197  14.289  0.6749  0.7927  0.2570
 7595TIP3   OH244275   0.312   3.585  17.258  0.4780 -0.3927  0.1727
 7595TIP3    H144276   0.389   3.549  17.301  0.0692 -2.1737 -0.5026
 7595TIP3    H244277   0.340   3.602  17.169 -0.3116 -2.8622 -0.6465
 7596TIP3   OH244278   5.689   2.232  15.135 -0.3553  0.0500  0.8050
 7596TIP3    H144279   5.721   2.159  15.083 -1.0167  1.6182 -2.0202
 7596TIP3    H244280   5.731   2.222  15.220  0.0292 -3.2170  0.3341
 7597TIP3   OH244281   0.110   5.004   1.315 -0.1349  0.0580 -0.2510
 7597TIP3    H144282   0.088   4.911   1.326 -0.2697  0.1501  0.3042
 7597TIP3    H244283   0.111   5.018   1.221  0.7102 -0.7113 -0.3743
 7598TIP3   OH244284   2.780   3.166  15.322  0.2668 -0.3044 -0.4228
 7598TIP3    H144285   2.770   3.212  15.405 -1.3985 -2.6692  0.8090
 7598TIP3    H244286   2.809   3.078  15.346  1.0355 -0.6526 -2.4640
 7599TIP3   OH244287   2.816   3.885  11.906 -0.0488  0.1264 -0.0573
 7599TIP3    H144288   2.903   3.857  11.879  1.0323  1.7681  1.5620
 7599TIP3    H244289   2.795   3.958  11.847 -0.0618  0.1433 -0.0311
 7600TIP3   OH244290   5.390   3.740   5.802  0.1938 -0.3367 -0.3060
 7600TIP3    H144291   5.362   3.666   5.856  1.0445 -0.4374  0.0110
 7600TIP3    H244292   5.386   3.816   5.860  1.1719 -0.4553 -0.0608
 7601TIP3   OH244293   4.359   2.915   4.525  0.2099  0.2663  0.6928
 7601TIP3    H144294   4.279   2.893   4.476 -0.1929  0.6784  1.1516
 7601TIP3    H244295   4.329   2.973   4.595  1.1627  1.9644 -0.2417
 7602TIP3   OH244296   0.849   1.431   5.860 -0.4952 -0.3095 -0.0295
 7602TIP3    H144297   0.849   1.350   5.809  4.7035  0.5734 -2.0661
 7602TIP3    H244298   0.905   1.412   5.935 -1.4836  0.6757  0.9845
 7603TIP3   OH244299   3.113   5.707   3.997 -0.7298 -0.6084  0.3025
 7603TIP3    H144300   3.198   5.746   4.018 -1.1179  0.9893 -0.9167
 7603TIP3    H244301   3.127   5.613   4.006  0.8589 -0.3253  1.1819
 7604TIP3   OH244302   1.226   1.027  15.172  0.0403  1.2205  0.3428
 7604TIP3    H144303   1.211   1.119  15.194  0.7358  1.7235 -1.1675
 7604TIP3    H244304   1.317   1.011  15.195  0.0278  1.0033  0.2473
 7605TIP3   OH244305   5.355   1.770   3.121  0.5848 -0.6072 -0.6255
 7605TIP3    H144306   5.375   1.857   3.156  1.0979 -0.8447 -0.3053
 7605TIP3    H244307   5.387   1.709   3.188 -1.0079 -1.0288 -0.2065
 7606TIP3   OH244308   2.574   2.990  12.622 -0.4242  0.4756 -0.2620
 7606TIP3    H144309   2.499   3.006  12.565  0.1412  1.5513 -0.7472
 7606TIP3    H244310   2.613   2.909  12.589  0.9492  1.9800 -2.6677
 7607TIP3   OH244311   4.307   5.791   2.832  0.3843  0.1509  0.2636
 7607TIP3    H144312   4.286   5.881   2.856  1.0780  0.2161  0.6248
 7607TIP3    H244313   4.391   5.773   2.873  0.7759 -0.3088 -0.7028
 7608TIP3   OH244314   2.365   1.950   4.927  0.4215 -0.0824  0.4809
 7608TIP3    H144315   2.401   1.981   4.844  2.1751 -0.4606  1.0672
 7608TIP3    H244316   2.370   2.027   4.984  0.4106 -0.1707  0.5997
 7609TIP3   OH244317   3.551   3.097   4.166  0.1833  0.7479 -0.2192
 7609TIP3    H144318   3.542   3.115   4.260  0.5149  3.2300 -0.5911
 7609TIP3    H244319   3.487   3.028   4.148 -0.6668  1.0156  1.6115
 7610TIP3   OH244320   3.307   2.967   5.085  0.4700 -0.4196 -0.9301
 7610TIP3    H144321   3.318   3.035   5.152  0.0379 -0.7575 -0.5114
 7610TIP3    H244322   3.332   2.886   5.128 -0.9294 -0.8047 -0.8152
 7611TIP3   OH244323   5.189   2.796   2.629  0.5178 -0.1640 -0.4188
 7611TIP3    H144324   5.106   2.839   2.613  0.3075  0.1185  1.2655
 7611TIP3    H244325   5.183   2.762   2.718  1.6478 -1.4561 -0.7816
 7612TIP3   OH244326   6.743   2.119   1.279 -0.1647 -0.2224 -0.5276
 7612TIP3    H144327   6.672   2.084   1.225 -0.9989  1.5532 -0.6883
 7612TIP3    H244328   6.822   2.107   1.227 -0.6520 -0.4146 -1.2389
 7613TIP3   OH244329   4.438   0.789   5.669  0.0243  0.3951 -0.5282
 7613TIP3    H144330   4.392   0.707   5.656 -0.3641  0.3107  1.0918
 7613TIP3    H244331   4.501   0.770   5.739 -0.2082  1.5024  0.0095
 7614TIP3   OH244332   3.303   5.017  13.585 -0.4978  0.0195  0.1237
 7614TIP3    H144333   3.329   5.019  13.493 -0.1428 -2.0366  0.1307
 7614TIP3    H244334   3.334   5.100  13.621  0.4240  0.3437 -1.3467
 7615TIP3   OH244335   3.635   5.732  13.983  0.3117  0.2394  0.7325
 7615TIP3    H144336   3.707   5.704  13.927 -0.3906 -0.7306  0.3010
 7615TIP3    H244337   3.675   5.797  14.042  1.6907 -0.7513  0.9453
 7616TIP3   OH244338   2.204   3.107  14.021 -0.5912 -0.6776 -0.1158
 7616TIP3    H144339   2.223   3.031  13.965 -0.5125 -0.8271  0.1121
 7616TIP3    H244340   2.206   3.182  13.961  0.7172 -0.6899 -0.1055
 7617TIP3   OH244341   4.828   5.161  12.723 -0.5712 -0.0719 -0.3922
 7617TIP3    H144342   4.831   5.232  12.787  1.5553  0.7134 -1.2901
 7617TIP3    H244343   4.798   5.203  12.642 -0.5436 -0.4701 -0.6107
 7618TIP3   OH244344   1.182   0.551  12.087 -0.3404  0.2446 -0.1787
 7618TIP3    H144345   1.231   0.513  12.160 -0.2765  1.0534  0.2148
 7618TIP3    H244346   1.094   0.564  12.121  0.2722  2.9496  0.6599
 7619TIP3   OH244347   3.193   6.661   2.640 -0.1750  0.1414 -0.0524
 7619TIP3    H144348   3.250   6.727   2.680  0.6550 -0.7538  0.2874
 7619TIP3    H244349   3.180   6.691   2.550 -0.2024  0.9987  0.2238
 7620TIP3   OH244350   6.520   0.175  12.760  0.0763  0.7845 -0.2242
 7620TIP3    H144351   6.602   0.136  12.789 -0.0650  1.3576  1.0322
 7620TIP3    H244352   6.532   0.269  12.775 -0.3630  1.0129 -1.2076
 7621TIP3   OH244353   3.246   3.138   0.320 -0.3762 -0.3953 -0.3992
 7621TIP3    H144354   3.198   3.071   0.271 -0.5265  0.2598 -1.1560
 7621TIP3    H244355   3.256   3.210   0.259 -1.2808  0.7806  0.7723
 7622TIP3   OH244356   5.126   2.428   2.241  0.6938 -0.3112 -0.1761
 7622TIP3    H144357   5.039   2.405   2.273  0.3883 -1.2738 -1.5939
 7622TIP3    H244358   5.158   2.493   2.303  0.0951 -1.9294  1.9647
 7623TIP3   OH244359   0.323   0.566  11.954  0.3551  0.0214 -0.2777
 7623TIP3    H144360   0.362   0.646  11.920  1.4217 -0.6468 -0.6747
 7623TIP3    H244361   0.262   0.538  11.885 -0.1672  0.5782 -0.0533
 7624TIP3   OH244362   5.610   4.433  15.674 -0.2332 -0.1342 -0.0215
 7624TIP3    H144363   5.549   4.506  15.676 -1.5074 -1.1636  0.8161
 7624TIP3    H244364   5.691   4.469  15.639 -1.0889  1.4559 -0.4246
 7625TIP3   OH244365   2.996   1.480   6.105 -0.3268 -0.2649 -0.2103
 7625TIP3    H144366   3.034   1.564   6.132 -2.0329  0.5159 -0.1275
 7625TIP3    H244367   3.071   1.428   6.076  0.6818  1.6546 -1.2458
 7626TIP3   OH244368   4.031   3.124  14.127  0.1773 -0.1272  0.2042
 7626TIP3    H144369   4.003   3.215  14.118 -1.3187 -0.6417 -0.8575
 7626TIP3    H244370   4.063   3.101  14.040 -0.4320 -0.9087  0.1798
 7627TIP3   OH244371   3.985   3.954   6.565 -0.0187 -0.3803 -0.2520
 7627TIP3    H144372   3.962   3.900   6.490 -0.0743 -0.1010 -0.4389
 7627TIP3    H244373   4.036   3.897   6.622  0.5745 -0.4113 -0.8049
 7628TIP3   OH244374   6.411   2.642   3.596  0.5442  0.0891  0.7356
 7628TIP3    H144375   6.505   2.657   3.594  0.4119  0.9264  0.1028
 7628TIP3    H244376   6.373   2.728   3.583 -0.3115 -0.2549  0.9003
 7629TIP3   OH244377   1.723   3.512   5.327 -0.2356  0.6903  0.4072
 7629TIP3    H144378   1.753   3.462   5.402  0.0726  2.1193  1.2787
 7629TIP3    H244379   1.634   3.481   5.311  0.1615 -0.5679  0.4948
 7630TIP3   OH244380   6.375   0.580  12.676  0.1460  0.1453 -0.3589
 7630TIP3    H144381   6.407   0.516  12.614  2.3286  2.2592 -1.5964
 7630TIP3    H244382   6.446   0.590  12.739 -0.0517  1.4574 -0.3158
 7631TIP3   OH244383   2.382   3.657   3.668  0.1380  0.2494 -0.4026
 7631TIP3    H144384   2.427   3.572   3.672 -0.2256  0.0974  0.9317
 7631TIP3    H244385   2.442   3.717   3.713  0.3799  0.7195 -1.3150
 7632TIP3   OH244386   5.031   5.938   0.642  0.5870  0.8980 -0.1751
 7632TIP3    H144387   5.011   5.893   0.560 -1.4651  1.1513  0.1355
 7632TIP3    H244388   4.958   5.916   0.701  1.0608  2.1949  0.9706
 7633TIP3   OH244389   3.469   0.870   2.086  0.2189  0.4406  0.1831
 7633TIP3    H144390   3.527   0.946   2.088  0.7277  0.1191 -1.1375
 7633TIP3    H244391   3.528   0.794   2.085  0.0817  0.1108 -4.3810
 7634TIP3   OH244392   3.563   3.322  12.872 -0.5757 -0.0502 -0.1427
 7634TIP3    H144393   3.573   3.404  12.825 -0.2342 -0.3189 -0.5430
 7634TIP3    H244394   3.651   3.301  12.904 -0.0532 -1.6763 -2.4221
 7635TIP3   OH244395   3.350   3.468  15.085 -0.1025  0.4211  0.2622
 7635TIP3    H144396   3.335   3.563  15.083  0.7756  0.5668  0.2209
 7635TIP3    H244397   3.366   3.448  15.177 -1.4910  0.0983  0.4616
 7636TIP3   OH244398   2.372   6.691   4.288 -0.1969 -0.5975  0.2996
 7636TIP3    H144399   2.458   6.732   4.294  0.1921 -1.3014 -0.2405
 7636TIP3    H244400   2.373   6.646   4.203 -1.3415 -0.0822 -0.0055
 7637TIP3   OH244401   4.068   6.084   5.730  0.5735 -0.0394 -0.0416
 7637TIP3    H144402   4.112   6.095   5.814 -0.6852  0.0223  0.6370
 7637TIP3    H244403   4.028   5.997   5.735 -0.9347  0.6252  0.1506
 7638TIP3   OH244404   0.341   4.700  15.530 -0.3400  0.2883  0.0131
 7638TIP3    H144405   0.407   4.630  15.531  0.1632  0.7260 -1.0688
 7638TIP3    H244406   0.361   4.753  15.608  0.6911  0.5073 -0.3909
 7639TIP3   OH244407   3.013   3.577   3.704  0.5577 -0.6660  0.3723
 7639TIP3    H144408   3.047   3.601   3.790  0.7302 -0.5841  0.2802
 7639TIP3    H244409   3.079   3.517   3.668  0.4040 -0.8332  0.3661
 7640TIP3   OH244410   5.178   2.527   3.269  0.4287  0.2833  0.5194
 7640TIP3    H144411   5.231   2.580   3.210  1.4168 -1.4579 -0.1937
 7640TIP3    H244412   5.133   2.464   3.213  2.4458 -2.3403  1.6470
 7641TIP3   OH244413   3.684   3.902  16.777  0.2333  0.0003  0.5339
 7641TIP3    H144414   3.774   3.925  16.753 -0.0068 -0.3107 -0.7517
 7641TIP3    H244415   3.678   3.808  16.756 -0.2178 -0.1126  1.1630
 7642TIP3   OH244416   0.609   3.225   5.175 -0.4900 -0.2575 -0.9566
 7642TIP3    H144417   0.559   3.146   5.197 -0.3496  0.0377  0.4869
 7642TIP3    H244418   0.573   3.293   5.231  0.9165  0.1662 -0.5111
 7643TIP3   OH244419   3.490   1.539  12.172  0.4144  0.2413 -0.0889
 7643TIP3    H144420   3.429   1.502  12.236 -0.8865  3.6414  0.8449
 7643TIP3    H244421   3.552   1.468  12.154 -0.7647 -1.7272  2.8670
 7644TIP3   OH244422   5.340   1.989   4.405  0.1954  0.3911 -0.0444
 7644TIP3    H144423   5.254   1.981   4.445  0.1672  1.0136  0.0344
 7644TIP3    H244424   5.325   2.042   4.326  0.5904  0.9616  0.2626
 7645TIP3   OH244425   0.229   6.635   3.277  0.2468  0.5708  0.4772
 7645TIP3    H144426   0.183   6.555   3.301 -0.6979  1.1611  0.7021
 7645TIP3    H244427   0.238   6.630   3.182  1.4218 -0.4269  0.6243
 7646TIP3   OH244428   5.219   3.763  10.308 -0.5003 -0.0647 -0.3205
 7646TIP3    H144429   5.228   3.670  10.327  0.2133 -0.2277 -1.3267
 7646TIP3    H244430   5.289   3.805  10.358 -0.2971 -0.1751 -0.5093
 7647TIP3   OH244431   0.993   0.554   2.025  0.2757  0.6042 -0.6498
 7647TIP3    H144432   1.083   0.553   1.993  0.9718  0.2132  1.2055
 7647TIP3    H244433   0.964   0.463   2.021  1.3902 -0.0032  2.3556
 7648TIP3   OH244434   3.108   4.642   2.799  0.6698  0.7943  0.7976
 7648TIP3    H144435   3.080   4.555   2.769 -1.0459  1.1940  1.1254
 7648TIP3    H244436   3.028   4.683   2.832  1.1838  2.9981 -0.4971
 7649TIP3   OH244437   4.995   3.875   1.320  0.2676  0.3975 -0.3650
 7649TIP3    H144438   5.073   3.842   1.275 -0.0922 -0.8670 -0.0988
 7649TIP3    H244439   5.027   3.944   1.378  1.5153 -1.4340  1.2160
 7650TIP3   OH244440   4.815   6.131  17.257  0.6646 -0.4347 -0.1915
 7650TIP3    H144441   4.822   6.048  17.209 -0.2240 -1.1722  0.9011
 7650TIP3    H244442   4.858   6.195  17.200  1.7079 -1.6999 -0.8867
 7651TIP3   OH244443   2.454   3.840  12.456  0.1507  0.2429 -0.5759
 7651TIP3    H144444   2.457   3.909  12.522 -1.9559 -0.0243 -0.1088
 7651TIP3    H244445   2.545   3.820  12.437  0.8192  1.0624  1.4947
 7652TIP3   OH244446   2.679   1.099   1.078 -0.1711 -0.5333  0.4513
 7652TIP3    H144447   2.684   1.103   1.173  2.6424 -0.8293  0.3768
 7652TIP3    H244448   2.678   1.191   1.051  1.0810 -0.4246  0.7256
 7653TIP3   OH244449   6.139   6.696  14.781  0.3071 -0.3569 -0.1192
 7653TIP3    H144450   6.090   6.622  14.747 -0.2733 -1.4265  2.7791
 7653TIP3    H244451   6.092   6.722  14.860  1.7696  1.6733  0.1631
 7654TIP3   OH244452   1.112   4.001  11.255 -0.2825  0.0343 -0.1762
 7654TIP3    H144453   1.032   3.955  11.230 -0.6095 -0.8410  2.1449
 7654TIP3    H244454   1.084   4.091  11.272 -0.3747  0.2096 -1.2387
 7655TIP3   OH244455   3.692   3.699   4.407  0.1389 -0.3111 -0.6232
 7655TIP3    H144456   3.739   3.627   4.450 -0.6942 -0.8853 -0.6580
 7655TIP3    H244457   3.758   3.768   4.399  1.3403 -1.5357 -1.7913
 7656TIP3   OH244458   2.385   0.396   3.497  0.0814 -0.2700 -0.6562
 7656TIP3    H144459   2.314   0.360   3.443  0.6879 -0.6895 -1.1874
 7656TIP3    H244460   2.367   0.490   3.501  0.9631  0.0698 -3.0794
 7657TIP3   OH244461   6.591   0.283  16.714 -0.1892 -0.2151  0.0275
 7657TIP3    H144462   6.624   0.373  16.717 -0.3666 -0.0984 -1.0380
 7657TIP3    H244463   6.497   0.292  16.729 -0.4576 -0.0342 -1.5347
 7658TIP3   OH244464   4.996   1.528   0.017  0.1889  0.6643 -0.0044
 7658TIP3    H144465   5.052   1.605   0.005 -0.9882  1.3822 -1.1516
 7658TIP3    H244466   4.935   1.531  -0.056 -1.2389 -0.1858  1.0878
 7659TIP3   OH244467   1.778   4.019  14.468  0.0217 -0.0389  0.3293
 7659TIP3    H144468   1.755   4.100  14.514 -0.0718 -1.5624  3.2704
 7659TIP3    H244469   1.853   4.042  14.413  0.0871  2.0117  1.1918
 7660TIP3   OH244470   1.347   4.180   3.942 -0.0405  0.3454 -0.2158
 7660TIP3    H144471   1.288   4.155   4.013  0.0793  0.3107 -0.1263
 7660TIP3    H244472   1.322   4.124   3.869 -0.3907  0.6230 -0.3054
 7661TIP3   OH244473   1.700   2.618   1.470  0.3421 -0.7921  0.0826
 7661TIP3    H144474   1.608   2.632   1.493  0.8462  0.3719  1.5507
 7661TIP3    H244475   1.744   2.604   1.554  2.0879  2.5084 -0.0800
 7662TIP3   OH244476   4.864   2.496   5.964  0.4739  0.2099  0.0468
 7662TIP3    H144477   4.773   2.492   5.933  0.3730  0.1325  0.3412
 7662TIP3    H244478   4.908   2.426   5.917 -0.2748 -1.6450  1.9334
 7663TIP3   OH244479   1.229   2.291   4.738 -0.1001  0.1152  0.4590
 7663TIP3    H144480   1.181   2.268   4.658  0.4003 -1.7454  0.6377
 7663TIP3    H244481   1.202   2.225   4.802  1.1081  0.2886  1.1811
 7664TIP3   OH244482   4.563   4.073  12.710 -0.5084 -0.0615  0.4284
 7664TIP3    H144483   4.620   4.104  12.640 -2.3227 -1.3542 -1.7674
 7664TIP3    H244484   4.617   4.078  12.789  1.4975  1.8792 -0.9352
 7665TIP3   OH244485   2.668   5.372   5.842 -0.9248 -0.0776 -0.6047
 7665TIP3    H144486   2.649   5.318   5.919  2.5585 -1.3252 -0.4833
 7665TIP3    H244487   2.733   5.435   5.872  1.5860 -1.4866 -2.7473
 7666TIP3   OH244488   5.308   1.554   2.617 -0.3074 -0.3669 -0.1390
 7666TIP3    H144489   5.339   1.575   2.706 -0.2433 -1.7669  0.1843
 7666TIP3    H244490   5.388   1.548   2.565 -0.4124  1.9563 -0.6769
 7667TIP3   OH244491   1.664   1.055  12.218 -0.2574 -0.2858 -0.0693
 7667TIP3    H144492   1.674   1.134  12.272  0.2953 -0.4764  0.1207
 7667TIP3    H244493   1.662   0.983  12.281  0.5772 -0.5261 -0.2941
 7668TIP3   OH244494   3.633   0.887  11.911  0.4106  0.4691 -0.0655
 7668TIP3    H144495   3.699   0.822  11.889  0.1385 -0.3100  1.3532
 7668TIP3    H244496   3.600   0.917  11.826 -1.5799 -3.3902 -0.8512
 7669TIP3   OH244497   6.136   1.440  15.861 -0.0283  0.0688 -0.7737
 7669TIP3    H144498   6.086   1.418  15.940  0.0880 -0.8132 -0.9336
 7669TIP3    H244499   6.187   1.517  15.886  0.4648 -0.5497  0.2330
 7670TIP3   OH244500   2.491   6.452  11.480  0.1103 -0.1379 -0.1285
 7670TIP3    H144501   2.570   6.441  11.533  1.1831 -0.2479 -1.6784
 7670TIP3    H244502   2.439   6.373  11.498  1.5658 -1.3519 -1.0113
 7671TIP3   OH244503   3.043   2.070  16.975  0.4477  0.8734 -0.4992
 7671TIP3    H144504   3.052   2.160  16.946  1.7385  0.8273 -0.3328
 7671TIP3    H244505   3.112   2.022  16.928  0.0614  0.0563 -0.2667
 7672TIP3   OH244506   2.015   1.893  15.906  0.0304 -0.3133  0.1393
 7672TIP3    H144507   1.938   1.936  15.868 -0.0705 -0.3370  0.3200
 7672TIP3    H244508   1.984   1.854  15.987 -0.0134 -1.2384 -0.3115
 7673TIP3   OH244509   5.054   3.691  13.846  0.2489 -0.3046 -0.2200
 7673TIP3    H144510   5.046   3.762  13.782 -0.8320 -0.2070 -0.0044
 7673TIP3    H244511   5.109   3.727  13.915 -0.6754  0.5161  0.1146
 7674TIP3   OH244512   1.130   3.062  11.202 -0.2111  0.0744 -0.2388
 7674TIP3    H144513   1.205   3.121  11.206 -1.5815  1.8894  0.4847
 7674TIP3    H244514   1.112   3.051  11.108  0.8442 -0.2658 -0.4060
 7675TIP3   OH244515   1.088   4.319   5.049  0.0595 -0.8916  0.5175
 7675TIP3    H144516   1.062   4.274   5.130  1.1164 -2.2977  0.1242
 7675TIP3    H244517   1.161   4.266   5.015 -2.0180 -1.9530 -2.7596
 7676TIP3   OH244518   0.097   4.247  16.486  0.3398 -0.3562  0.0701
 7676TIP3    H144519   0.150   4.220  16.411 -0.0112 -0.4648 -0.1409
 7676TIP3    H244520   0.149   4.313  16.530  0.1185  0.4525 -0.8477
 7677TIP3   OH244521   2.155   1.418   4.888 -0.5435  0.4268 -0.3432
 7677TIP3    H144522   2.243   1.401   4.855 -0.2379  0.2140  0.5657
 7677TIP3    H244523   2.166   1.488   4.952 -0.6954 -1.0551  1.3576
 7678TIP3   OH244524   2.543   1.378   3.584  0.3390  0.0987  0.1025
 7678TIP3    H144525   2.491   1.368   3.505  0.7851 -1.1580 -0.0693
 7678TIP3    H244526   2.484   1.353   3.655  0.5084 -0.7348 -0.0362
 7679TIP3   OH244527   0.340   4.139   0.779 -0.2602  1.1685 -0.5833
 7679TIP3    H144528   0.342   4.189   0.697  1.6760  0.6360 -0.9042
 7679TIP3    H244529   0.388   4.059   0.759 -2.6904 -0.5892  0.1226
 7680TIP3   OH244530   0.412   4.667  17.155 -0.5198 -0.0736 -0.3588
 7680TIP3    H144531   0.438   4.707  17.238  0.7093 -0.5149 -0.5057
 7680TIP3    H244532   0.424   4.735  17.089  0.3259 -0.2862 -0.4295
 7681TIP3   OH244533   5.792   1.126  13.940  0.2393 -0.4358  0.5040
 7681TIP3    H144534   5.821   1.207  13.898  0.6935 -0.1344  1.3893
 7681TIP3    H244535   5.872   1.078  13.959 -0.0079 -0.9222  0.3268
 7682TIP3   OH244536   5.672   3.238  15.970 -0.3166  0.5045  0.0109
 7682TIP3    H144537   5.688   3.180  16.044  0.2577  0.6411 -0.0074
 7682TIP3    H244538   5.580   3.265  15.980  0.1527  1.6632  1.4610
 7683TIP3   OH244539   4.812   2.207  12.608  0.5222 -0.0194 -0.6853
 7683TIP3    H144540   4.884   2.266  12.585  0.3323 -0.2549 -1.9194
 7683TIP3    H244541   4.855   2.124  12.627  0.8273  0.5595  1.4055
 7684TIP3   OH244542   2.421   1.968   5.313  0.6563  0.3000  0.1716
 7684TIP3    H144543   2.516   1.956   5.320  0.6066 -0.8775 -0.8306
 7684TIP3    H244544   2.397   1.924   5.232 -0.7290  0.7658  0.2998
 7685TIP3   OH244545   1.753   6.046   3.559  0.1462 -0.3956 -0.0658
 7685TIP3    H144546   1.718   6.091   3.482 -3.5665 -1.8782  0.5147
 7685TIP3    H244547   1.702   5.965   3.564  1.3305 -1.0935  3.0762
 7686TIP3   OH244548   5.570   1.520   5.303  0.0044 -0.2502  0.2789
 7686TIP3    H144549   5.630   1.565   5.362  1.2003  0.8183 -1.6512
 7686TIP3    H244550   5.612   1.435   5.286  0.7973  0.3093 -0.6962
 7687TIP3   OH244551   6.464   5.895  13.973  0.0695  0.8515  0.5435
 7687TIP3    H144552   6.469   5.836  14.049 -0.4321  1.3472  0.9724
 7687TIP3    H244553   6.390   5.953  13.993 -1.7062 -0.5831 -1.4528
 7688TIP3   OH244554   3.406   6.115   5.258 -0.1334 -0.2720 -0.3266
 7688TIP3    H144555   3.334   6.176   5.245  0.4944  0.2927 -1.3747
 7688TIP3    H244556   3.397   6.085   5.348 -1.4417  0.0744 -0.3249
 7689TIP3   OH244557   6.291   0.338   4.348 -0.1077  0.1297  0.7497
 7689TIP3    H144558   6.211   0.363   4.395 -0.9397  1.0188 -1.0298
 7689TIP3    H244559   6.302   0.407   4.282  1.8415 -0.2707  0.6119
 7690TIP3   OH244560   3.538   0.425   1.961  0.8376  0.1835  0.5630
 7690TIP3    H144561   3.598   0.374   1.907  0.6511 -0.0843  0.6114
 7690TIP3    H244562   3.585   0.507   1.976  1.0628  0.0984  0.3402
 7691TIP3   OH244563   4.089   1.896  12.113  0.0427 -0.1234  0.2350
 7691TIP3    H144564   4.114   1.805  12.097  0.3250 -0.1479  0.7924
 7691TIP3    H244565   4.124   1.916  12.200  2.5811  1.4300 -1.0160
 7692TIP3   OH244566   6.681   5.094   0.468  0.2046  0.1578 -0.6442
 7692TIP3    H144567   6.597   5.062   0.436 -1.2420  0.0947  2.8671
 7692TIP3    H244568   6.675   5.189   0.458 -0.2293  0.1447 -0.5175
 7693TIP3   OH244569   0.328   6.230   0.032 -0.2640 -0.1920  0.4028
 7693TIP3    H144570   0.273   6.190  -0.035 -0.3622 -1.3353  1.1251
 7693TIP3    H244571   0.408   6.256  -0.014 -1.1830  1.0270 -0.5512
 7694TIP3   OH244572   3.407   6.456  11.785 -0.2428 -0.0982 -0.2978
 7694TIP3    H144573   3.435   6.366  11.768 -0.5537 -0.2046 -0.2543
 7694TIP3    H244574   3.320   6.462  11.745 -0.5897 -0.0723  0.4450
 7695TIP3   OH244575   0.683   1.696  11.595  0.4068  0.2430 -0.7315
 7695TIP3    H144576   0.733   1.695  11.514 -0.4578 -1.6921 -1.2915
 7695TIP3    H244577   0.626   1.619  11.589 -0.6025  0.7946  1.1324
 7696TIP3   OH244578   1.956   5.118  13.024 -0.1048  0.4394 -0.7521
 7696TIP3    H144579   2.001   5.120  12.940  0.2826  0.8774 -0.5388
 7696TIP3    H244580   1.865   5.140  13.004 -0.1246  0.0396 -1.1188
 7697TIP3   OH244581   2.845   2.806   6.645  0.2513 -0.4063 -0.3675
 7697TIP3    H144582   2.923   2.751   6.654  0.2229 -1.1405 -3.5092
 7697TIP3    H244583   2.771   2.746   6.650 -0.1408  0.1575  1.5736
 7698TIP3   OH244584   2.252   1.642  11.997 -0.5541 -0.1313 -0.0837
 7698TIP3    H144585   2.241   1.728  12.039 -0.9056 -0.5087  0.6183
 7698TIP3    H244586   2.245   1.579  12.069 -0.1495 -0.7437 -0.5703
 7699TIP3   OH244587   5.124   1.806   1.694 -0.2183 -0.3258  0.2514
 7699TIP3    H144588   5.134   1.899   1.673  0.9726 -0.4234  0.2766
 7699TIP3    H244589   5.051   1.776   1.639 -1.8211  1.0069  1.5664
 7700TIP3   OH244590   2.508   3.019  11.719  1.0437  0.7589  0.8434
 7700TIP3    H144591   2.526   3.044  11.810  1.6764  0.2292  0.8777
 7700TIP3    H244592   2.593   2.992  11.685  0.4089 -1.4459  0.8541
 7701TIP3   OH244593   3.668   4.021   5.553 -0.1404  0.2091 -0.7272
 7701TIP3    H144594   3.595   3.959   5.562  1.3571 -1.4710  0.3010
 7701TIP3    H244595   3.746   3.967   5.553  1.2233  2.0820 -0.2730
 7702TIP3   OH244596   6.446   0.100  10.655 -0.0507 -0.0787  0.0782
 7702TIP3    H144597   6.421   0.010  10.676  1.0418 -1.4144 -3.5258
 7702TIP3    H244598   6.541   0.098  10.649 -0.0014  1.3382  0.0069
 7703TIP3   OH244599   2.017   3.709   2.133 -0.3681  0.2089 -0.5232
 7703TIP3    H144600   1.984   3.634   2.182 -1.9578  1.4399  0.3531
 7703TIP3    H244601   1.953   3.778   2.148  1.3649  1.9470 -0.8232
 7704TIP3   OH244602   0.548   0.910   4.412 -0.7976  0.4398 -0.8488
 7704TIP3    H144603   0.489   0.835   4.422  1.7259 -1.4211  1.6441
 7704TIP3    H244604   0.599   0.890   4.333 -0.7072 -0.0490 -0.6678
 7705TIP3   OH244605   2.845   1.838   5.617 -0.3129 -0.3091 -0.0894
 7705TIP3    H144606   2.857   1.811   5.708 -1.1810  0.0491  0.1399
 7705TIP3    H244607   2.900   1.777   5.567 -0.1742 -0.7914  0.6301
 7706TIP3   OH244608   1.852   5.963  13.731  0.0219 -0.4145  0.0876
 7706TIP3    H144609   1.788   5.931  13.667 -0.8341  0.8453  0.2739
 7706TIP3    H244610   1.811   5.948  13.816  0.4074 -0.5036  0.2601
 7707TIP3   OH244611   1.340   5.451   4.219 -0.4884  0.1623 -0.5902
 7707TIP3    H144612   1.422   5.464   4.267  0.2662 -0.7109 -1.5877
 7707TIP3    H244613   1.296   5.380   4.266 -1.3464  1.5083  0.7410
 7708TIP3   OH244614   1.768   2.129   0.118  0.1152 -0.6104 -0.3337
 7708TIP3    H144615   1.784   2.098   0.029  0.2934  1.1094 -0.9364
 7708TIP3    H244616   1.815   2.212   0.124  1.2662 -1.3185  1.8341
 7709TIP3   OH244617   0.940   3.797   3.538 -0.3433 -0.2254 -0.7410
 7709TIP3    H144618   0.869   3.764   3.593 -0.6195 -0.0823 -1.0104
 7709TIP3    H244619   0.932   3.892   3.542  0.7824 -0.1526  0.4653
 7710TIP3   OH244620   3.005   6.458   6.848  0.1550 -0.3864 -0.3148
 7710TIP3    H144621   3.033   6.506   6.770  0.9189 -2.8203 -1.6674
 7710TIP3    H244622   2.992   6.525   6.915 -0.3565  1.7961 -2.4632
 7711TIP3   OH244623   6.049   4.868  16.642 -0.6475 -0.2754  0.0162
 7711TIP3    H144624   5.960   4.873  16.609 -0.8029 -0.2384  0.4302
 7711TIP3    H244625   6.104   4.870  16.564 -1.0395 -1.3560 -0.3009
 7712TIP3   OH244626   1.800   4.629  13.602  0.0131 -0.5673  0.1518
 7712TIP3    H144627   1.733   4.586  13.655  0.9272 -1.9651  0.2024
 7712TIP3    H244628   1.873   4.568  13.602  0.4592 -0.0733 -1.7687
 7713TIP3   OH244629   5.055   5.973  10.757 -0.5875 -0.1312 -0.0952
 7713TIP3    H144630   5.117   6.007  10.822  0.9247 -1.4382 -0.7914
 7713TIP3    H244631   5.007   5.905  10.803  0.8489 -1.4268 -0.4108
 7714TIP3   OH244632   3.834   3.104   1.940 -0.2742  0.8764  0.2763
 7714TIP3    H144633   3.886   3.048   1.883  0.6909 -0.1420  2.0909
 7714TIP3    H244634   3.805   3.175   1.883 -1.6011 -1.4223 -2.1381
 7715TIP3   OH244635   2.636   3.791  16.927 -0.1752 -0.4970 -0.1215
 7715TIP3    H144636   2.721   3.789  16.971 -0.3847  2.0547  0.5586
 7715TIP3    H244637   2.654   3.833  16.843 -0.4828 -1.5763 -0.7365
 7716TIP3   OH244638   3.252   1.650   3.419  0.4858 -0.6039  0.4072
 7716TIP3    H144639   3.272   1.556   3.426  0.4389 -0.6452  0.0208
 7716TIP3    H244640   3.336   1.690   3.397  0.1589 -0.8005 -1.4158
 7717TIP3   OH244641   2.087   1.376   1.146 -0.3782  0.0134  0.1744
 7717TIP3    H144642   2.168   1.417   1.117 -0.4297 -0.8545 -1.2858
 7717TIP3    H244643   2.040   1.446   1.192  0.3313  1.0629 -0.6432
 7718TIP3   OH244644   1.925   4.572  16.808  0.1239  0.4726 -0.0593
 7718TIP3    H144645   1.920   4.595  16.715 -1.4504 -0.8261 -0.3488
 7718TIP3    H244646   1.926   4.476  16.808 -1.1400  0.4322  1.2857
 7719TIP3   OH244647   6.163   1.890   1.708  0.3200  0.2028 -0.2142
 7719TIP3    H144648   6.258   1.887   1.717  0.6622 -0.4037 -3.0470
 7719TIP3    H244649   6.146   1.969   1.656 -0.7056  0.2205  0.1256
 7720TIP3   OH244650   2.184   3.237  13.146 -0.1752 -0.2188  0.2830
 7720TIP3    H144651   2.167   3.329  13.127  0.5981 -0.1115  0.0678
 7720TIP3    H244652   2.216   3.201  13.063  0.7381 -0.3713  0.6874
 7721TIP3   OH244653   5.121   3.400  12.162  0.3900 -0.1415  0.0326
 7721TIP3    H144654   5.143   3.311  12.135  0.4777  0.2103 -1.1115
 7721TIP3    H244655   5.062   3.432  12.094  1.1597  1.0278 -0.1101
 7722TIP3   OH244656   3.951   5.737  16.950 -0.1817 -0.2469  0.8139
 7722TIP3    H144657   3.968   5.674  17.020  0.9690  0.3453  1.0896
 7722TIP3    H244658   4.038   5.764  16.920 -0.6554  0.6063  0.1512
 7723TIP3   OH244659   4.932   5.054  14.813  0.0520  0.5430 -0.0902
 7723TIP3    H144660   4.966   4.980  14.863 -0.3022  1.3279  1.3651
 7723TIP3    H244661   4.864   5.016  14.757  0.8528 -0.4477 -0.4169
 7724TIP3   OH244662   5.070   4.006   2.994 -0.2976  0.1459 -0.3857
 7724TIP3    H144663   5.098   4.002   2.902  0.0248  1.3802 -0.3560
 7724TIP3    H244664   5.145   3.975   3.043 -1.0617 -2.2618 -0.5815
 7725TIP3   OH244665   0.123   1.032   5.162 -0.4291  0.1659  0.4293
 7725TIP3    H144666   0.101   1.124   5.180 -1.4482  0.4846 -2.0634
 7725TIP3    H244667   0.047   0.983   5.194 -0.5243  0.3491  0.4885
 7726TIP3   OH244668   2.486   2.198   3.290  0.4101 -0.0307 -0.1914
 7726TIP3    H144669   2.573   2.163   3.274 -0.0566 -1.0031 -0.7379
 7726TIP3    H244670   2.472   2.184   3.384 -0.3388 -2.8349 -0.6245
 7727TIP3   OH244671   5.925   5.530  11.417  0.2261  0.0010  0.2053
 7727TIP3    H144672   6.016   5.508  11.397 -0.0613 -1.6705  0.6418
 7727TIP3    H244673   5.932   5.608  11.473  1.4291 -0.4582  0.7402
 7728TIP3   OH244674   3.799   0.722  11.521 -0.3725 -0.1532 -0.4933
 7728TIP3    H144675   3.861   0.651  11.536 -1.1427 -0.8499 -0.5291
 7728TIP3    H244676   3.852   0.801  11.524  0.6296 -0.7726 -1.1955
 7729TIP3   OH244677   5.924   1.325  13.739 -0.2371 -0.2008  0.5798
 7729TIP3    H144678   5.887   1.257  13.683 -2.4845  2.1991 -1.0709
 7729TIP3    H244679   5.959   1.390  13.678  1.5736  0.3446  2.0923
 7730TIP3   OH244680   0.869   1.877   0.790 -0.4841  0.6666  0.2407
 7730TIP3    H144681   0.905   1.912   0.872 -0.8241  0.6640  0.3919
 7730TIP3    H244682   0.946   1.856   0.738 -0.1850 -1.6600  1.5089
 7731TIP3   OH244683   3.919   2.137   3.751 -0.2571 -0.0864 -0.5714
 7731TIP3    H144684   3.912   2.220   3.799  1.3197  0.3423 -0.9973
 7731TIP3    H244685   3.921   2.163   3.659 -0.5453 -0.6621 -0.7417
 7732TIP3   OH244686   3.391   0.340  15.016  0.1414 -0.2686  0.1356
 7732TIP3    H144687   3.433   0.348  14.930 -0.2231 -0.7620 -0.0940
 7732TIP3    H244688   3.300   0.320  14.996  0.0823 -0.5145  0.6424
 7733TIP3   OH244689   4.374   0.140   2.932 -0.2873  0.1965  0.5256
 7733TIP3    H144690   4.302   0.178   2.984 -0.9903 -0.0312 -0.2576
 7733TIP3    H244691   4.346   0.151   2.841 -0.4261 -1.9957  0.2473
 7734TIP3   OH244692   4.372   1.361   0.189  0.4279 -0.7764  0.7082
 7734TIP3    H144693   4.298   1.415   0.219 -1.4105 -1.9519 -1.4463
 7734TIP3    H244694   4.445   1.423   0.181  0.2362  0.1714  4.3097
 7735TIP3   OH244695   5.579   5.109  17.173 -0.0979  0.1616 -0.0274
 7735TIP3    H144696   5.558   5.078  17.262 -0.2944  0.8292  0.1622
 7735TIP3    H244697   5.495   5.133  17.135 -0.3067 -2.1695 -1.2108
 7736TIP3   OH244698   6.321   3.000   1.478  0.4698 -0.1156  0.1633
 7736TIP3    H144699   6.355   3.015   1.389 -0.9382  1.1319 -0.2024
 7736TIP3    H244700   6.285   2.912   1.475  0.2986 -0.0265 -0.5536
 7737TIP3   OH244701   1.537   1.679  11.248  0.6903 -0.1531 -0.6838
 7737TIP3    H144702   1.511   1.766  11.215  0.1035  0.5626  1.4773
 7737TIP3    H244703   1.454   1.631  11.255  0.8457 -0.4074 -0.6174
 7738TIP3   OH244704   1.877   6.673  14.543  0.3308 -0.2892 -0.3564
 7738TIP3    H144705   1.804   6.648  14.600 -1.2279  3.2917 -0.5207
 7738TIP3    H244706   1.837   6.686  14.457  1.5374 -0.0577 -0.9000
 7739TIP3   OH244707   0.741   2.303   6.535 -0.2305 -0.8291 -0.1481
 7739TIP3    H144708   0.711   2.392   6.522  0.4264 -0.2535  1.8935
 7739TIP3    H244709   0.809   2.290   6.470 -1.1118 -0.2770 -1.2156
 7740TIP3   OH244710   1.751   2.218  12.183 -0.2517  0.7892 -0.0447
 7740TIP3    H144711   1.755   2.249  12.273  1.3803  2.3238 -0.5801
 7740TIP3    H244712   1.731   2.296  12.132  0.8715  0.3779 -1.1753
 7741TIP3   OH244713   6.617   0.451  16.437  0.5211 -0.2211 -0.0683
 7741TIP3    H144714   6.550   0.516  16.417 -0.3258 -0.8740  0.5506
 7741TIP3    H244715   6.689   0.501  16.475  0.1507  0.4299 -0.2033
 7742TIP3   OH244716   0.760   1.526  13.837  0.3562 -0.5275  0.0740
 7742TIP3    H144717   0.733   1.531  13.929  0.2874  2.2466 -0.0261
 7742TIP3    H244718   0.782   1.433  13.824 -0.0118 -1.0778  2.7555
 7743TIP3   OH244719   5.766   5.306  11.455 -0.4771 -0.1046  0.7089
 7743TIP3    H144720   5.810   5.222  11.472  1.1623  0.7252  0.7459
 7743TIP3    H244721   5.837   5.366  11.433 -1.4024  1.7291  2.4326
 7744TIP3   OH244722   2.082   3.527   6.318 -0.0130  0.0306 -0.3134
 7744TIP3    H144723   2.040   3.441   6.325 -0.1305  0.1214  0.1630
 7744TIP3    H244724   2.015   3.584   6.281 -0.6162  0.3726  1.2395
 7745TIP3   OH244725   1.356   1.227  14.671 -0.2213 -0.1624  0.2607
 7745TIP3    H144726   1.340   1.193  14.758  0.4570  1.7282  1.1842
 7745TIP3    H244727   1.451   1.219  14.659 -0.4931 -1.9434 -1.0159
 7746TIP3   OH244728   6.551   4.444  16.182  0.2390  0.4613  0.1520
 7746TIP3    H144729   6.588   4.455  16.094 -0.1745 -0.4490 -0.1500
 7746TIP3    H244730   6.487   4.373  16.172 -0.9178  1.3556  0.8634
 7747TIP3   OH244731   4.005   1.431  16.237  0.0081 -0.0882  0.2040
 7747TIP3    H144732   4.073   1.393  16.181 -1.5350 -2.1703 -0.3575
 7747TIP3    H244733   4.014   1.386  16.321  1.2754  1.8971  1.2306
 7748TIP3   OH244734   3.614   4.043  13.031  0.1319 -0.0556  0.7829
 7748TIP3    H144735   3.596   4.046  12.937  1.9635 -1.7335  0.3187
 7748TIP3    H244736   3.528   4.029  13.072 -0.6609  0.4777 -0.6180
 7749TIP3   OH244737   1.653   2.847   2.960  0.7354 -0.1484 -0.2200
 7749TIP3    H144738   1.730   2.897   2.988  0.4663  0.6020 -0.7768
 7749TIP3    H244739   1.604   2.908   2.904  0.4036 -1.0423 -0.9281
 7750TIP3   OH244740   2.319   1.540  17.012  0.3006 -0.0753  0.4356
 7750TIP3    H144741   2.233   1.580  16.996  1.0798  0.7823 -2.2393
 7750TIP3    H244742   2.349   1.579  17.094 -0.5243  2.1072 -0.2115
 7751TIP3   OH244743   3.198   1.638  12.278  0.0357 -0.4184 -0.0308
 7751TIP3    H144744   3.201   1.733  12.296  2.0360 -0.0949 -1.7071
 7751TIP3    H244745   3.236   1.599  12.357  1.0941  0.3426 -0.1399
 7752TIP3   OH244746   3.695   4.369  13.336  0.4223  0.4530  0.2868
 7752TIP3    H144747   3.668   4.331  13.420 -0.5201  0.0728 -0.1687
 7752TIP3    H244748   3.677   4.462  13.346 -1.2519  0.2063 -0.0281
 7753TIP3   OH244749   5.815   6.723  16.686  0.1450 -0.3434  0.1611
 7753TIP3    H144750   5.753   6.796  16.690 -0.6795 -0.8442 -1.9246
 7753TIP3    H244751   5.761   6.644  16.692  0.7428 -0.7854 -0.0812
 7754TIP3   OH244752   4.459   1.834  12.381 -0.2866 -0.5990  0.5515
 7754TIP3    H144753   4.546   1.871  12.400  0.0323 -0.5238 -0.9389
 7754TIP3    H244754   4.430   1.881  12.303 -1.4810 -0.9605  0.7588
 7755TIP3   OH244755   0.090   3.854   4.239  0.7327  0.3143 -0.1670
 7755TIP3    H144756   0.075   3.947   4.254  1.7567  0.5472 -0.4756
 7755TIP3    H244757   0.142   3.851   4.158  0.2482 -0.5584 -0.4615
 7756TIP3   OH244758   3.551   6.170   3.584  0.0171 -0.1334 -0.4776
 7756TIP3    H144759   3.516   6.166   3.495 -2.0886  0.2801  0.2890
 7756TIP3    H244760   3.514   6.094   3.628  1.2083 -0.4512  0.0146
 7757TIP3   OH244761   3.832   0.559  12.201 -0.2779  0.3939  0.4133
 7757TIP3    H144762   3.808   0.491  12.264 -1.5048  0.1606 -0.2681
 7757TIP3    H244763   3.918   0.590  12.230 -1.1138  0.8138  2.6220
 7758TIP3   OH244764   3.140   5.505   5.872  0.0125 -0.1220  0.7971
 7758TIP3    H144765   3.167   5.483   5.783 -4.1018  2.0549 -1.2983
 7758TIP3    H244766   3.208   5.564   5.904  2.0994 -1.7595 -0.4290
 7759TIP3   OH244767   1.984   5.725   4.060  0.0507  0.1320 -0.9490
 7759TIP3    H144768   1.902   5.679   4.044 -0.4773  0.4456  0.7428
 7759TIP3    H244769   2.051   5.664   4.028 -0.7555 -0.8308 -0.8577
 7760TIP3   OH244770   6.616   2.981   5.700 -0.1911  0.4836 -0.0644
 7760TIP3    H144771   6.668   2.962   5.622  1.0078 -0.3983  0.9073
 7760TIP3    H244772   6.594   2.894   5.735  0.3530  0.8633  1.2457
 7761TIP3   OH244773   5.407   6.062  13.764 -0.4886  0.2521 -0.5829
 7761TIP3    H144774   5.420   6.146  13.720 -1.1707  1.0112  0.6209
 7761TIP3    H244775   5.316   6.064  13.794 -0.0600 -0.2210  0.8375
 7762TIP3   OH244776   5.291   4.055   3.482 -0.5141 -0.8236  0.4591
 7762TIP3    H144777   5.369   4.101   3.452 -0.2026 -1.6445 -0.0048
 7762TIP3    H244778   5.222   4.122   3.479 -0.1358 -0.4526 -0.4851
 7763TIP3   OH244779   5.432   4.766   5.420  0.0679 -0.2493  0.0816
 7763TIP3    H144780   5.455   4.787   5.329 -0.5461  0.9543  0.1760
 7763TIP3    H244781   5.481   4.830   5.472 -0.8428  0.1341  0.4858
 7764TIP3   OH244782   5.543   6.216  11.061 -0.2937 -0.7391  0.5675
 7764TIP3    H144783   5.538   6.310  11.048 -3.0727 -0.5134  2.4147
 7764TIP3    H244784   5.631   6.200  11.094  1.0589  0.7891 -1.9782
 7765TIP3   OH244785   0.024   3.662  17.160  0.2886 -0.1147 -0.4518
 7765TIP3    H144786   0.118   3.647  17.151  0.5918  0.0631  1.8138
 7765TIP3    H244787  -0.015   3.575  17.147  1.0673 -0.8128  1.4524
 7766TIP3   OH244788   1.084   0.017   1.722  0.8036 -0.5788  0.3803
 7766TIP3    H144789   1.113   0.089   1.777 -1.4849 -0.1173  1.0596
 7766TIP3    H244790   1.051  -0.049   1.783 -1.3773 -0.2357 -0.3602
 7767TIP3   OH244791   1.651   4.006   3.342 -0.1763 -0.1357  0.6296
 7767TIP3    H144792   1.608   3.933   3.298 -0.7416 -0.1302  1.1546
 7767TIP3    H244793   1.599   4.083   3.317 -0.7337 -0.1840  1.5841
 7768TIP3   OH244794   6.745   4.581   0.933  0.0444 -0.1599 -0.0891
 7768TIP3    H144795   6.729   4.498   0.978  1.2016 -0.3799 -0.0677
 7768TIP3    H244796   6.801   4.558   0.859  1.3029  0.7596  0.5557
 7769TIP3   OH244797   1.488   2.263  12.805  0.1926 -0.0158 -0.0363
 7769TIP3    H144798   1.441   2.223  12.878 -0.6720  0.7313 -0.1760
 7769TIP3    H244799   1.580   2.261  12.832 -0.1300  0.3797  1.1286
 7770TIP3   OH244800   0.195   4.701   3.569 -0.3179 -0.1258 -0.4034
 7770TIP3    H144801   0.169   4.609   3.577  1.4146 -0.7544 -1.3883
 7770TIP3    H244802   0.147   4.746   3.638 -0.9143 -1.8413  0.3498
 7771TIP3   OH244803   3.836   5.487   1.766 -0.0831 -0.2554  0.1421
 7771TIP3    H144804   3.773   5.415   1.760  0.0368 -0.2481 -1.6605
 7771TIP3    H244805   3.824   5.522   1.854 -0.9005 -1.7912  0.6673
 7772TIP3   OH244806   4.281   3.274  12.475  0.6705 -0.2946  0.0708
 7772TIP3    H144807   4.290   3.296  12.383 -1.3131  0.9104  0.0891
 7772TIP3    H244808   4.204   3.217  12.479 -0.1767  0.8347  1.0620
 7773TIP3   OH244809   3.824   4.548   5.126  0.0734  0.4961  0.4674
 7773TIP3    H144810   3.795   4.615   5.064 -1.2212  0.3569  0.9081
 7773TIP3    H244811   3.918   4.540   5.109  0.4140  2.8883  0.8579
 7774TIP3   OH244812   1.080   5.698   3.239 -0.2902  0.2404 -0.0072
 7774TIP3    H144813   1.129   5.741   3.309  0.4114  0.9185 -0.8966
 7774TIP3    H244814   1.123   5.613   3.227 -0.2011  0.2644  0.1523
 7775TIP3   OH244815   5.880   5.855   5.873 -0.3825 -0.1360 -0.0293
 7775TIP3    H144816   5.943   5.919   5.838  0.4979 -0.2416  1.2691
 7775TIP3    H244817   5.839   5.901   5.946 -1.9718 -0.0108 -0.9693
 7776TIP3   OH244818   3.766   0.344  14.104 -0.5034 -0.4040  0.5342
 7776TIP3    H144819   3.793   0.271  14.048 -2.8550  0.5733 -2.0989
 7776TIP3    H244820   3.677   0.320  14.132 -1.0553  1.1093  0.1485
 7777TIP3   OH244821   2.891   5.212   4.788 -0.1096  0.2329 -0.1656
 7777TIP3    H144822   2.842   5.196   4.707 -1.0253  0.4817  0.3233
 7777TIP3    H244823   2.965   5.153   4.783 -0.5218 -0.2436 -0.8787
 7778TIP3   OH244824   5.119   1.350  13.989  0.8710  0.3537  0.4693
 7778TIP3    H144825   5.095   1.439  13.965 -0.5140  0.1529  1.0112
 7778TIP3    H244826   5.204   1.336  13.948  0.7936  1.6831 -0.1898
 7779TIP3   OH244827   2.038   5.983   4.013  0.0806 -0.3423 -0.2614
 7779TIP3    H144828   1.967   6.035   4.049  0.3349 -0.6161  0.6734
 7779TIP3    H244829   2.007   5.892   4.018  0.9996 -0.6144  1.4917
 7780TIP3   OH244830   5.926   1.087   4.478 -0.1350  0.0377  0.9586
 7780TIP3    H144831   5.944   1.089   4.572 -0.2725  1.2092  0.9780
 7780TIP3    H244832   5.923   1.180   4.452 -2.7049 -0.1446  0.3127
 7781TIP3   OH244833   6.366   4.047   2.149  0.3027 -0.0090  0.4665
 7781TIP3    H144834   6.416   4.117   2.192  0.6216 -0.5072  0.9134
 7781TIP3    H244835   6.408   4.037   2.064  0.8427 -0.2877  0.7612
 7782TIP3   OH244836   1.892   4.366   3.378 -0.6943  0.0869 -0.4127
 7782TIP3    H144837   1.913   4.368   3.285 -1.5115 -0.2246 -0.6183
 7782TIP3    H244838   1.916   4.277   3.407  0.6715  0.5547 -0.0339
 7783TIP3   OH244839   3.820   0.894  15.372 -0.4030  0.0300  0.2426
 7783TIP3    H144840   3.869   0.938  15.441 -0.2053 -1.3619  1.0404
 7783TIP3    H244841   3.743   0.949  15.358  0.1031  0.8962  0.7981
 7784TIP3   OH244842   3.043   1.939  11.619 -0.1812  0.1708  0.3554
 7784TIP3    H144843   3.085   2.000  11.558 -1.3915 -0.1334 -0.8073
 7784TIP3    H244844   3.103   1.865  11.624  0.5630  0.7631  0.6014
 7785TIP3   OH244845   1.034   5.066  12.074  0.0102  0.2134 -0.1127
 7785TIP3    H144846   1.129   5.071  12.066  0.3004 -1.5036  1.7493
 7785TIP3    H244847   1.015   5.103  12.160 -0.7674 -1.4884  0.4761
 7786TIP3   OH244848   3.872   6.404   5.076 -0.4204 -0.3037  0.1940
 7786TIP3    H144849   3.777   6.410   5.085 -0.3157  1.6616  0.4320
 7786TIP3    H244850   3.906   6.474   5.131  1.1426 -0.5337 -0.4166
 7787TIP3   OH244851   1.162   3.413   0.660 -0.0778 -0.2739 -0.2428
 7787TIP3    H144852   1.083   3.360   0.669 -0.4021  0.3710  1.0249
 7787TIP3    H244853   1.160   3.444   0.570 -1.8679  0.6073  0.0467
 7788TIP3   OH244854   6.618   0.790   3.004 -0.1118 -0.1392 -0.5393
 7788TIP3    H144855   6.706   0.771   3.034 -0.6903 -0.8608  0.8149
 7788TIP3    H244856   6.621   0.882   2.976  0.7798  0.2082  0.6319
 7789TIP3   OH244857   4.789   1.597  17.089 -0.4127  0.1947 -0.3246
 7789TIP3    H144858   4.823   1.624  17.004  1.2482 -1.0577 -0.1002
 7789TIP3    H244859   4.767   1.505  17.078 -0.2603  0.0439  0.5937
 7790TIP3   OH244860   3.453   1.486   5.627 -0.5767  0.1145 -0.3604
 7790TIP3    H144861   3.414   1.547   5.691  0.9394  1.3302 -0.5347
 7790TIP3    H244862   3.417   1.401   5.650 -1.3724  0.7943  1.0523
 7791TIP3   OH244863   6.742   2.146   4.639 -0.2183  0.0116 -0.4418
 7791TIP3    H144864   6.692   2.067   4.659 -0.9316  0.7262  0.7145
 7791TIP3    H244865   6.770   2.179   4.725  0.4287  0.7820 -0.9353
 7792TIP3   OH244866   3.278   4.300   1.819 -0.4423  0.5235 -0.8157
 7792TIP3    H144867   3.355   4.299   1.876 -1.0990  0.8310  0.1154
 7792TIP3    H244868   3.248   4.209   1.818 -0.7051  0.5964 -0.2539
 7793TIP3   OH244869   3.439   4.212   5.091 -0.2090 -0.2788  0.0853
 7793TIP3    H144870   3.508   4.249   5.146  0.1456 -0.8287  0.0199
 7793TIP3    H244871   3.477   4.208   5.004  0.1871 -1.8443  0.2984
 7794TIP3   OH244872   1.049   5.351   1.249 -0.1099 -0.4296  0.6222
 7794TIP3    H144873   1.119   5.413   1.232 -1.9380  1.3991 -0.7259
 7794TIP3    H244874   1.013   5.378   1.334  0.4482 -1.0603  1.0763
 7795TIP3   OH244875   4.700   2.904   3.774 -0.5950  0.1618 -0.3013
 7795TIP3    H144876   4.750   2.882   3.853 -0.5461  0.0041 -0.3744
 7795TIP3    H244877   4.666   2.992   3.790  1.6339  1.2426 -1.2036
 7796TIP3   OH244878   2.394   0.406   0.946  0.5026 -0.1371 -0.6845
 7796TIP3    H144879   2.342   0.356   1.009 -0.1108  1.6715  0.3053
 7796TIP3    H244880   2.331   0.433   0.879  0.7162 -0.1895 -0.9088
 7797TIP3   OH244881   5.092   2.129   1.712 -0.1857 -0.5317 -0.4865
 7797TIP3    H144882   5.093   2.192   1.783  0.8256  0.2893 -1.1973
 7797TIP3    H244883   5.000   2.123   1.686 -0.3449  0.3741 -0.1652
 7798TIP3   OH244884   5.864   6.642  11.819  0.2354  0.1085 -0.1923
 7798TIP3    H144885   5.879   6.608  11.907 -0.6943 -0.1297 -0.1164
 7798TIP3    H244886   5.870   6.565  11.762 -0.9452 -0.0610 -0.1220
 7799TIP3   OH244887   4.519   4.787  11.923 -0.5398  0.1904  0.0756
 7799TIP3    H144888   4.573   4.819  11.994 -0.2422 -1.0970  0.4509
 7799TIP3    H244889   4.488   4.866  11.879 -1.2625  1.0445  2.0046
 7800TIP3   OH244890   2.658   3.515  14.692  0.5917  0.1136 -0.2574
 7800TIP3    H144891   2.640   3.460  14.616 -0.7751  1.0792 -0.6713
 7800TIP3    H244892   2.680   3.453  14.761 -0.4525 -0.9352 -0.8285
 7801TIP3   OH244893   1.488   0.038   3.687 -0.4035  0.4080  0.0545
 7801TIP3    H144894   1.449  -0.037   3.733 -0.6060  0.7189  0.3889
 7801TIP3    H244895   1.426   0.109   3.700 -1.2873  0.1058 -2.0476
 7802TIP3   OH244896   4.868   0.151   1.870  0.1379  0.4201  0.1704
 7802TIP3    H144897   4.889   0.096   1.794  0.0285  1.3080 -0.5199
 7802TIP3    H244898   4.773   0.144   1.879  0.0138  1.1654 -0.4592
 7803TIP3   OH244899   5.546   5.856   2.029  0.4551 -0.3925 -0.6471
 7803TIP3    H144900   5.636   5.859   1.996  1.2263  0.2613  1.3647
 7803TIP3    H244901   5.555   5.865   2.124 -1.8111  0.7797 -0.4805
 7804TIP3   OH244902   4.780   4.237  14.613  0.3659  0.2852 -0.3295
 7804TIP3    H144903   4.828   4.194  14.542  0.1333  1.0880 -0.9958
 7804TIP3    H244904   4.804   4.188  14.692 -2.1785 -3.0240 -1.3813
 7805TIP3   OH244905   4.213   6.257  15.171 -0.6455  0.1016 -0.0386
 7805TIP3    H144906   4.283   6.203  15.136  0.7201  2.7513 -1.7159
 7805TIP3    H244907   4.257   6.332  15.211 -2.4512  1.2668 -0.0720
 7806TIP3   OH244908   0.807   6.020  17.063 -0.2163 -0.4877  0.3673
 7806TIP3    H144909   0.797   5.925  17.053  1.1587 -0.7013  0.7879
 7806TIP3    H244910   0.885   6.030  17.118  0.1660  0.9030 -0.3745
 7807TIP3   OH244911   1.671   6.263  15.048 -0.6263 -0.2160  0.2019
 7807TIP3    H144912   1.691   6.239  15.139 -1.2646  1.0642  0.7046
 7807TIP3    H244913   1.638   6.353  15.054  1.6742  0.8558 -1.5728
 7808TIP3   OH244914   3.230   3.897   1.279 -0.1374 -0.6975  0.2220
 7808TIP3    H144915   3.278   3.946   1.346 -1.5698  0.1036  0.6961
 7808TIP3    H244916   3.165   3.846   1.328 -0.2456 -1.2216 -0.4555
 7809TIP3   OH244917   0.094   5.937  13.324 -0.3948 -0.1412 -0.0760
 7809TIP3    H144918   0.121   5.899  13.408  0.0511 -1.1067 -0.6477
 7809TIP3    H244919   0.134   6.024  13.324  1.4458 -0.9289 -0.1952
 7810TIP3   OH244920   0.332   3.395  16.710  0.0241  0.4474 -0.8208
 7810TIP3    H144921   0.397   3.384  16.779  0.6842  0.4526 -1.4326
 7810TIP3    H244922   0.343   3.486  16.681 -0.7003  0.6497 -0.4939
 7811TIP3   OH244923   4.076   2.620  13.577 -0.3432  0.0706 -0.2724
 7811TIP3    H144924   4.168   2.629  13.604 -0.3020  0.5872 -0.5728
 7811TIP3    H244925   4.079   2.565  13.498 -0.2481  0.4766 -0.5521
 7812TIP3   OH244926   1.229   4.648   2.921 -0.2001 -0.5641 -0.4457
 7812TIP3    H144927   1.146   4.641   2.874 -0.3762  1.7383 -0.5700
 7812TIP3    H244928   1.291   4.679   2.855  0.4855 -1.0659 -0.0525
 7813TIP3   OH244929   2.781   5.410  11.487  0.2020 -0.9210 -0.3403
 7813TIP3    H144930   2.728   5.490  11.480 -0.0175 -0.7118  2.5551
 7813TIP3    H244931   2.718   5.340  11.504  0.6359 -1.1112  0.5510
 7814TIP3   OH244932   5.006   2.033   5.022 -0.4550 -0.6285  0.5456
 7814TIP3    H144933   5.073   2.097   4.996 -1.3801 -0.2573 -1.0613
 7814TIP3    H244934   4.934   2.086   5.057 -1.1608 -0.7553 -0.6454
 7815TIP3   OH244935   1.095   1.494  17.097 -0.6914  0.0077  0.0371
 7815TIP3    H144936   1.003   1.496  17.074 -0.1890  2.2433 -2.2613
 7815TIP3    H244937   1.133   1.427  17.040 -0.4991  1.0566 -1.1165
 7816TIP3   OH244938   6.425   0.281  17.231 -0.2728  0.3803 -0.1159
 7816TIP3    H144939   6.360   0.324  17.287  0.5929  0.5370  0.7979
 7816TIP3    H244940   6.384   0.279  17.145 -1.7715 -0.1260  0.5581
 7817TIP3   OH244941   6.195   2.878   5.136 -0.0012 -0.4389 -0.3305
 7817TIP3    H144942   6.257   2.857   5.067  0.3344  0.2392 -0.2449
 7817TIP3    H244943   6.222   2.964   5.167  0.2157 -0.9846  1.0595
 7818TIP3   OH244944   5.194   5.931   3.823  0.0863  0.1178 -0.3679
 7818TIP3    H144945   5.265   5.961   3.766  1.3839 -0.7275  0.7214
 7818TIP3    H244946   5.235   5.925   3.910 -1.6298  0.6596  0.5207
 7819TIP3   OH244947   5.313   3.434   3.278  0.4234  0.2743  0.1450
 7819TIP3    H144948   5.220   3.444   3.298 -0.0516  1.3200 -2.1819
 7819TIP3    H244949   5.314   3.394   3.191  2.2051 -1.1732  0.7885
 7820TIP3   OH244950   3.823   4.761   1.217  0.3411 -0.1358  0.1956
 7820TIP3    H144951   3.832   4.680   1.267  0.5465 -0.0189  0.3507
 7820TIP3    H244952   3.782   4.734   1.134  1.4494 -0.5843 -0.2264
 7821TIP3   OH244953   4.817   5.191  15.240  0.5643  0.2869 -0.9314
 7821TIP3    H144954   4.816   5.259  15.307 -1.9385  0.2709 -0.8541
 7821TIP3    H244955   4.909   5.168  15.229  1.0850  0.3361  2.4624
 7822TIP3   OH244956   5.512   5.458  13.376 -0.4167 -0.5108  0.0262
 7822TIP3    H144957   5.496   5.409  13.296  0.8285 -1.8672  0.5737
 7822TIP3    H244958   5.607   5.464  13.382 -0.4841 -0.6472  1.5339
 7823TIP3   OH244959   3.272   1.750  15.960  0.4513 -0.4356  0.0549
 7823TIP3    H144960   3.271   1.795  15.876  1.5081  0.1351  0.3245
 7823TIP3    H244961   3.254   1.818  16.024  0.1760 -0.7670  0.3349
 7824TIP3   OH244962   6.427   4.963  11.151 -0.1161 -0.0073  0.3601
 7824TIP3    H144963   6.349   4.907  11.160  0.9683 -1.8322 -0.8559
 7824TIP3    H244964   6.405   5.024  11.081 -0.1563 -1.1249 -0.6253
 7825TIP3   OH244965   6.138   4.152  16.149 -0.2677 -0.5105 -0.1037
 7825TIP3    H144966   6.107   4.076  16.198  1.1254 -0.7159  0.5027
 7825TIP3    H244967   6.103   4.227  16.198  0.0800 -0.7359  0.4974
 7826TIP3   OH244968   1.130   4.757   1.138  0.0893 -0.0826  0.5248
 7826TIP3    H144969   1.053   4.739   1.191 -0.3330  1.0775  0.3313
 7826TIP3    H244970   1.186   4.811   1.194  0.7366 -0.8367  0.6307
 7827TIP3   OH244971   6.198   4.827   6.166  0.1596  0.2766 -0.0092
 7827TIP3    H144972   6.170   4.895   6.228 -0.7180 -1.7669  1.9744
 7827TIP3    H244973   6.284   4.799   6.198 -0.0154 -0.3603 -0.0849
 7828TIP3   OH244974   5.138   5.988  11.932  0.1434 -0.0328 -0.0542
 7828TIP3    H144975   5.125   5.894  11.923 -1.5692  0.1053  0.5458
 7828TIP3    H244976   5.066   6.017  11.989  1.4516  1.4272  0.9363
 7829TIP3   OH244977   6.217   1.389  11.478 -0.1966  0.2576  0.0339
 7829TIP3    H144978   6.145   1.445  11.507  0.9112 -0.1507  4.3311
 7829TIP3    H244979   6.185   1.300  11.492  0.4471  0.0325  0.1222
 7830TIP3   OH244980   6.294   5.263  17.143  0.0337  0.1896  0.4448
 7830TIP3    H144981   6.246   5.345  17.132 -1.6575 -0.9463 -1.3010
 7830TIP3    H244982   6.380   5.289  17.176 -0.6522  2.5874  0.4967
 7831TIP3   OH244983   2.528   2.959   1.893 -0.0827  0.2756 -0.2607
 7831TIP3    H144984   2.616   2.923   1.884 -0.4302 -0.2946 -1.6789
 7831TIP3    H244985   2.489   2.950   1.805 -1.3768  0.9681  0.2122
 7832TIP3   OH244986   1.927   4.771   3.733 -0.1928 -0.2074 -0.5428
 7832TIP3    H144987   2.005   4.754   3.680 -0.4681 -2.4240 -0.3182
 7832TIP3    H244988   1.961   4.792   3.820  0.2102  2.1280 -1.1843
 7833TIP3   OH244989   0.174   5.415  11.302 -0.2252  0.1776 -0.3405
 7833TIP3    H144990   0.149   5.503  11.332  2.7703  0.5158  1.5822
 7833TIP3    H244991   0.246   5.432  11.241 -0.1160 -0.9403 -0.5274
 7834TIP3   OH244992   3.716   6.039   1.988 -0.5738  0.0837  0.5416
 7834TIP3    H144993   3.796   6.090   1.998 -0.2991 -0.0958 -0.6946
 7834TIP3    H244994   3.657   6.076   2.054 -0.4421  2.1213 -0.3965
 7835TIP3   OH244995   3.576   6.582   3.242  0.1591 -0.4373 -0.1349
 7835TIP3    H144996   3.518   6.622   3.176  0.6402 -3.0375 -2.3185
 7835TIP3    H244997   3.523   6.578   3.321 -1.7314 -0.2958 -1.3169
 7836TIP3   OH244998   1.870   2.251  11.081  0.0294 -0.0014 -0.6868
 7836TIP3    H144999   1.957   2.214  11.065 -0.0098 -1.4919  2.0714
 7836TIP3    H245000   1.812   2.175  11.087 -1.4108  0.9356 -1.7983
 7837TIP3   OH245001   4.803   2.584  14.507 -0.0570  0.2315  0.5329
 7837TIP3    H145002   4.850   2.544  14.581 -0.8253 -0.3436  0.7321
 7837TIP3    H245003   4.817   2.524  14.434 -0.9590 -0.2674  0.7512
 7838TIP3   OH245004   4.518   5.343   4.446  0.4548  0.0829 -0.3135
 7838TIP3    H145005   4.528   5.413   4.511 -1.9361  1.3552 -1.1540
 7838TIP3    H245006   4.461   5.279   4.488  0.4075  0.0001 -0.5019
 7839TIP3   OH245007   0.370   5.093  15.063  0.0084  0.0228  0.0463
 7839TIP3    H145008   0.325   5.015  15.096 -0.7600 -0.1314 -1.2985
 7839TIP3    H245009   0.343   5.099  14.971  0.3813  1.6452  0.0194
 7840TIP3   OH245010   5.823   6.248   3.869  0.0025 -0.3774 -0.1186
 7840TIP3    H145011   5.772   6.227   3.790  1.2957 -1.6751 -0.6697
 7840TIP3    H245012   5.905   6.201   3.856  0.9545  0.8762  1.1856
 7841TIP3   OH245013   1.241   4.368  14.674  0.2539  0.1087 -0.5243
 7841TIP3    H145014   1.239   4.462  14.694  0.1691 -0.0183  0.0841
 7841TIP3    H245015   1.261   4.364  14.581  1.5949  0.7106 -0.2900
 7842TIP3   OH245016   5.522   3.752   0.255 -0.2422  0.1478 -0.3148
 7842TIP3    H145017   5.429   3.755   0.232 -0.7132 -0.2642  1.3545
 7842TIP3    H245018   5.554   3.672   0.214 -0.6649  0.2111 -0.7772
 7843TIP3   OH245019   2.880   5.776   4.546 -0.7506  0.6234  0.1311
 7843TIP3    H145020   2.835   5.693   4.559 -3.3718  2.0964  1.3835
 7843TIP3    H245021   2.951   5.775   4.610  1.2715 -1.8030 -1.9415
 7844TIP3   OH245022   3.791   3.582   0.733 -0.0721 -0.0449 -0.0369
 7844TIP3    H145023   3.709   3.571   0.686 -0.2745 -1.1235  0.5319
 7844TIP3    H245024   3.816   3.493   0.759  0.1820  0.4838  1.6327
 7845TIP3   OH245025   6.808   0.701  14.920 -0.2228  0.0627 -0.2146
 7845TIP3    H145026   6.780   0.644  14.991  0.8994  2.5315  2.3853
 7845TIP3    H245027   6.726   0.735  14.884 -0.7887 -0.2043  0.7834
 7846TIP3   OH245028   1.412   4.068  12.191 -0.6326  0.7609  0.2268
 7846TIP3    H145029   1.406   4.093  12.098 -0.5018  2.6172  0.6715
 7846TIP3    H245030   1.325   4.036  12.212 -0.5360 -0.1391 -0.6383
 7847TIP3   OH245031   2.196   5.726   0.936 -0.3851 -0.6355  0.2501
 7847TIP3    H145032   2.242   5.791   0.990  0.3314 -0.3458 -0.6764
 7847TIP3    H245033   2.254   5.713   0.860 -2.6588  1.2273 -1.9847
 7848TIP3   OH245034   0.210   3.499   2.732  0.3384  0.7962  0.1673
 7848TIP3    H145035   0.159   3.510   2.812  1.0019  0.2030  0.6896
 7848TIP3    H245036   0.249   3.412   2.740 -0.5020  0.2355 -1.3477
 7849TIP3   OH245037   2.507   6.349   0.297 -0.0940  0.4310 -0.2865
 7849TIP3    H145038   2.551   6.346   0.383 -0.2449 -0.2069 -0.2264
 7849TIP3    H245039   2.555   6.285   0.244 -0.3208  0.4599 -0.5244
 7850TIP3   OH245040   6.762   0.584   0.514  0.5896 -0.1506  0.0156
 7850TIP3    H145041   6.744   0.515   0.450 -3.9140  0.9452 -0.2948
 7850TIP3    H245042   6.708   0.657   0.485  2.3210  2.2217  2.3621
 7851TIP3   OH245043   0.585   5.377  15.493  0.0826  0.0820  0.6401
 7851TIP3    H145044   0.543   5.456  15.460  1.5040  0.2231 -0.9897
 7851TIP3    H245045   0.531   5.305  15.461 -0.1005  0.3158  0.4257
 7852TIP3   OH245046   2.502   5.584  13.552 -0.4041  0.3281  0.3210
 7852TIP3    H145047   2.466   5.633  13.626 -2.5140  1.1652 -1.1726
 7852TIP3    H245048   2.438   5.514  13.537  0.9662 -1.0002  0.4318
 7853TIP3   OH245049   1.939   3.802  13.334 -0.3389 -0.5295  0.2790
 7853TIP3    H145050   1.942   3.709  13.357 -0.4173 -0.8888 -1.0887
 7853TIP3    H245051   2.031   3.827  13.323 -0.3572 -0.6572 -0.1628
 7854TIP3   OH245052   6.707   3.329   6.275  0.0050  0.5542 -0.2262
 7854TIP3    H145053   6.714   3.234   6.267 -0.7441  0.3226  1.4870
 7854TIP3    H245054   6.659   3.343   6.356  1.2487  2.4279  0.2552
 7855TIP3   OH245055   6.396   1.647   6.160  0.4018  0.2578  0.4588
 7855TIP3    H145056   6.462   1.648   6.091  0.3119  0.6083  0.3726
 7855TIP3    H245057   6.391   1.556   6.188 -0.5651 -0.1712 -0.9794
 7856TIP3   OH245058   3.768   2.651  16.402  0.1839 -0.4082  0.0729
 7856TIP3    H145059   3.860   2.642  16.378  0.4042 -1.4681  1.1959
 7856TIP3    H245060   3.770   2.693  16.488 -0.4699  1.1515 -0.6535
 7857TIP3   OH245061   6.694   1.627  14.604 -0.3343 -0.2856  0.1879
 7857TIP3    H145062   6.758   1.564  14.638 -0.5687 -0.4775  0.2785
 7857TIP3    H245063   6.687   1.606  14.511 -1.3850 -1.2752  0.4594
 7858TIP3   OH245064   3.152   2.460  11.240  0.6617 -0.3991  0.5894
 7858TIP3    H145065   3.196   2.400  11.181 -0.0531 -2.0291  1.6334
 7858TIP3    H245066   3.139   2.409  11.321 -1.8281  0.4386  0.8168
 7859TIP3   OH245067   6.492   3.677  15.767  0.0040  0.1430  0.1606
 7859TIP3    H145068   6.475   3.703  15.676 -0.8345 -2.0313 -0.3487
 7859TIP3    H245069   6.422   3.718  15.818 -1.5745 -1.3777 -0.6868
 7860TIP3   OH245070   1.330   0.338   1.692  0.2045 -0.3748  0.0781
 7860TIP3    H145071   1.264   0.303   1.751 -0.2995 -1.4467 -1.0626
 7860TIP3    H245072   1.283   0.354   1.610  1.5211 -2.2587 -1.1463
 7861TIP3   OH245073   0.899   5.793  14.102  0.1005 -0.3729  0.0640
 7861TIP3    H145074   0.925   5.882  14.081 -0.1590 -0.3248 -0.0479
 7861TIP3    H245075   0.861   5.798  14.190  0.6968 -0.4856  0.3316
 7862TIP3   OH245076   6.027   1.953   5.605  0.0893 -0.3773 -0.1657
 7862TIP3    H145077   5.935   1.937   5.625  0.1967  0.2922  0.9556
 7862TIP3    H245078   6.029   1.961   5.510 -0.9481 -0.7560 -0.2410
 7863TIP3   OH245079   2.685   4.225  11.581 -0.2255 -0.0379  0.0782
 7863TIP3    H145080   2.676   4.148  11.524 -1.3047 -0.1464  0.3703
 7863TIP3    H245081   2.714   4.295  11.523 -1.6599 -0.0537 -0.7237
 7864TIP3   OH245082   1.953   6.669   4.189  0.6112  0.0621  0.0371
 7864TIP3    H145083   1.973   6.676   4.096  1.6214 -0.5444  0.1903
 7864TIP3    H245084   1.860   6.690   4.196  0.8069  1.3267 -0.9412
 7865TIP3   OH245085   3.982   2.118   5.475  0.0316 -0.2835  0.5392
 7865TIP3    H145086   4.045   2.154   5.412 -0.5159 -0.6485 -0.2364
 7865TIP3    H245087   3.996   2.024   5.471 -1.2475 -0.4680 -0.4296
 7866TIP3   OH245088   0.816   0.629   4.519  0.3763  0.3986  0.0538
 7866TIP3    H145089   0.759   0.695   4.559 -1.2885 -1.0903  0.2879
 7866TIP3    H245090   0.844   0.574   4.592 -0.0265 -0.4183 -0.3985
 7867TIP3   OH245091   1.149   5.759   0.282 -0.0031 -0.1516 -0.2453
 7867TIP3    H145092   1.073   5.740   0.226 -0.7883  0.5005  0.5772
 7867TIP3    H245093   1.222   5.770   0.221 -1.0677  1.7291 -1.2704
 7868TIP3   OH245094   2.978   4.263   6.212  0.3360 -0.2067 -0.1752
 7868TIP3    H145095   3.058   4.304   6.180 -0.2984  1.6396  0.4745
 7868TIP3    H245096   2.943   4.216   6.136  0.1951  1.9482 -1.5445
 7869TIP3   OH245097   2.850   5.649   2.661 -0.0063 -0.1630  0.0205
 7869TIP3    H145098   2.803   5.676   2.581  0.8501  0.5368 -0.2569
 7869TIP3    H245099   2.800   5.688   2.732  0.5194  1.1634 -0.3126
 7870TIP3   OH245100   1.682   3.093   0.222  0.1019  0.6258  0.1719
 7870TIP3    H145101   1.704   3.106   0.314 -1.2644  2.1574  0.3360
 7870TIP3    H245102   1.629   3.013   0.221  0.1459  0.5876  0.7028
 7871TIP3   OH245103   2.622   6.337  13.883  0.5326 -0.5849  0.0906
 7871TIP3    H145104   2.715   6.321  13.896  0.4990  0.7942  2.5937
 7871TIP3    H245105   2.617   6.425  13.847  0.1976 -0.9565 -0.8048
 7872TIP3   OH245106   2.552   6.526  15.620  0.4218  0.9746 -0.2225
 7872TIP3    H145107   2.460   6.501  15.615  0.1980  1.5928  0.7376
 7872TIP3    H245108   2.577   6.511  15.711  0.8046  2.3944 -0.0695
 7873TIP3   OH245109   3.203   2.366   5.296  0.3364  0.6169  0.0892
 7873TIP3    H145110   3.111   2.366   5.271  0.1019  0.9582  0.9194
 7873TIP3    H245111   3.247   2.409   5.223  0.0634 -0.9065 -1.0266
 7874TIP3   OH245112   3.588   5.919   2.746  0.3074  0.5416  0.2196
 7874TIP3    H145113   3.572   5.827   2.725 -2.4229  1.3396 -1.7625
 7874TIP3    H245114   3.674   5.938   2.708  0.3740 -0.8929 -0.3866
 7875TIP3   OH245115   0.330   6.720  12.493  0.0523 -0.2117  0.1844
 7875TIP3    H145116   0.350   6.752  12.580 -1.4107 -0.4893  0.6545
 7875TIP3    H245117   0.411   6.678  12.463  1.0408  1.2164  0.7743
 7876TIP3   OH245118   1.001   2.369   1.016 -0.5711  0.0597 -0.4875
 7876TIP3    H145119   1.058   2.315   1.070 -0.0690  0.1951 -0.8713
 7876TIP3    H245120   0.961   2.431   1.078 -2.0202 -1.4302  0.1452
 7877TIP3   OH245121   6.476   4.204   6.325 -0.3438 -0.0792 -0.2842
 7877TIP3    H145122   6.506   4.197   6.235 -1.1314  0.6851 -0.6203
 7877TIP3    H245123   6.434   4.119   6.342 -1.7569  0.3788 -1.2519
 7878TIP3   OH245124   0.813   6.769  13.301  0.3115 -0.1442 -0.2312
 7878TIP3    H145125   0.884   6.817  13.260 -0.4486  0.1709 -1.2215
 7878TIP3    H245126   0.744   6.835  13.315  0.9069  0.0149  2.5795
 7879TIP3   OH245127   4.652   1.911   0.375 -0.6536 -0.2673 -0.6558
 7879TIP3    H145128   4.637   1.922   0.469  2.1016 -1.2834 -0.0293
 7879TIP3    H245129   4.582   1.851   0.347  0.0177 -2.0969  1.3247
 7880TIP3   OH245130   6.221   5.262  14.032 -0.9082 -0.5094 -0.0625
 7880TIP3    H145131   6.130   5.274  14.058 -0.3136 -0.4465  2.2651
 7880TIP3    H245132   6.239   5.335  13.972 -2.5248 -0.9060 -1.0871
 7881TIP3   OH245133   0.029   2.240   4.888 -0.1841  0.4338 -0.1787
 7881TIP3    H145134   0.102   2.182   4.869 -0.7860 -0.1035 -0.9461
 7881TIP3    H245135   0.067   2.328   4.888  0.3842  0.2033 -1.0443
 7882TIP3   OH245136   3.123   3.532  11.504  0.2168 -0.2742  0.2445
 7882TIP3    H145137   3.191   3.499  11.563  0.3203 -0.1467  0.1950
 7882TIP3    H245138   3.113   3.624  11.528 -0.3938 -0.4473  0.6946
 7883TIP3   OH245139   3.695   4.565  16.756  0.2589  0.4359 -0.5089
 7883TIP3    H145140   3.743   4.631  16.705 -1.0182  1.8786  0.0798
 7883TIP3    H245141   3.760   4.531  16.817  0.5339  2.6814  0.5823
 7884TIP3   OH245142   1.419   3.949   6.203  0.1517  0.2416 -0.0942
 7884TIP3    H145143   1.456   3.908   6.281 -1.1794  0.3197  0.6113
 7884TIP3    H245144   1.495   3.973   6.150  1.0327 -1.3203  0.3873
 7885TIP3   OH245145   4.885   1.075   3.542 -0.0535 -0.2828 -0.2067
 7885TIP3    H145146   4.826   1.145   3.514  1.1287  0.5407 -0.7632
 7885TIP3    H245147   4.939   1.116   3.610 -0.1904 -1.0569  0.3838
 7886TIP3   OH245148   5.404   1.534  13.213  0.1138  0.2601  0.0141
 7886TIP3    H145149   5.493   1.523  13.180 -0.1708 -1.9750 -0.1539
 7886TIP3    H245150   5.382   1.450  13.252 -0.9420  1.6398  2.6004
 7887TIP3   OH245151   2.268   3.629   1.603  0.9469 -0.0528 -0.0359
 7887TIP3    H145152   2.210   3.612   1.529  0.8741  1.3774 -0.3340
 7887TIP3    H245153   2.259   3.551   1.659  0.6751 -0.9607 -1.2993
 7888TIP3   OH245154   1.427   2.819   0.469  0.4091  0.1267  0.6852
 7888TIP3    H145155   1.366   2.834   0.396  0.3174 -0.8819  0.5491
 7888TIP3    H245156   1.403   2.887   0.532 -2.0216 -1.2330  1.3614
 7889TIP3   OH245157   1.408   5.718   0.211  0.1350 -0.0814  0.1660
 7889TIP3    H145158   1.478   5.710   0.146  0.5397  2.2699  0.2153
 7889TIP3    H245159   1.452   5.713   0.295 -0.1216 -1.1074  0.2501
 7890TIP3   OH245160   3.463   4.413  12.370  0.4172 -0.4079  0.2958
 7890TIP3    H145161   3.434   4.339  12.425 -0.1383  0.6665  1.4974
 7890TIP3    H245162   3.454   4.489  12.427  2.0140  0.4636 -0.5756
 7891TIP3   OH245163   0.411   4.347   0.627  0.4459 -0.3197 -0.1156
 7891TIP3    H145164   0.413   4.426   0.681 -1.5098 -1.8023  2.3514
 7891TIP3    H245165   0.373   4.375   0.544 -0.0151  1.3596  0.6157
 7892TIP3   OH245166   6.355   1.395  11.228  0.0208 -0.2991  0.0708
 7892TIP3    H145167   6.341   1.448  11.150  0.5043  1.5159  1.1779
 7892TIP3    H245168   6.276   1.408  11.281  0.2207 -0.5502  0.4343
 7893TIP3   OH245169   5.409   0.424   3.023  0.5587 -0.0600 -0.3187
 7893TIP3    H145170   5.378   0.500   2.973  1.9341  1.0053  0.3846
 7893TIP3    H245171   5.381   0.349   2.971 -0.5931  0.9283 -1.1843
 7894TIP3   OH245172   2.750   1.312   4.505 -0.1377  0.2283 -0.1261
 7894TIP3    H145173   2.687   1.307   4.434 -0.1698 -1.5235 -0.0146
 7894TIP3    H245174   2.729   1.238   4.562 -1.6855  2.8354  3.0841
 7895TIP3   OH245175   2.340   5.164   4.346  0.1628 -0.6681 -0.0714
 7895TIP3    H145176   2.411   5.100   4.339  0.7583 -0.2568  1.7072
 7895TIP3    H245177   2.364   5.217   4.422 -0.0827  1.9639 -1.7328
 7896TIP3   OH245178   6.465   2.529   2.584  0.1603 -0.0925 -0.3466
 7896TIP3    H145179   6.485   2.577   2.503 -2.3358  1.0182 -0.4046
 7896TIP3    H245180   6.404   2.586   2.631 -1.2433 -2.2592  0.6361
 7897TIP3   OH245181   5.291   6.770  11.846 -0.3885  0.8355  0.6064
 7897TIP3    H145182   5.217   6.792  11.903  1.7412  1.1943  3.4507
 7897TIP3    H245183   5.304   6.676  11.859  0.9406  1.1679  1.8421
 7898TIP3   OH245184   6.482   6.338  13.246 -0.5047 -0.1360 -0.0367
 7898TIP3    H145185   6.514   6.429  13.247 -1.6955  0.2890  0.4769
 7898TIP3    H245186   6.444   6.327  13.159 -0.6828 -0.0361  0.0304
 7899TIP3   OH245187   4.973   1.568  10.719  0.3275  0.1853 -0.1056
 7899TIP3    H145188   4.961   1.563  10.625  2.7234 -1.7243 -0.3965
 7899TIP3    H245189   5.062   1.600  10.731  0.6378 -1.1210  1.4611
 7900TIP3   OH245190   6.382   1.823   5.068 -0.4553 -0.4741  0.5934
 7900TIP3    H145191   6.402   1.911   5.101  0.5148 -0.3924 -0.1834
 7900TIP3    H245192   6.466   1.789   5.038 -1.3089 -0.4137 -2.0915
 7901TIP3   OH245193   1.346   5.004  13.025  0.3828 -0.2623  0.6107
 7901TIP3    H145194   1.276   4.939  13.018  0.1071  0.0005  0.8637
 7901TIP3    H245195   1.422   4.963  12.985 -0.4893  0.3153 -1.8235
 7902TIP3   OH245196   4.514   0.318   1.907  0.5373  0.0490 -0.8110
 7902TIP3    H145197   4.585   0.380   1.922 -0.2453  0.7550  0.0635
 7902TIP3    H245198   4.504   0.315   1.812  0.7332  1.0876 -0.8708
 7903TIP3   OH245199   3.724   5.966  15.395  0.0130 -0.4733 -0.0015
 7903TIP3    H145200   3.749   5.886  15.348 -0.0572  0.0116 -0.8898
 7903TIP3    H245201   3.630   5.955  15.413  0.0242 -0.6267 -0.0326
 7904TIP3   OH245202   1.580   3.889  11.159 -0.2657  0.0217 -0.0943
 7904TIP3    H145203   1.540   3.873  11.073 -1.8234 -2.8084  1.0231
 7904TIP3    H245204   1.509   3.922  11.213  0.1736 -0.2332  0.6517
 7905TIP3   OH245205   6.814   3.911  16.967  0.0935 -0.6815  0.0053
 7905TIP3    H145206   6.754   3.979  16.997 -0.2005 -0.5743 -0.8149
 7905TIP3    H245207   6.847   3.871  17.048  0.5822  0.6925  0.5060
 7906TIP3   OH245208   0.627   0.845   1.698  0.2897 -0.0171  0.1283
 7906TIP3    H145209   0.564   0.839   1.770  0.3571 -0.8983  0.1308
 7906TIP3    H245210   0.701   0.792   1.726  0.7534  0.4833 -0.1515
 7907TIP3   OH245211   6.180   3.701  12.710 -0.0188  0.0723  0.5692
 7907TIP3    H145212   6.170   3.747  12.627  1.5283 -0.6428 -0.0397
 7907TIP3    H245213   6.100   3.724  12.759 -1.5111 -0.3890 -1.5116
 7908TIP3   OH245214   3.057   6.409   0.535  0.0874  0.0324  0.0793
 7908TIP3    H145215   3.012   6.357   0.602  1.8048  0.0903  1.3369
 7908TIP3    H245216   3.074   6.493   0.577 -2.3090  1.5809 -1.8038
 7909TIP3   OH245217   1.615   3.640   3.891 -0.2343 -0.5115 -0.3523
 7909TIP3    H145218   1.668   3.694   3.948 -1.6320  0.5673 -0.0058
 7909TIP3    H245219   1.676   3.580   3.850  1.1445  0.3193  0.4298
 7910TIP3   OH245220   1.405   4.047   2.429  0.2647  0.6287 -0.2830
 7910TIP3    H145221   1.435   3.956   2.431 -0.0760  0.5050 -0.6800
 7910TIP3    H245222   1.330   4.046   2.370  0.4444  1.2242 -0.5303
 7911TIP3   OH245223   1.669   2.133  16.390  0.2440  0.7760 -0.6880
 7911TIP3    H145224   1.613   2.096  16.322  0.6997 -1.8020  0.2167
 7911TIP3    H245225   1.609   2.160  16.459 -0.0368 -0.2386 -0.5110
 7912TIP3   OH245226   1.173   1.910   5.098 -0.3957 -0.0198 -0.0522
 7912TIP3    H145227   1.106   1.925   5.164 -0.3523  2.3317 -0.4447
 7912TIP3    H245228   1.189   1.816   5.101 -3.4335 -0.6499  0.3104
 7913TIP3   OH245229   2.383   2.326  13.277 -0.1223 -0.3550  0.5678
 7913TIP3    H145230   2.434   2.256  13.237  2.1166  0.7718  1.3252
 7913TIP3    H245231   2.303   2.330  13.225  0.8511 -1.7174 -1.1277
 7914TIP3   OH245232   3.399   0.566  10.645 -0.1829 -0.1770  0.1204
 7914TIP3    H145233   3.384   0.567  10.550 -0.9417  1.6507  0.2309
 7914TIP3    H245234   3.476   0.621  10.658 -1.3692  1.3839  0.7327
 7915TIP3   OH245235   0.353   2.261  14.572 -0.0517  0.6176 -0.0657
 7915TIP3    H145236   0.442   2.278  14.605  0.7283 -1.5832 -0.8188
 7915TIP3    H245237   0.366   2.247  14.478 -0.9269 -1.2194  0.0535
 7916TIP3   OH245238   1.071   6.125   1.947  0.2315  0.4854 -0.5539
 7916TIP3    H145239   1.100   6.070   1.875  0.3187  0.3835 -0.4416
 7916TIP3    H245240   1.139   6.191   1.955  0.2641  0.4468 -0.5108
 7917TIP3   OH245241   1.716   4.442   0.793 -0.5724  0.4252 -0.0246
 7917TIP3    H145242   1.661   4.442   0.872 -0.4160  4.0369  0.2545
 7917TIP3    H245243   1.779   4.512   0.807  2.5617 -1.8578 -1.4698
 7918TIP3   OH245244   1.533   6.113   3.088 -0.1138  0.0635  0.2340
 7918TIP3    H145245   1.493   6.190   3.047 -1.5046  0.2252  1.7856
 7918TIP3    H245246   1.599   6.084   3.025  0.3767  2.4395 -0.4491
 7919TIP3   OH245247   6.095   5.963  13.642  0.0193  0.8760 -0.1114
 7919TIP3    H145248   6.164   5.900  13.623 -1.5410 -0.0937 -3.1921
 7919TIP3    H245249   6.020   5.909  13.668 -0.4938  1.6819  0.1201
 7920TIP3   OH245250   0.213   2.466   3.774  0.2233  0.4081 -0.3683
 7920TIP3    H145251   0.216   2.410   3.852 -0.4054  0.7073 -0.1202
 7920TIP3    H245252   0.227   2.555   3.808  1.4386  0.3961 -0.7868
 7921TIP3   OH245253   5.962   2.682  11.294 -0.4949 -0.1533  0.4830
 7921TIP3    H145254   6.037   2.710  11.347  1.6065  0.4642 -2.5599
 7921TIP3    H245255   5.892   2.668  11.358  1.1157  2.7160  3.1734
 7922TIP3   OH245256   4.130   5.632   1.294 -0.3184  0.5344  0.4571
 7922TIP3    H145257   4.219   5.615   1.264  0.1283  1.6709  1.0635
 7922TIP3    H245258   4.074   5.579   1.237  0.7045  0.2830 -0.3325
 7923TIP3   OH245259   3.775   4.652   5.377 -0.7629  0.3239  0.0252
 7923TIP3    H145260   3.715   4.725   5.360 -2.0626 -0.8000 -0.3346
 7923TIP3    H245261   3.785   4.609   5.292  0.2923  0.2781  0.1572
 7924TIP3   OH245262   0.916   3.158   4.783  0.1679 -0.5833  0.0885
 7924TIP3    H145263   0.853   3.227   4.763  1.6528  0.7289 -0.2395
 7924TIP3    H245264   0.871   3.102   4.846 -0.9903  0.8186  0.5538
 7925TIP3   OH245265   3.368   3.299   5.961 -0.1472 -0.2485 -0.1807
 7925TIP3    H145266   3.400   3.370   6.018 -0.3619 -1.8855  2.0973
 7925TIP3    H245267   3.438   3.286   5.898  1.2910 -0.0964  1.3263
 7926TIP3   OH245268   3.456   5.019  13.226  0.3160 -0.5762 -0.2660
 7926TIP3    H145269   3.426   5.090  13.284 -0.7286 -1.2866  0.0792
 7926TIP3    H245270   3.507   5.064  13.158 -1.1566  0.6287 -0.6222
 7927TIP3   OH245271   3.400   4.864  15.209  1.1649 -0.2236  0.2666
 7927TIP3    H145272   3.490   4.859  15.240  1.2256 -0.2648  0.0828
 7927TIP3    H245273   3.360   4.934  15.262  1.5036  0.3040 -0.1695
 7928TIP3   OH245274   4.667   4.511  17.153  0.3487 -0.3003 -0.2415
 7928TIP3    H145275   4.753   4.544  17.179  0.1440 -1.4358  2.1696
 7928TIP3    H245276   4.605   4.563  17.205 -0.2762 -0.8804 -0.3859
 7929TIP3   OH245277   0.541   1.462  11.958  0.3884 -0.3771  0.0411
 7929TIP3    H145278   0.514   1.549  11.925 -0.3508 -0.8186 -0.5629
 7929TIP3    H245279   0.480   1.444  12.030 -0.1396 -0.8311 -0.5064
 7930TIP3   OH245280   5.669   0.363  14.193  0.0841  0.0914  0.1360
 7930TIP3    H145281   5.628   0.449  14.199  1.5596  0.9071 -0.9785
 7930TIP3    H245282   5.735   0.372  14.124 -0.8994 -2.4135 -1.2772
 7931TIP3   OH245283   2.296   2.611   2.431  0.0128 -0.2034 -0.4856
 7931TIP3    H145284   2.322   2.581   2.344  0.6537 -0.2041 -0.2935
 7931TIP3    H245285   2.364   2.673   2.457  0.0350 -0.5055  0.1894
 7932TIP3   OH245286   0.449   0.098   5.586 -0.4496  0.5600  0.1035
 7932TIP3    H145287   0.394   0.125   5.512 -0.6642 -0.7630 -0.2467
 7932TIP3    H245288   0.527   0.154   5.580 -0.0749 -0.0864 -1.6351
 7933TIP3   OH245289   3.410   6.261  15.318  0.3619 -0.0050  0.4906
 7933TIP3    H145290   3.348   6.309  15.373  0.3184  0.2143  0.2509
 7933TIP3    H245291   3.467   6.329  15.282  0.2314 -0.1213  0.0623
 7934TIP3   OH245292   2.442   4.283  14.981  0.0224  0.2213 -0.1478
 7934TIP3    H145293   2.428   4.189  14.974  2.5129 -0.2212 -0.2306
 7934TIP3    H245294   2.530   4.291  15.017 -1.0141  2.5510  2.1926
 7935TIP3   OH245295   1.684   3.666   5.599  0.3192 -0.3550 -0.1180
 7935TIP3    H145296   1.652   3.625   5.518  0.9279  0.9631 -1.0748
 7935TIP3    H245297   1.725   3.595   5.648 -0.0537 -1.1824 -0.9750
 7936TIP3   OH245298   4.575   6.279   6.265  0.2257  0.0674  0.2785
 7936TIP3    H145299   4.654   6.244   6.223  0.2488  0.5556 -0.0979
 7936TIP3    H245300   4.579   6.373   6.249 -1.7220 -0.1534 -2.0033
 7937TIP3   OH245301   6.804   2.666  13.440 -0.1649  0.3453 -0.0608
 7937TIP3    H145302   6.743   2.679  13.368 -1.2388  0.8883  0.9087
 7937TIP3    H245303   6.750   2.632  13.512  1.1081 -1.5167  0.0959
 7938TIP3   OH245304   3.715   3.846   2.433  0.2999  0.2270 -0.3229
 7938TIP3    H145305   3.625   3.879   2.424  0.8159  2.1361  0.7782
 7938TIP3    H245306   3.759   3.876   2.354  0.0454 -0.4895 -0.7439
 7939TIP3   OH245307   1.039   3.906   0.422  0.0573  0.2258 -0.1803
 7939TIP3    H145308   0.999   3.992   0.410  0.2468  0.9934  3.5371
 7939TIP3    H245309   1.133   3.922   0.414  0.1544  0.6267  1.5272
 7940TIP3   OH245310   0.475   0.359   0.074 -0.0733 -0.2070  0.3730
 7940TIP3    H145311   0.428   0.425   0.023 -1.6270 -0.5729  1.2656
 7940TIP3    H245312   0.564   0.359   0.037 -0.5289  1.0991 -0.8214
 7941TIP3   OH245313   1.201   2.091   5.367  0.0503  0.0452 -0.1165
 7941TIP3    H145314   1.185   2.182   5.391  0.5929  0.1762 -0.2310
 7941TIP3    H245315   1.295   2.088   5.348  0.1276 -0.6504  0.3644
 7942TIP3   OH245316   2.414   1.021   1.105  0.5379  0.4202 -0.3245
 7942TIP3    H145317   2.442   1.049   1.192 -0.2616  1.9636 -0.5363
 7942TIP3    H245318   2.496   1.004   1.058  0.9790 -0.0326  0.5869
 7943TIP3   OH245319   1.503   0.981  13.593 -0.3512  0.0981 -0.2868
 7943TIP3    H145320   1.588   0.951  13.625 -0.0206  1.6891  0.4049
 7943TIP3    H245321   1.522   1.061  13.545 -1.4250  0.2718 -0.4583
 7944TIP3   OH245322   1.082   6.531  14.474 -0.3850  0.5621 -0.1614
 7944TIP3    H145323   1.148   6.579  14.424 -2.0018  2.1231 -0.8998
 7944TIP3    H245324   1.000   6.577  14.456 -1.5707 -0.8602  1.3130
 7945TIP3   OH245325   1.670   1.603  12.241  0.1622 -0.2158 -0.6127
 7945TIP3    H145326   1.605   1.673  12.240  1.2190  1.0027  2.4434
 7945TIP3    H245327   1.735   1.629  12.176 -1.0562 -0.1173 -1.8364
 7946TIP3   OH245328   0.343   4.948  16.433  0.3478 -0.8446 -0.0976
 7946TIP3    H145329   0.269   4.945  16.372 -1.1113 -0.0420  1.5327
 7946TIP3    H245330   0.370   5.039  16.433  0.7961 -0.9762 -0.0579
 7947TIP3   OH245331   4.182   2.190   5.306 -0.6502 -0.1626 -0.0892
 7947TIP3    H145332   4.270   2.172   5.339 -0.7544 -3.4633 -1.2248
 7947TIP3    H245333   4.194   2.257   5.239  1.5188 -2.4535 -2.1766
 7948TIP3   OH245334   4.189   5.357  12.921 -0.3348  0.3391  0.1083
 7948TIP3    H145335   4.110   5.354  12.975 -0.5221 -0.8956 -0.2063
 7948TIP3    H245336   4.157   5.361  12.831 -0.0518 -0.6806 -0.0456
 7949TIP3   OH245337   0.708   4.743   2.698 -0.1274  0.1624 -0.3782
 7949TIP3    H145338   0.723   4.806   2.628 -0.1211  0.7344  0.1311
 7949TIP3    H245339   0.733   4.789   2.778  1.2808 -0.9764 -0.1164
 7950TIP3   OH245340   4.684   1.991  14.109  0.3785  0.1446  0.4848
 7950TIP3    H145341   4.655   1.908  14.146  0.2258  0.9932  2.3989
 7950TIP3    H245342   4.626   2.006  14.034 -1.1915 -0.3340  1.5677
 7951TIP3   OH245343   4.910   4.736   5.406 -0.0734 -0.4164 -0.2018
 7951TIP3    H145344   4.980   4.769   5.351 -1.6930 -0.0285 -2.1264
 7951TIP3    H245345   4.851   4.810   5.418 -0.6176 -0.9647  0.6360
 7952TIP3   OH245346   2.692   4.597   4.689 -0.0454  0.0437  0.4704
 7952TIP3    H145347   2.623   4.542   4.726 -0.1172 -0.5399 -0.4905
 7952TIP3    H245348   2.705   4.563   4.600  1.4572  0.1497  0.6164
 7953TIP3   OH245349   6.593   3.340   6.535  0.2552 -0.3999 -0.8336
 7953TIP3    H145350   6.563   3.262   6.582 -2.5740  1.4990  0.8288
 7953TIP3    H245351   6.680   3.358   6.572 -0.2305 -1.2345  0.8231
 7954TIP3   OH245352   3.318   2.814   2.081  0.0205 -0.4194 -0.0623
 7954TIP3    H145353   3.367   2.859   2.150  1.2095  0.1965 -1.2620
 7954TIP3    H245354   3.350   2.723   2.085 -0.3539 -0.5307  0.5652
 7955TIP3   OH245355   5.001   5.719  15.217 -0.3579  0.2189 -0.6938
 7955TIP3    H145356   5.031   5.631  15.196  1.4159 -0.0947  2.4669
 7955TIP3    H245357   4.925   5.705  15.274  1.3129  0.4769  1.7900
 7956TIP3   OH245358   5.878   5.527  11.132  0.3222  0.6751  0.2689
 7956TIP3    H145359   5.853   5.514  11.224  2.6551  0.0087  0.8694
 7956TIP3    H245360   5.828   5.461  11.084  1.2738 -0.9807  1.4570
 7957TIP3   OH245361   6.295   5.215   0.614  0.0105 -0.1800 -0.0593
 7957TIP3    H145362   6.354   5.149   0.579  1.6509 -0.7457  3.3431
 7957TIP3    H245363   6.311   5.214   0.708 -3.2042  1.9204  0.6832
 7958TIP3   OH245364   1.250   1.610  14.395  0.4421 -0.2364  0.1075
 7958TIP3    H145365   1.296   1.541  14.348  1.7068  0.1999  0.6659
 7958TIP3    H245366   1.196   1.652  14.329  2.5200  0.6689 -1.1143
 7959TIP3   OH245367   2.532   6.803  15.570  0.1721 -0.0106 -0.3844
 7959TIP3    H145368   2.517   6.710  15.586  0.3754  0.0655  0.2782
 7959TIP3    H245369   2.483   6.822  15.490 -1.2293 -0.3071  0.3813
 7960TIP3   OH245370   4.645   2.458  14.982  0.1334 -0.3863 -0.2429
 7960TIP3    H145371   4.684   2.546  14.980 -0.8898  0.0914  0.3296
 7960TIP3    H245372   4.605   2.452  15.069 -0.0196 -1.3282 -0.3756
 7961TIP3   OH245373   6.262   6.286  10.168 -0.1656 -0.7923 -0.4714
 7961TIP3    H145374   6.309   6.359  10.208 -0.4827 -0.8902  0.0758
 7961TIP3    H245375   6.329   6.220  10.154  0.1959 -0.2696 -1.3004
 7962TIP3   OH245376   4.124   6.085  12.602 -0.3723  0.2568 -0.5943
 7962TIP3    H145377   4.043   6.132  12.584  0.7007  2.1813 -0.6002
 7962TIP3    H245378   4.103   6.029  12.677 -1.5347  1.1900 -0.1975
 7963TIP3   OH245379   3.380   1.350  14.653 -0.2480  0.2375 -0.1197
 7963TIP3    H145380   3.394   1.444  14.642  1.9632 -0.0245  0.0746
 7963TIP3    H245381   3.399   1.313  14.567 -2.2653  0.0339 -0.5205
 7964TIP3   OH245382   2.770   1.270  13.383 -0.0687  0.1671 -0.0960
 7964TIP3    H145383   2.800   1.201  13.442 -0.7910  0.7553  0.9902
 7964TIP3    H245384   2.683   1.294  13.416 -1.8383 -1.5036 -3.1428
 7965TIP3   OH245385   1.986   6.502  11.226 -0.2910 -0.0814 -0.6581
 7965TIP3    H145386   1.953   6.502  11.136 -0.3601  2.2095 -0.7017
 7965TIP3    H245387   1.915   6.540  11.277  0.6291  0.8641 -0.0485
 7966TIP3   OH245388   5.607   0.218   5.681  0.0882  0.4479 -0.0732
 7966TIP3    H145389   5.695   0.207   5.646 -0.3836 -0.0804 -1.1120
 7966TIP3    H245390   5.592   0.313   5.676  0.3368  0.4667 -0.5200
 7967TIP3   OH245391   5.696   0.856   4.199 -0.1552 -0.4107 -0.0607
 7967TIP3    H145392   5.704   0.801   4.121  1.1620  1.0273 -0.9956
 7967TIP3    H245393   5.727   0.942   4.171 -0.0587  0.2568  1.9472
 7968TIP3   OH245394   2.294   5.409  13.444  0.3081 -0.7493  0.2332
 7968TIP3    H145395   2.369   5.371  13.399  0.3600 -2.6084  1.8036
 7968TIP3    H245396   2.233   5.431  13.373  0.9054 -2.4050 -0.8542
 7969TIP3   OH245397   0.237   4.711  11.499 -0.7195 -0.0835  0.0588
 7969TIP3    H145398   0.174   4.776  11.468 -0.7592 -0.3936 -0.5109
 7969TIP3    H245399   0.188   4.628  11.498 -0.0543 -0.4823 -1.2377
 7970TIP3   OH245400   6.327   1.510  15.566 -0.0745  0.0875  0.6429
 7970TIP3    H145401   6.361   1.446  15.629 -1.4431 -0.6479  0.6651
 7970TIP3    H245402   6.268   1.565  15.617  0.1954  0.6438  0.3700
 7971TIP3   OH245403   0.666   4.652   3.938  0.3447  1.0111  0.7405
 7971TIP3    H145404   0.607   4.590   3.896  1.1934  1.2863 -0.9763
 7971TIP3    H245405   0.620   4.736   3.933 -0.1828  0.7963  1.7443
 7972TIP3   OH245406   3.424   0.949  14.053  0.4489  0.2291  0.2286
 7972TIP3    H145407   3.502   0.902  14.024 -0.1826  0.1257 -1.4513
 7972TIP3    H245408   3.361   0.880  14.074  0.2001  0.2920 -0.2743
 7973TIP3   OH245409   3.275   4.251  16.573 -0.0527  0.4870  0.1415
 7973TIP3    H145410   3.305   4.210  16.654  2.1090  1.6827  0.0176
 7973TIP3    H245411   3.209   4.190  16.539  0.8195 -1.3228  1.4796
 7974TIP3   OH245412   5.926   2.918   0.415  0.3389  0.0312  0.6030
 7974TIP3    H145413   5.891   3.006   0.401 -1.8045 -0.6141  1.4959
 7974TIP3    H245414   6.015   2.922   0.381  0.3486  2.5720  0.7221
 7975TIP3   OH245415   1.638   0.635  11.833  0.0921  0.5134  0.1751
 7975TIP3    H145416   1.649   0.542  11.853 -1.6687 -0.0138 -1.0185
 7975TIP3    H245417   1.691   0.649  11.754 -0.6472  0.1721 -0.4001
 7976TIP3   OH245418   6.077   3.335  12.684 -0.2715  0.4008  0.2824
 7976TIP3    H145419   6.079   3.250  12.641 -2.6097  1.1964 -1.6391
 7976TIP3    H245420   6.129   3.392  12.628 -0.2018  0.6363  0.5808
 7977TIP3   OH245421   6.203   0.020   5.202 -0.3356 -0.4784 -0.0441
 7977TIP3    H145422   6.141   0.067   5.147 -0.9929 -1.3158 -0.0395
 7977TIP3    H245423   6.234   0.086   5.265  0.2121  0.4143 -1.2039
 7978TIP3   OH245424   5.107   1.989  13.117 -0.0120  0.0476  0.7302
 7978TIP3    H145425   5.030   2.038  13.146  1.0052  0.9076  2.0936
 7978TIP3    H245426   5.071   1.913  13.072 -1.6556  0.6351  0.9765
 7979TIP3   OH245427   3.957   6.351   4.670  0.0364 -0.4225 -0.4182
 7979TIP3    H145428   3.986   6.340   4.760  0.6414 -0.4367 -0.6115
 7979TIP3    H245429   3.920   6.267   4.646 -0.3811 -0.3358 -0.0958
 7980TIP3   OH245430   3.606   0.484  15.858  0.1624 -0.9378 -0.0034
 7980TIP3    H145431   3.626   0.450  15.946  2.4809 -2.0518 -0.8927
 7980TIP3    H245432   3.529   0.434  15.831 -1.1667  0.0626  1.6852
 7981TIP3   OH245433   1.047   3.479   5.423 -0.2784  0.0416 -0.0382
 7981TIP3    H145434   1.021   3.567   5.394  0.2715  0.0734 -0.4606
 7981TIP3    H245435   0.965   3.434   5.441 -0.5905  0.4020 -0.5423
 7982TIP3   OH245436   5.548   4.831  15.453  0.3262  0.0858  0.3192
 7982TIP3    H145437   5.560   4.871  15.367 -0.9133 -0.1173  0.0334
 7982TIP3    H245438   5.463   4.787  15.447  1.2042 -1.8224  0.9094
 7983TIP3   OH245439   2.177   2.841   2.232 -0.2157 -0.3934 -0.6856
 7983TIP3    H145440   2.267   2.868   2.215  0.1298 -1.3736 -0.4410
 7983TIP3    H245441   2.183   2.751   2.263 -1.0212  0.4787  2.2994
 7984TIP3   OH245442   5.379   2.740  15.605  0.0795 -0.2842  0.7924
 7984TIP3    H145443   5.325   2.709  15.678 -0.0178  0.3061  0.9775
 7984TIP3    H245444   5.382   2.835  15.617  1.1702 -0.3086  0.7846
 7985TIP3   OH245445   4.588   3.777   6.162 -0.2097 -0.2301 -0.1252
 7985TIP3    H145446   4.569   3.689   6.194  0.2594  0.3162  1.7787
 7985TIP3    H245447   4.681   3.776   6.143 -0.1836 -0.1190 -0.0039
 7986TIP3   OH245448   0.187   5.049  11.694  0.7636  0.6221 -0.0849
 7986TIP3    H145449   0.194   5.020  11.604  0.2345 -0.2985  0.1587
 7986TIP3    H245450   0.137   5.131  11.690 -0.8989 -0.3669 -0.4796
 7987TIP3   OH245451   2.635   6.225   3.854 -0.4444 -0.0445  0.2091
 7987TIP3    H145452   2.679   6.309   3.870 -0.7240 -0.1391  1.6096
 7987TIP3    H245453   2.669   6.196   3.770  2.1644 -0.0559  1.1584
 7988TIP3   OH245454   5.826   0.641   5.401 -0.2044 -0.3206 -0.0414
 7988TIP3    H145455   5.881   0.708   5.361  0.6897 -1.5716 -0.9848
 7988TIP3    H245456   5.886   0.570   5.423 -0.9384 -0.3327  2.1098
 7989TIP3   OH245457   2.550   2.931  15.871 -0.0794 -0.2325 -0.2923
 7989TIP3    H145458   2.621   2.952  15.810  0.0566 -2.4294 -0.9882
 7989TIP3    H245459   2.495   2.868  15.823 -1.9155  0.5969  0.6225
 7990TIP3   OH245460   3.613   5.703  12.024 -0.5590 -0.1109  0.4671
 7990TIP3    H145461   3.678   5.667  12.085  1.9840  0.5671 -1.6232
 7990TIP3    H245462   3.603   5.636  11.957 -1.6316  0.0360  0.4661
 7991TIP3   OH245463   1.469   2.214  14.736  0.1293 -0.1261  0.0474
 7991TIP3    H145464   1.384   2.249  14.764 -0.2403 -1.6479  0.9337
 7991TIP3    H245465   1.532   2.254  14.797 -0.0977  0.1390  0.1093
 7992TIP3   OH245466   5.955   1.492  12.012 -0.4327  0.0428 -0.5533
 7992TIP3    H145467   5.867   1.513  12.044 -0.8160 -0.5610 -1.1888
 7992TIP3    H245468   5.940   1.431  11.940  0.6037 -1.4744  0.4839
 7993TIP3   OH245469   2.618   0.775   0.607 -0.1704 -0.0520  0.1400
 7993TIP3    H145470   2.677   0.766   0.682  0.4366 -1.9942 -0.5046
 7993TIP3    H245471   2.650   0.711   0.544 -3.4882 -1.8838  0.0814
 7994TIP3   OH245472   3.496   5.214  10.848  0.6279 -0.2301 -0.0399
 7994TIP3    H145473   3.582   5.173  10.845  0.6642 -0.0818 -1.5087
 7994TIP3    H245474   3.502   5.288  10.787 -0.2405  0.3794  0.5803
 7995TIP3   OH245475   0.916   4.627   1.901  0.1343  0.1903 -0.1280
 7995TIP3    H145476   1.000   4.621   1.856  0.2472  0.0597  0.0980
 7995TIP3    H245477   0.859   4.564   1.857  0.2981 -0.0683  0.0320
 7996TIP3   OH245478   3.784   4.272  15.859 -0.2858  0.3432  0.3280
 7996TIP3    H145479   3.871   4.246  15.889 -0.4598 -0.3455  0.2638
 7996TIP3    H245480   3.725   4.247  15.930 -0.5260  0.0500  0.0323
 7997TIP3   OH245481   3.074   6.793   0.912 -0.0593  0.0766  0.1175
 7997TIP3    H145482   3.130   6.781   0.990 -0.3697 -0.6552  0.2325
 7997TIP3    H245483   3.042   6.883   0.920  0.7428  0.3572  0.2883
 7998TIP3   OH245484   4.224   6.652  14.168  0.2988 -0.3181 -0.0111
 7998TIP3    H145485   4.251   6.566  14.137 -0.0245 -0.4538  0.0809
 7998TIP3    H245486   4.175   6.690  14.095 -0.7606 -0.7768  0.4467
 7999TIP3   OH245487   0.580   5.757   1.900 -0.9058  0.3744  0.3634
 7999TIP3    H145488   0.628   5.800   1.829 -0.6454  0.8685  0.8274
 7999TIP3    H245489   0.647   5.738   1.965 -1.4331  1.6561  1.3067
 8000TIP3   OH245490   1.792   4.065   1.878 -0.5073  0.2300 -0.4509
 8000TIP3    H145491   1.874   4.106   1.849 -1.1358  0.8906 -1.3699
 8000TIP3    H245492   1.807   3.972   1.866  0.2202  0.3186 -0.3070
 8001TIP3   OH245493   1.236   2.259  16.160 -0.0973 -0.1186 -0.5625
 8001TIP3    H145494   1.222   2.326  16.094 -0.0746  0.7977  0.3416
 8001TIP3    H245495   1.329   2.237  16.153  0.5233  1.7568  0.7445
 8002TIP3   OH245496   5.368   0.761   6.089  0.2692  0.2685 -0.4454
 8002TIP3    H145497   5.421   0.687   6.119 -0.2462  0.1498  0.1983
 8002TIP3    H245498   5.424   0.838   6.103  1.3376 -0.1008 -2.3956
 8003TIP3   OH245499   4.782   3.658  11.942  0.8633  0.1082  0.5209
 8003TIP3    H145500   4.778   3.583  12.001  0.6261 -2.8722 -2.9457
 8003TIP3    H245501   4.871   3.657  11.906  0.7005  1.1957  0.0266
 8004TIP3   OH245502   1.064   2.280   1.724  0.4287  0.0514 -0.3608
 8004TIP3    H145503   1.142   2.309   1.677  1.9225 -0.0382  1.9369
 8004TIP3    H245504   1.067   2.327   1.807 -0.2490 -2.2805  1.0669
 8005TIP3   OH245505   0.866   5.493   2.072 -0.3866 -0.3212 -0.4225
 8005TIP3    H145506   0.812   5.509   1.995 -0.1296  1.1906 -0.3208
 8005TIP3    H245507   0.864   5.576   2.120  1.4109 -0.4628 -0.0438
 8006TIP3   OH245508   5.047   3.705  13.454 -0.0581 -0.1254 -0.2361
 8006TIP3    H145509   5.020   3.657  13.376  0.0494 -0.6411  0.0427
 8006TIP3    H245510   5.110   3.648  13.497  0.3002  0.3951 -0.0578
 8007TIP3   OH245511   2.736   6.061   1.899 -0.3699 -0.3563  0.0092
 8007TIP3    H145512   2.690   6.070   1.982 -1.2004 -0.3271 -0.4494
 8007TIP3    H245513   2.669   6.073   1.832 -0.0972 -2.2852 -0.6788
 8008TIP3   OH245514   3.329   6.048   4.418  0.1004  0.4572  0.5450
 8008TIP3    H145515   3.255   5.989   4.418  1.4853 -1.3860  1.8243
 8008TIP3    H245516   3.295   6.130   4.454 -1.8209  0.4898 -1.1531
 8009TIP3   OH245517   0.101   6.251  13.377 -0.2701  0.7015  0.3024
 8009TIP3    H145518   0.063   6.306  13.445  1.1829  0.4862  1.3625
 8009TIP3    H245519   0.196   6.264  13.386 -0.0260  1.6095 -2.5321
 8010TIP3   OH245520   5.853   0.952   2.526 -0.0932 -0.1815  0.3908
 8010TIP3    H145521   5.896   0.928   2.444  1.0716  0.2695  0.8547
 8010TIP3    H245522   5.863   1.047   2.531 -3.2455  0.3416 -0.6411
 8011TIP3   OH245523   3.032   1.689  13.198 -0.1453 -0.1464 -0.2159
 8011TIP3    H145524   3.058   1.599  13.182  3.1193  0.7426 -0.5828
 8011TIP3    H245525   3.057   1.706  13.289 -0.3760  0.4790 -0.2614
 8012TIP3   OH245526   5.488   1.194  12.481  0.2895  0.7474 -0.2047
 8012TIP3    H145527   5.497   1.243  12.563  0.8899 -0.5422  0.5410
 8012TIP3    H245528   5.394   1.194  12.463 -0.1509 -0.8667  1.7551
 8013TIP3   OH245529   2.673   3.262  11.801  0.2769 -0.2374 -0.2750
 8013TIP3    H145530   2.600   3.257  11.864 -0.0794  0.4039 -0.6308
 8013TIP3    H245531   2.646   3.328  11.738  0.3434 -1.3521 -1.4964
 8014TIP3   OH245532   5.617   6.503  16.679  0.1743  0.2553  0.3077
 8014TIP3    H145533   5.566   6.441  16.731  1.5199 -0.0818  1.2485
 8014TIP3    H245534   5.555   6.533  16.611 -0.9469 -0.9400  0.7605
 8015TIP3   OH245535   4.339   0.548   5.639  0.0259  0.1187  0.3448
 8015TIP3    H145536   4.294   0.532   5.556  2.1246 -0.9490 -0.6463
 8015TIP3    H245537   4.377   0.463   5.662  2.7110  1.2557  0.3667
 8016TIP3   OH245538   3.660   6.361  15.607 -0.0076  0.3336  0.3804
 8016TIP3    H145539   3.742   6.390  15.646  0.2340  0.9141 -0.5184
 8016TIP3    H245540   3.661   6.398  15.519  0.4550 -2.6602 -0.9797
 8017TIP3   OH245541   3.959   6.715  11.021 -0.0058  0.4855  0.2387
 8017TIP3    H145542   3.885   6.715  11.082 -0.5516 -2.7153 -0.2743
 8017TIP3    H245543   4.035   6.731  11.077 -0.9110  4.1461  0.7427
 8018TIP3   OH245544   6.252   3.114   4.874 -0.6300  0.1527 -0.2411
 8018TIP3    H145545   6.265   3.203   4.906 -0.4171 -0.3500  1.1488
 8018TIP3    H245546   6.336   3.071   4.886 -1.2281 -0.7558  0.8809
 8019TIP3   OH245547   3.957   2.593  13.813 -0.2436  0.0966  0.5040
 8019TIP3    H145548   4.018   2.604  13.740  0.6778  0.7783  1.3542
 8019TIP3    H245549   4.007   2.620  13.890 -2.0054  1.9123  1.0784
 8020TIP3   OH245550   4.474   1.747   0.243  0.1016 -0.3563  0.2803
 8020TIP3    H145551   4.397   1.735   0.187 -1.4176  0.2328  2.1259
 8020TIP3    H245552   4.548   1.727   0.186 -1.3407  0.1193 -1.8985
 8021TIP3   OH245553   5.352   2.407   5.564  0.0611 -0.1635 -0.1730
 8021TIP3    H145554   5.388   2.325   5.531  0.5315 -0.4280  0.9240
 8021TIP3    H245555   5.357   2.397   5.660 -2.4411  0.0103  0.0243
 8022TIP3   OH245556   3.658   5.675  10.800 -0.0723  0.0625 -0.2210
 8022TIP3    H145557   3.718   5.602  10.791 -0.1465 -0.3718  2.1950
 8022TIP3    H245558   3.577   5.636  10.833 -0.6254  1.0588 -0.3454
 8023TIP3   OH245559   0.540   0.587   4.668  0.1033 -0.1866 -1.0007
 8023TIP3    H145560   0.607   0.627   4.723  0.0965  0.0753 -1.1781
 8023TIP3    H245561   0.471   0.560   4.729 -0.5223  1.3164 -0.9871
 8024TIP3   OH245562   2.753   3.236  16.969 -0.0577 -0.4734  0.1129
 8024TIP3    H145563   2.736   3.315  16.918 -0.1337  0.1357  1.0506
 8024TIP3    H245564   2.711   3.253  17.054  0.3752 -1.2957  0.5052
 8025TIP3   OH245565   6.477   0.283   2.227  0.8092 -0.0858  0.1441
 8025TIP3    H145566   6.524   0.257   2.307  2.1866  1.5690 -0.0869
 8025TIP3    H245567   6.387   0.296   2.256  0.8157 -1.6252  0.9589
 8026TIP3   OH245568   4.555   2.354  15.493 -0.1535 -0.3489 -0.5286
 8026TIP3    H145569   4.618   2.361  15.422  1.0334  1.2698  0.6259
 8026TIP3    H245570   4.487   2.417  15.471  0.0897 -0.0259 -0.3598
 8027TIP3   OH245571   4.678   0.728   5.817  0.4159 -0.0370  0.6560
 8027TIP3    H145572   4.694   0.634   5.827  1.4475  0.2961  2.6588
 8027TIP3    H245573   4.707   0.766   5.899 -3.8928  1.6015  1.7182
 8028TIP3   OH245574   3.855   5.706  12.836  0.6439 -0.5046 -0.4854
 8028TIP3    H145575   3.847   5.614  12.809 -0.2829 -0.0098 -2.0035
 8028TIP3    H245576   3.890   5.701  12.925 -0.7327 -2.3728  0.0303
 8029TIP3   OH245577   4.729   6.813  15.786 -0.0092 -0.1583 -0.0507
 8029TIP3    H145578   4.756   6.780  15.871 -1.0927  0.3797  0.5229
 8029TIP3    H245579   4.807   6.855  15.750  0.6128 -0.8968  0.4111
 8030TIP3   OH245580   0.485   6.004   5.663 -0.2163 -0.5984  0.1564
 8030TIP3    H145581   0.504   5.987   5.755 -1.0293  0.6615  0.5834
 8030TIP3    H245582   0.505   6.097   5.652 -0.1110 -0.7417 -0.9543
 8031TIP3   OH245583   0.182   6.445  13.918 -0.5011 -0.2437 -0.5779
 8031TIP3    H145584   0.211   6.373  13.863 -0.0413 -1.0006  0.6231
 8031TIP3    H245585   0.166   6.406  14.004 -1.0551  0.9294 -0.1183
 8032TIP3   OH245586   4.159   1.799   0.821  0.1319 -0.4302 -0.2120
 8032TIP3    H145587   4.250   1.812   0.797 -0.3311 -0.5578 -2.1962
 8032TIP3    H245588   4.122   1.887   0.827  0.6841 -0.2903  2.0997
 8033TIP3   OH245589   2.882   2.454   1.726  0.0231 -0.0116  0.1404
 8033TIP3    H145590   2.931   2.535   1.735  1.7134 -1.1638  2.2585
 8033TIP3    H245591   2.809   2.463   1.786  0.7112 -0.3676  1.0495
 8034TIP3   OH245592   3.424   4.939   4.173  0.5646  0.1673  0.0034
 8034TIP3    H145593   3.505   4.946   4.225  0.1175 -0.4957  0.8248
 8034TIP3    H245594   3.422   4.848   4.145 -0.0469  0.1070  0.2388
 8035TIP3   OH245595   2.869   3.033   2.363 -0.0342  0.8064  0.4614
 8035TIP3    H145596   2.851   3.014   2.455 -2.5517  1.6671  0.2386
 8035TIP3    H245597   2.821   3.114   2.346 -0.5111  0.1008 -1.8762
 8036TIP3   OH245598   2.053   4.363  15.771  0.5168 -0.4131  0.2646
 8036TIP3    H145599   2.124   4.321  15.820  0.2328  0.6320  1.6379
 8036TIP3    H245600   1.977   4.307  15.788  0.8878 -1.2859 -0.8457
 8037TIP3   OH245601   1.717   3.935   0.060 -0.1570 -0.1520  0.7593
 8037TIP3    H145602   1.744   4.026   0.051  2.2457 -0.7378  1.3262
 8037TIP3    H245603   1.782   3.896   0.118 -0.6840 -2.4077 -0.0518
 8038TIP3   OH245604   5.496   3.609  14.841  0.2024 -0.0328  0.2871
 8038TIP3    H145605   5.522   3.674  14.776 -0.0819  1.9190  2.0284
 8038TIP3    H245606   5.571   3.549  14.846  0.7309  0.4897 -0.9242
 8039TIP3   OH245607   6.204   5.963   3.319 -0.2709 -0.1038 -0.4201
 8039TIP3    H145608   6.272   6.016   3.277  1.3583 -0.5045  1.5545
 8039TIP3    H245609   6.223   5.873   3.294 -0.4514 -0.1556 -0.3750
 8040TIP3   OH245610   6.124   4.324  16.756 -0.2453  0.3614  0.2336
 8040TIP3    H145611   6.062   4.252  16.746 -0.1908  0.2692  0.5449
 8040TIP3    H245612   6.178   4.321  16.676  1.2509 -1.3899  1.2243
 8041TIP3   OH245613   2.358   2.150  11.541  0.7269 -0.8382 -0.1235
 8041TIP3    H145614   2.351   2.063  11.500  1.6597 -0.8006 -0.3972
 8041TIP3    H245615   2.427   2.139  11.607 -0.9606 -0.9757  1.7034
 8042TIP3   OH245616   6.442   4.113   6.028  0.2886 -0.0796 -0.0952
 8042TIP3    H145617   6.535   4.094   6.036  0.1601 -0.7961 -0.2302
 8042TIP3    H245618   6.438   4.199   5.985  0.8926  0.4767  0.9368
 8043TIP3   OH245619   5.509   6.503   3.402  0.4494  0.4696  0.5888
 8043TIP3    H145620   5.588   6.542   3.363  0.9844  0.8665  1.9834
 8043TIP3    H245621   5.533   6.489   3.494 -1.3320  1.2248  1.2063
 8044TIP3   OH245622   2.580   5.958   3.053 -0.0168 -0.0587  0.3944
 8044TIP3    H145623   2.495   5.989   3.084  0.4473  0.8995  0.7258
 8044TIP3    H245624   2.578   5.974   2.958 -0.0411  0.3623  0.4648
 8045TIP3   OH245625   1.664   2.499  10.853  0.0488  1.3651  0.1124
 8045TIP3    H145626   1.747   2.464  10.823 -0.0282  1.2577  0.0229
 8045TIP3    H245627   1.603   2.481  10.782 -0.5514 -0.4614  1.0236
 8046TIP3   OH245628   3.885   0.358   3.357 -0.2074 -0.3612  0.1741
 8046TIP3    H145629   3.865   0.384   3.267 -1.9366  1.2701  0.9478
 8046TIP3    H245630   3.822   0.288   3.376  0.7336 -1.3102 -0.1329
 8047TIP3   OH245631   6.365   5.090  16.784  0.2083  0.0494 -0.0607
 8047TIP3    H145632   6.360   5.076  16.879  3.1880 -0.2806  0.1318
 8047TIP3    H245633   6.336   5.181  16.773  1.8183  0.8155  1.4810
 8048TIP3   OH245634   1.332   6.627   5.019 -0.0156  0.5090  0.2918
 8048TIP3    H145635   1.315   6.550   4.965  0.2206 -0.3598  1.4118
 8048TIP3    H245636   1.399   6.676   4.971 -1.4390  0.9648 -1.3070
 8049TIP3   OH245637   6.064   6.117   3.857 -0.2662 -0.0644  0.5925
 8049TIP3    H145638   6.085   6.082   3.770 -0.3430  1.3486 -0.0168
 8049TIP3    H245639   6.130   6.184   3.873 -1.8204  1.5967  0.4096
 8050TIP3   OH245640   4.005   0.974  16.256  0.3459 -0.4702  0.2944
 8050TIP3    H145641   3.923   0.938  16.222 -0.2021 -0.8624  1.9389
 8050TIP3    H245642   3.979   1.026  16.332  1.6762 -1.2516  1.3353
 8051TIP3   OH245643   1.949   5.035  16.631 -0.4115 -0.2968 -0.6264
 8051TIP3    H145644   1.861   5.026  16.595 -0.6763  0.0164 -0.0754
 8051TIP3    H245645   1.971   5.127  16.619 -0.3614 -0.2650 -0.3213
 8052TIP3   OH245646   4.467   0.637  11.157 -0.3902  0.1580  0.5068
 8052TIP3    H145647   4.456   0.706  11.223 -0.2791  0.5617  0.1064
 8052TIP3    H245648   4.561   0.636  11.139 -0.6150  1.1759 -0.8405
 8053TIP3   OH245649   6.294   3.378  12.099 -0.7383  0.4303  0.1958
 8053TIP3    H145650   6.295   3.352  12.007  0.0925  2.1952 -0.3376
 8053TIP3    H245651   6.381   3.353  12.132  0.2078  2.6819 -0.4202
 8054TIP3   OH245652   5.343   5.038   5.652 -0.7602  0.7878 -0.1819
 8054TIP3    H145653   5.414   5.030   5.588  0.0550 -1.3126  0.8687
 8054TIP3    H245654   5.372   4.984   5.725 -2.6634  1.3441  1.0351
 8055TIP3   OH245655   2.690   6.678  16.576  0.7507 -0.1370 -0.1704
 8055TIP3    H145656   2.721   6.701  16.488 -0.3694  1.1481 -0.2574
 8055TIP3    H245657   2.597   6.699  16.575  0.7381  0.0049  1.3771
 8056TIP3   OH245658   2.276   5.447  11.430  0.1503  0.3686 -0.4312
 8056TIP3    H145659   2.227   5.507  11.375  0.3203 -1.1534 -2.3736
 8056TIP3    H245660   2.350   5.419  11.375  0.4443 -1.0818  0.6344
 8057TIP3   OH245661   3.247   6.693   2.362 -0.0906 -0.6808 -0.7217
 8057TIP3    H145662   3.262   6.761   2.296 -1.8807  0.9232  0.3984
 8057TIP3    H245663   3.174   6.642   2.328  0.5845 -1.4177 -1.0873
 8058TIP3   OH245664   0.720   0.754  11.570  0.4430 -0.3334  0.0785
 8058TIP3    H145665   0.794   0.779  11.514  0.2760  0.3655  0.1556
 8058TIP3    H245666   0.748   0.778  11.658  0.0255  0.1743  0.0741
 8059TIP3   OH245667   4.781   6.492  14.656  0.7405 -0.1605  0.0115
 8059TIP3    H145668   4.722   6.421  14.634  1.8332 -1.5133  1.2624
 8059TIP3    H245669   4.727   6.556  14.701 -0.2646 -0.1312 -1.1781
 8060TIP3   OH245670   4.278   1.427  16.533  0.2644  0.0812  0.0354
 8060TIP3    H145671   4.202   1.371  16.514 -0.6657  0.5467  2.1649
 8060TIP3    H245672   4.352   1.379  16.496 -0.4951 -2.5808  1.6781
 8061TIP3   OH245673   4.543   0.279   1.362 -0.1185 -0.7083  0.5450
 8061TIP3    H145674   4.614   0.225   1.325 -1.9380 -3.4643  0.8168
 8061TIP3    H245675   4.474   0.275   1.296  0.0144  2.3190  0.0835
 8062TIP3   OH245676   6.309   2.154   3.331 -0.6307 -0.6644  0.3247
 8062TIP3    H145677   6.354   2.238   3.327  0.3463 -1.1045  1.4714
 8062TIP3    H245678   6.234   2.169   3.389 -2.0346  0.0699 -1.5898
 8063TIP3   OH245679   6.246   3.712  16.378 -0.3438 -0.4464  0.0204
 8063TIP3    H145680   6.161   3.668  16.371  0.3833 -1.9436  0.1432
 8063TIP3    H245681   6.294   3.684  16.299  0.3705 -0.4174  0.4317
 8064TIP3   OH245682   0.942   6.326  14.319  0.4565 -0.4712 -0.3787
 8064TIP3    H145683   0.866   6.378  14.343  0.3604 -1.4586  1.6233
 8064TIP3    H245684   1.017   6.384  14.335  0.2070  0.1296 -1.3079
 8065TIP3   OH245685   4.732   5.392  11.466  0.2385  0.1667  0.0166
 8065TIP3    H145686   4.790   5.320  11.438 -0.6102 -0.9754  1.0775
 8065TIP3    H245687   4.764   5.468  11.418  0.2386 -1.2164 -2.3276
 8066TIP3   OH245688   4.852   6.656   3.715  0.3646  0.0645  1.0853
 8066TIP3    H145689   4.874   6.702   3.796 -0.2831  2.0968  0.1764
 8066TIP3    H245690   4.934   6.654   3.666 -0.2082  3.2416 -0.2186
 8067TIP3   OH245691   4.145   1.156  11.998  1.1663 -0.0374  0.5993
 8067TIP3    H145692   4.145   1.174  12.092  0.0628  1.4264  0.3517
 8067TIP3    H245693   4.082   1.085  11.987 -0.7289  1.5257  0.7331
 8068TIP3   OH245694   6.120   5.416  13.821  0.1210  0.5719 -0.3012
 8068TIP3    H145695   6.163   5.422  13.736 -1.4131  3.4506 -1.0148
 8068TIP3    H245696   6.138   5.500  13.864 -1.3884  0.2717  1.0468
 8069TIP3   OH245697   5.642   5.956  10.320 -0.8858  0.1433 -0.4220
 8069TIP3    H145698   5.660   5.943  10.413 -0.3623  0.0697 -0.5341
 8069TIP3    H245699   5.676   6.043  10.301  1.1199 -0.7281 -1.0660
 8070TIP3   OH245700   4.859   5.958  14.039 -0.0048  0.0061 -0.1100
 8070TIP3    H145701   4.797   6.010  14.089 -0.9173  1.0053 -2.1558
 8070TIP3    H245702   4.853   5.993  13.950  0.7126 -2.4115 -1.1870
 8071TIP3   OH245703   2.699   1.435  11.506  0.4768  0.7400  0.3997
 8071TIP3    H145704   2.605   1.444  11.520  0.2174 -0.8977 -0.0704
 8071TIP3    H245705   2.736   1.432  11.594  0.4633  4.1743  0.6381
 8072TIP3   OH245706   1.763   1.479   3.189 -0.4912  0.1552 -0.5514
 8072TIP3    H145707   1.746   1.528   3.109 -1.4261 -0.3999 -0.7134
 8072TIP3    H245708   1.812   1.402   3.160  0.1414  0.5103 -0.4311
 8073TIP3   OH245709   5.068   1.175  13.686 -0.0828 -0.2079 -0.7530
 8073TIP3    H145710   5.082   1.123  13.607  0.5766  0.7116 -1.2518
 8073TIP3    H245711   5.129   1.139  13.750  0.6374  0.1643 -1.2111
 8074TIP3   OH245712   0.057   5.795   3.627 -0.1864  0.1857 -0.0831
 8074TIP3    H145713   0.013   5.874   3.595 -1.1778 -0.4018 -0.2410
 8074TIP3    H245714   0.124   5.827   3.686 -0.6512  1.1465 -0.0510
 8075TIP3   OH245715   4.859   5.953  17.020  0.3589  0.9613  0.2218
 8075TIP3    H145716   4.852   5.946  16.925 -1.1232 -0.3433  0.3821
 8075TIP3    H245717   4.953   5.962  17.037  0.8490 -0.7458 -1.2775
 8076TIP3   OH245718   6.381   0.694   0.056  0.4131  0.0508  0.2603
 8076TIP3    H145719   6.347   0.609   0.084 -1.4698  0.5948 -0.2777
 8076TIP3    H245720   6.390   0.687  -0.039 -0.5726  0.7217  0.1070
 8077TIP3   OH245721   6.306   1.841  13.969  0.0242  0.2495 -0.3929
 8077TIP3    H145722   6.276   1.785  14.040 -0.6933  1.8555  0.6137
 8077TIP3    H245723   6.359   1.783  13.914 -0.6292 -1.3845  0.6235
 8078TIP3   OH245724   2.649   5.022  15.704 -0.0886  0.3835  0.1245
 8078TIP3    H145725   2.722   5.059  15.754  1.9454 -1.7337 -1.0846
 8078TIP3    H245726   2.575   5.028  15.764  1.4341  1.1052  2.0808
 8079TIP3   OH245727   0.195   2.426   4.890 -0.2674  0.6326 -0.0541
 8079TIP3    H145728   0.285   2.403   4.868 -0.8277 -2.0717  0.1064
 8079TIP3    H245729   0.203   2.485   4.965  1.3748  0.3249  0.0596
 8080TIP3   OH245730   2.771   0.602   0.151  0.4330 -0.4717 -0.8908
 8080TIP3    H145731   2.785   0.592   0.057  1.5671 -0.0622 -0.7851
 8080TIP3    H245732   2.859   0.606   0.188  0.0198  0.6379  0.0520
 8081TIP3   OH245733   4.729   2.167   4.940 -0.0254  0.3319  0.8089
 8081TIP3    H145734   4.721   2.222   5.018  0.5056 -1.2816  2.0678
 8081TIP3    H245735   4.711   2.078   4.971  0.7071 -0.4320 -0.7971
 8082TIP3   OH245736   0.058   3.459   1.764  0.4435  0.3505 -0.2467
 8082TIP3    H145737   0.010   3.452   1.682  0.2203  0.0885 -0.0941
 8082TIP3    H245738   0.040   3.548   1.795  2.5460  1.3638 -1.7195
 8083TIP3   OH245739   5.493   0.279   0.561  0.3743 -0.3241 -0.5006
 8083TIP3    H145740   5.467   0.371   0.569  0.3933 -0.4556  2.2316
 8083TIP3    H245741   5.589   0.281   0.564  0.4645 -0.3678 -2.2936
 8084TIP3   OH245742   6.204   4.215   4.712  0.5295  0.0353  0.0187
 8084TIP3    H145743   6.140   4.153   4.746  0.1723  0.0682 -0.5742
 8084TIP3    H245744   6.273   4.160   4.674  0.2479 -0.0106 -0.4415
 8085TIP3   OH245745   0.541   4.800  14.998 -0.2582  0.2505 -0.2944
 8085TIP3    H145746   0.483   4.817  15.073 -2.3677 -0.8766 -1.5718
 8085TIP3    H245747   0.560   4.707  15.003 -1.5501 -0.1394 -1.8522
 8086TIP3   OH245748   3.371   4.226  15.843  0.1381  0.1938 -0.4519
 8086TIP3    H145749   3.392   4.242  15.935  2.1573 -2.7582 -0.2574
 8086TIP3    H245750   3.379   4.311  15.801  2.7904  1.0383  1.5130
 8087TIP3   OH245751   1.496   4.610  16.910 -0.0154  0.2526 -0.3710
 8087TIP3    H145752   1.444   4.671  16.858 -0.3677  0.3521  0.0855
 8087TIP3    H245753   1.435   4.577  16.976 -0.0406 -1.1906 -1.0780
 8088TIP3   OH245754   3.525   3.923   5.886  0.8296 -0.4008  0.0574
 8088TIP3    H145755   3.572   3.843   5.861  0.2079 -0.0355 -2.5503
 8088TIP3    H245756   3.448   3.924   5.830  0.0529  1.3256  1.0803
 8089TIP3   OH245757   4.026   6.211  16.599  0.0677  0.0047 -0.0286
 8089TIP3    H145758   4.108   6.251  16.570  0.1442 -0.0802  0.0656
 8089TIP3    H245759   4.015   6.241  16.689  0.5253 -0.7935  0.3058
 8090TIP3   OH245760   6.082   4.570   5.719 -0.0631  0.5936 -0.0470
 8090TIP3    H145761   6.092   4.572   5.814 -0.0702  0.0509 -0.0342
 8090TIP3    H245762   6.059   4.480   5.699  0.5711  0.5589 -0.6317
 8091TIP3   OH245763   6.247   2.486  14.067 -0.6770  0.1461  0.7043
 8091TIP3    H145764   6.332   2.461  14.104 -0.6670 -2.4284 -0.8394
 8091TIP3    H245765   6.260   2.481  13.972 -2.2719  0.8240  0.4290
 8092TIP3   OH245766   6.015   2.817   2.202 -0.4982 -0.7521 -0.3391
 8092TIP3    H145767   5.938   2.835   2.255 -0.1959  1.4879 -0.5443
 8092TIP3    H245768   6.003   2.871   2.123  1.1519 -0.4980 -0.4610
 8093TIP3   OH245769   4.437   4.076  11.548  0.1130  0.1222  0.2857
 8093TIP3    H145770   4.356   4.026  11.539  0.7547 -1.0053  0.5312
 8093TIP3    H245771   4.421   4.135  11.621 -0.4946 -0.0775  0.3195
 8094TIP3   OH245772   2.440   3.986   4.867 -0.4965  0.5523 -0.0469
 8094TIP3    H145773   2.480   3.901   4.882 -0.7128  0.7354  1.7000
 8094TIP3    H245774   2.389   4.004   4.946 -1.3780  1.8004 -0.8445
 8095TIP3   OH245775   1.915   6.283   4.601  0.3696  0.4847 -0.1126
 8095TIP3    H145776   1.855   6.345   4.560 -1.0082 -1.0859 -0.5666
 8095TIP3    H245777   1.885   6.279   4.692 -1.0908 -1.2277 -0.6184
 8096TIP3   OH245778   4.690   0.272  10.943 -0.1495 -0.0372 -0.4078
 8096TIP3    H145779   4.775   0.233  10.966 -0.8819 -2.3510 -1.3268
 8096TIP3    H245780   4.711   0.340  10.880  1.1878  1.0208  1.0917
 8097TIP3   OH245781   2.809   1.362  13.836  1.0388 -0.2222 -0.1822
 8097TIP3    H145782   2.800   1.369  13.931 -1.0207  0.5842 -0.3737
 8097TIP3    H245783   2.839   1.448  13.808 -0.3114  0.2130 -0.3914
 8098TIP3   OH245784   0.745   4.675  15.289  0.4818  0.1054  0.1472
 8098TIP3    H145785   0.814   4.693  15.353  0.3743  0.6694  0.1154
 8098TIP3    H245786   0.768   4.728  15.213  0.4024 -0.2678 -0.1386
 8099TIP3   OH245787   0.506   2.960   5.326 -0.2837 -0.2395 -0.2356
 8099TIP3    H145788   0.506   2.877   5.375 -1.4298  0.4844  1.0617
 8099TIP3    H245789   0.413   2.982   5.317 -0.0112  2.5947  2.4595
 8100TIP3   OH245790   6.346   4.868  14.240  0.1897 -0.2166 -0.0968
 8100TIP3    H145791   6.285   4.932  14.276  2.2027  1.2037  0.9629
 8100TIP3    H245792   6.362   4.807  14.311 -1.1987 -1.6055 -0.8964
 8101TIP3   OH245793   2.447   3.106  11.996 -0.4961  0.2303  0.4732
 8101TIP3    H145794   2.353   3.097  11.986 -0.5942  1.1761  0.4979
 8101TIP3    H245795   2.458   3.173  12.064  0.1952  0.0140  0.5893
 8102TIP3   OH245796   2.405   1.250   1.870  0.1370  0.3337  0.6220
 8102TIP3    H145797   2.394   1.234   1.777 -0.3210  0.3033  0.6797
 8102TIP3    H245798   2.362   1.334   1.886  1.7021  1.2097  0.4967
 8103TIP3   OH245799   0.157   6.010   4.477 -0.2283  0.0069  0.2563
 8103TIP3    H145800   0.248   5.990   4.498 -0.6194 -0.5774  1.4786
 8103TIP3    H245801   0.161   6.047   4.389  1.5685  3.1870  1.5023
 8104TIP3   OH245802   2.108   4.054   3.366  0.0851  0.0112  0.1185
 8104TIP3    H145803   2.139   4.105   3.441  1.1746 -0.7044  0.1819
 8104TIP3    H245804   2.172   4.073   3.296  0.3911 -1.0947  0.0876
 8105TIP3   OH245805   0.489   3.417  16.945 -0.7325 -0.3995 -0.2525
 8105TIP3    H145806   0.504   3.509  16.967  1.6407 -0.1610 -2.3560
 8105TIP3    H245807   0.432   3.385  17.015  0.5857  1.9481  2.1161
 8106TIP3   OH245808   4.790   6.249   0.979  0.8219  0.2479 -0.3921
 8106TIP3    H145809   4.830   6.214   0.899 -0.5567 -0.0800 -0.9620
 8106TIP3    H245810   4.724   6.184   1.003 -1.0856  1.8934 -0.8733
 8107TIP3   OH245811   6.329   2.198   1.075 -0.9305  0.5028 -0.2633
 8107TIP3    H145812   6.341   2.285   1.113  0.1735  0.5992 -0.7953
 8107TIP3    H245813   6.344   2.211   0.981 -0.9125 -0.2321 -0.3651
 8108TIP3   OH245814   1.136   1.657   1.001  0.4441  0.5329  0.0181
 8108TIP3    H145815   1.203   1.632   1.064 -0.2839  2.2197  1.5623
 8108TIP3    H245816   1.086   1.577   0.986  1.2323 -0.1338  0.8395
 8109TIP3   OH245817   4.325   6.414  14.833 -0.1691 -0.1407 -0.3093
 8109TIP3    H145818   4.362   6.326  14.842  0.1892 -0.3112 -2.8305
 8109TIP3    H245819   4.364   6.463  14.905  2.2722 -1.2277 -0.7833
 8110TIP3   OH245820   5.473   3.344   2.455  0.4096 -0.6161 -0.2973
 8110TIP3    H145821   5.416   3.324   2.529  1.2005 -0.8915  0.2503
 8110TIP3    H245822   5.439   3.290   2.383 -0.4588 -0.2253 -0.1918
 8111TIP3   OH245823   0.030   2.332  15.293 -0.5919  0.0859 -0.4417
 8111TIP3    H145824   0.104   2.335  15.233 -1.6364  1.6148 -1.7630
 8111TIP3    H245825   0.018   2.423  15.321 -2.0407 -0.0934 -0.3826
 8112TIP3   OH245826   2.171   6.571   5.082 -0.4625  0.4691  0.2927
 8112TIP3    H145827   2.163   6.478   5.100 -0.6159 -0.1260 -2.3658
 8112TIP3    H245828   2.080   6.603   5.080 -0.5370  0.2143 -0.7723
 8113TIP3   OH245829   1.498   0.556  16.999 -0.5088  0.1048  0.3759
 8113TIP3    H145830   1.546   0.557  16.916 -1.8694 -1.2827 -0.4726
 8113TIP3    H245831   1.553   0.504  17.058 -1.0208 -1.6341 -0.6415
 8114TIP3   OH245832   3.831   0.387  16.907 -0.3604 -0.2900 -0.1189
 8114TIP3    H145833   3.767   0.370  16.838 -0.1434  0.7346 -0.5918
 8114TIP3    H245834   3.790   0.453  16.963 -0.3091 -0.7088  0.4210
 8115TIP3   OH245835   5.016   4.468  16.557 -0.1187 -0.1890 -0.3247
 8115TIP3    H145836   5.065   4.545  16.530 -0.0024 -0.9126 -2.3499
 8115TIP3    H245837   5.071   4.394  16.531  0.1353 -1.0195  2.2583
 8116TIP3   OH245838   1.477   4.111   4.380 -0.6595 -0.1509 -0.3291
 8116TIP3    H145839   1.435   4.041   4.430  1.3654 -0.5092  0.9939
 8116TIP3    H245840   1.428   4.190   4.402 -1.2334 -0.7070  0.3965
 8117TIP3   OH245841   3.483   5.901  11.879  0.4290  0.0315  0.3409
 8117TIP3    H145842   3.473   5.862  11.792 -0.4065 -0.9593  0.8434
 8117TIP3    H245843   3.526   5.833  11.931 -1.2185 -0.3453  1.2895
 8118TIP3   OH245844   6.239   4.059   4.978 -0.1267  0.2215 -0.0969
 8118TIP3    H145845   6.317   4.090   4.931 -0.1794  0.3581 -0.0935
 8118TIP3    H245846   6.207   4.136   5.025  1.0842 -0.3766  1.8163
 8119TIP3   OH245847   4.551   1.016  16.635 -0.0086 -0.0226 -0.2023
 8119TIP3    H145848   4.597   1.060  16.563 -0.2190  0.1873 -0.2083
 8119TIP3    H245849   4.460   1.013  16.607  0.0565 -0.7608 -0.3505
 8120TIP3   OH245850   5.062   0.631  14.049 -0.2500  0.3495 -0.5719
 8120TIP3    H145851   5.035   0.652  14.138  1.1397 -0.1450 -0.0149
 8120TIP3    H245852   4.995   0.672  13.994 -0.8963  1.0282  0.6690
 8121TIP3   OH245853   4.685   2.939  12.329 -0.0305  0.1497 -0.2933
 8121TIP3    H145854   4.626   2.887  12.274 -1.1960  0.4317  0.6769
 8121TIP3    H245855   4.764   2.884  12.336 -1.1348 -1.4345  0.5104
 8122TIP3   OH245856   5.057   4.201   1.968  0.2993 -0.0809 -0.2751
 8122TIP3    H145857   5.037   4.216   2.061  0.9855 -1.1552  0.0656
 8122TIP3    H245858   4.977   4.163   1.933 -1.4214  3.7958 -1.1187
 8123TIP3   OH245859   0.737   6.720  11.989 -0.1497  0.4000 -0.3554
 8123TIP3    H145860   0.678   6.675  11.928 -0.6683 -0.9476  1.0722
 8123TIP3    H245861   0.722   6.813  11.972 -1.7433  0.0715 -0.9424
 8124TIP3   OH245862   0.414   3.927   6.236 -0.3570 -0.1494  0.3537
 8124TIP3    H145863   0.467   3.862   6.280  1.9648  0.9422 -0.6360
 8124TIP3    H245864   0.380   3.983   6.306  1.1608  0.0547  0.9690
 8125TIP3   OH245865   0.162   1.254   1.094 -0.9650  0.3606 -0.3429
 8125TIP3    H145866   0.226   1.319   1.065 -1.2946  0.4541 -0.8828
 8125TIP3    H245867   0.128   1.217   1.013  0.6487 -1.9287 -0.0559
 8126TIP3   OH245868   5.033   5.009   6.521 -0.7017  0.1997  0.1734
 8126TIP3    H145869   5.111   5.061   6.544  0.2130 -0.9461 -0.2153
 8126TIP3    H245870   5.046   4.926   6.566 -2.1333  0.2877  0.7673
 8127TIP3   OH245871   1.979   1.876   1.082 -0.6057 -0.0177 -0.0126
 8127TIP3    H145872   1.923   1.894   1.157  0.5525 -0.0773  0.9131
 8127TIP3    H245873   1.923   1.831   1.019 -1.2255 -1.5206  1.5233
 8128TIP3   OH245874   3.024   4.107   2.445  0.2969  0.0067  0.1523
 8128TIP3    H145875   3.006   4.016   2.465  2.2855 -0.0055  2.4285
 8128TIP3    H245876   3.095   4.131   2.505  1.0676  2.5411 -1.5913
 8129TIP3   OH245877   4.118   3.923   5.085 -0.6957 -0.1993 -0.0966
 8129TIP3    H145878   4.184   3.874   5.134 -0.6515 -1.0054 -0.9285
 8129TIP3    H245879   4.039   3.917   5.139 -0.0244  1.0481  1.0589
 8130TIP3   OH245880   3.801   1.261   5.326  0.7539  0.3322  0.3038
 8130TIP3    H145881   3.769   1.225   5.243  0.7987  0.2515  0.3212
 8130TIP3    H245882   3.747   1.219   5.392  0.2020  0.9673  0.2703
 8131TIP3   OH245883   5.217   5.993   1.661  0.0006  0.3886  0.1549
 8131TIP3    H145884   5.170   5.910   1.661  0.0588  0.3095 -1.8626
 8131TIP3    H245885   5.260   5.996   1.746 -0.6552 -1.2719  0.5784
 8132TIP3   OH245886   6.750   4.678  14.026  0.5207 -0.4205  0.0565
 8132TIP3    H145887   6.739   4.731  13.947 -1.8241 -0.7483  0.1023
 8132TIP3    H245888   6.678   4.615  14.024 -0.4797  0.4357  3.1074
 8133TIP3   OH245889   5.415   5.159  11.398 -0.7655 -0.3985  0.0115
 8133TIP3    H145890   5.471   5.093  11.438 -0.8396 -1.5965 -1.7197
 8133TIP3    H245891   5.456   5.175  11.312 -2.3312 -0.3579 -0.7635
 8134TIP3   OH245892   4.197   4.088   3.472  0.0761  0.4424 -0.1039
 8134TIP3    H145893   4.111   4.116   3.503  0.5514  0.8031  0.9128
 8134TIP3    H245894   4.178   4.032   3.396 -1.0038  1.3674 -0.5478
 8135TIP3   OH245895   4.530   4.012  13.105  0.0859  0.1220  0.7871
 8135TIP3    H145896   4.567   3.962  13.032 -0.9825  1.9621 -1.1462
 8135TIP3    H245897   4.606   4.047  13.152  1.0473  2.7735 -2.3230
 8136TIP3   OH245898   4.628   4.444   2.385  0.0620 -0.2054  0.4202
 8136TIP3    H145899   4.692   4.461   2.316  3.1525  0.6635  3.2143
 8136TIP3    H245900   4.618   4.349   2.387  0.0279 -0.2474 -1.0835
 8137TIP3   OH245901   4.354   3.499   2.432 -0.7124 -0.5735 -0.5970
 8137TIP3    H145902   4.375   3.463   2.518  1.1811 -1.1971 -1.2695
 8137TIP3    H245903   4.435   3.538   2.401 -1.8466  1.3720 -1.3383
 8138TIP3   OH245904   2.184   5.571  16.584 -0.1298 -0.0013  0.0725
 8138TIP3    H145905   2.122   5.502  16.610  0.0184 -0.3474 -0.4798
 8138TIP3    H245906   2.239   5.530  16.518 -0.0256  0.6513 -0.2533
 8139TIP3   OH245907   4.246   0.379   2.185  0.3598 -0.1780  0.4027
 8139TIP3    H145908   4.250   0.434   2.263 -2.7897  0.0164  0.5234
 8139TIP3    H245909   4.228   0.291   2.218 -0.6291 -0.1596 -0.0531
 8140TIP3   OH245910   1.784   5.510   5.972  0.2120 -0.4364 -0.0616
 8140TIP3    H145911   1.691   5.526   5.991  0.5034  0.6567  0.5397
 8140TIP3    H245912   1.810   5.442   6.036 -0.7756 -2.7249 -1.9370
 8141TIP3   OH245913   2.521   4.438   4.830 -0.2670 -0.2938 -0.1669
 8141TIP3    H145914   2.450   4.393   4.786  0.3157 -2.0339  0.5863
 8141TIP3    H245915   2.582   4.369   4.856  1.0921  1.0087  0.3139
 8142TIP3   OH245916   5.661   6.214  15.843 -0.3105 -0.5917  0.5989
 8142TIP3    H145917   5.751   6.191  15.869 -0.8239 -1.2328  1.8846
 8142TIP3    H245918   5.638   6.288  15.899  0.4184  1.5927 -1.7780
 8143TIP3   OH245919   3.563   0.815  14.586  0.2524  0.1775 -0.0288
 8143TIP3    H145920   3.527   0.889  14.636  1.5667  0.4624  0.5453
 8143TIP3    H245921   3.641   0.789  14.635 -0.2136 -1.6553 -0.1828
 8144TIP3   OH245922   5.040   4.407  14.494  0.2102  0.7416 -0.0357
 8144TIP3    H145923   4.956   4.405  14.448 -0.7006 -3.9207  1.3605
 8144TIP3    H245924   5.106   4.401  14.424 -0.9344 -1.3288 -1.0278
 8145TIP3   OH245925   1.196   3.762  14.942  0.0238  0.4266  0.0288
 8145TIP3    H145926   1.137   3.756  15.017  1.9502 -3.2517  1.5119
 8145TIP3    H245927   1.167   3.841  14.895 -3.0099  1.4013  3.0912
 8146TIP3   OH245928   2.762   5.439   5.050  0.1591  0.2958 -0.3267
 8146TIP3    H145929   2.693   5.474   5.106  1.7288  0.2045  1.8015
 8146TIP3    H245930   2.731   5.352   5.025  0.6040 -0.9435  2.9602
 8147TIP3   OH245931   3.252   5.070   3.036 -0.1145 -0.3204  0.3222
 8147TIP3    H145932   3.219   5.125   2.965 -1.6464 -0.2477  1.0554
 8147TIP3    H245933   3.287   4.992   2.992  0.0910  0.2725 -0.5833
 8148TIP3   OH245934   1.364   4.011  14.595  0.9410 -0.5864  0.0509
 8148TIP3    H145935   1.418   4.068  14.650  1.4052 -1.2577  0.3035
 8148TIP3    H245936   1.419   3.992  14.519 -0.0284  1.0841 -1.1426
 8149TIP3   OH245937   0.844   5.348   2.476 -0.0821  0.3364 -0.0813
 8149TIP3    H145938   0.902   5.345   2.552 -1.2818  0.5321  0.8787
 8149TIP3    H245939   0.867   5.431   2.432  0.2335  0.4916  0.3716
 8150TIP3   OH245940   0.600   1.616   3.323 -0.1607  0.1448 -0.2910
 8150TIP3    H145941   0.556   1.620   3.239  1.2078 -2.2415 -1.2202
 8150TIP3    H245942   0.693   1.615   3.302  0.2528  0.5612  1.3313
 8151TIP3   OH245943   0.731   5.725  14.348  0.0281 -0.3094 -0.4614
 8151TIP3    H145944   0.806   5.785  14.355  0.2507 -0.7672  2.2294
 8151TIP3    H245945   0.656   5.777  14.376 -0.2641 -0.5019 -0.8850
 8152TIP3   OH245946   1.263   6.407   4.220  0.5158 -0.2549 -0.6567
 8152TIP3    H145947   1.195   6.350   4.255  1.1099 -0.6746 -0.1677
 8152TIP3    H245948   1.216   6.473   4.170 -0.4924  0.9887  1.7748
 8153TIP3   OH245949   1.356   1.324   3.023  0.5591 -0.2268  0.2995
 8153TIP3    H145950   1.267   1.313   3.057  1.1925 -0.2548  2.0270
 8153TIP3    H245951   1.359   1.415   2.993  0.8435  0.8151  3.1784
 8154TIP3   OH245952   5.240   4.021   5.748 -0.4911  0.5250 -0.6197
 8154TIP3    H145953   5.157   3.974   5.752  0.2625 -0.8834 -0.5613
 8154TIP3    H245954   5.256   4.034   5.654 -1.3139  1.8483 -0.5932
 8155TIP3   OH245955   0.272   5.485  15.476  0.1407  0.2011 -0.1899
 8155TIP3    H145956   0.263   5.391  15.459  1.8886 -0.3368  1.5623
 8155TIP3    H245957   0.259   5.495  15.570 -1.0174  1.9135 -0.4610
 8156TIP3   OH245958   3.050   6.224   2.470 -0.2255  0.0982  0.3186
 8156TIP3    H145959   3.109   6.158   2.433  1.3630  2.2740 -1.2909
 8156TIP3    H245960   3.107   6.297   2.493 -2.0911  1.6099  0.4074
 8157TIP3   OH245961   4.169   4.446  13.171  0.0828 -0.0136 -0.2704
 8157TIP3    H145962   4.174   4.465  13.078  1.9341  0.0342 -0.1970
 8157TIP3    H245963   4.251   4.480  13.207 -1.0001  0.8610  1.5484
 8158TIP3   OH245964   0.763   0.993   1.150  0.3414  0.6298 -0.0207
 8158TIP3    H145965   0.846   1.007   1.105 -0.7033  2.5682 -1.4898
 8158TIP3    H245966   0.762   0.899   1.170  2.9453  0.5900  0.2687
 8159TIP3   OH245967   5.582   1.063   3.177  0.0004  0.3701 -0.0900
 8159TIP3    H145968   5.487   1.058   3.167  0.1917  0.0933 -2.1234
 8159TIP3    H245969   5.607   0.976   3.209 -0.2571 -0.2641 -1.5366
 8160TIP3   OH245970   1.597   4.248  14.494  0.2339  0.0155  0.4110
 8160TIP3    H145971   1.573   4.262  14.585  0.7364  0.2108  0.5214
 8160TIP3    H245972   1.631   4.333  14.465  0.0506 -0.0367  0.0355
 8161TIP3   OH245973   4.856   2.837   3.998 -0.4187  0.1379 -0.2174
 8161TIP3    H145974   4.856   2.839   4.094 -1.7877 -0.6498 -0.1791
 8161TIP3    H245975   4.940   2.875   3.973  0.2806 -0.3619  1.3052
 8162TIP3   OH245976   1.990   6.585   3.091 -0.0220 -0.3542 -0.1578
 8162TIP3    H145977   1.910   6.558   3.136  0.1344 -0.8906 -0.1943
 8162TIP3    H245978   2.060   6.555   3.148  0.1574  0.1671 -0.0981
 8163TIP3   OH245979   1.626   6.597   1.858  0.2763 -0.3782  0.5677
 8163TIP3    H145980   1.712   6.576   1.894  0.6943  1.4724  0.7540
 8163TIP3    H245981   1.639   6.597   1.763  0.6896  0.6888  0.6211
 8164TIP3   OH245982   6.673   2.469  13.155  0.4884  0.3900  0.6810
 8164TIP3    H145983   6.685   2.495  13.063 -0.1843 -1.2969  0.0799
 8164TIP3    H245984   6.761   2.445  13.185  0.6436  0.5126  0.3353
 8165TIP3   OH245985   2.817   6.000   0.790  0.2360 -0.4364  0.2172
 8165TIP3    H145986   2.883   6.052   0.837 -1.1053  2.4922 -0.8884
 8165TIP3    H245987   2.853   5.991   0.701 -0.7382  1.1133 -0.3692
 8166TIP3   OH245988   3.763   4.671  15.301  0.5824 -0.1438 -0.3933
 8166TIP3    H145989   3.751   4.616  15.378 -1.0178 -0.1203 -0.5996
 8166TIP3    H245990   3.783   4.610  15.231 -0.6486 -0.4255 -0.5099
 8167TIP3   OH245991   5.404   3.145   1.280  0.3384 -0.6091  0.1616
 8167TIP3    H145992   5.382   3.171   1.191 -1.6729 -0.4229  0.6718
 8167TIP3    H245993   5.498   3.163   1.288  0.1377  1.3539 -1.2373
 8168TIP3   OH245994   3.776   4.435   2.671  0.1174  0.4929  0.5546
 8168TIP3    H145995   3.789   4.367   2.605  2.2315  1.5342 -0.2108
 8168TIP3    H245996   3.771   4.516   2.621  2.0824  1.3396  1.6004
 8169TIP3   OH245997   1.012   1.776   2.528  0.6648 -0.3275  0.6285
 8169TIP3    H145998   1.028   1.711   2.597  0.2898 -0.8943  0.1906
 8169TIP3    H245999   1.098   1.793   2.491  0.4484 -2.9122 -1.3141
 8170TIP3   OH246000   1.081   2.369   4.513 -0.7558  0.1712  0.4906
 8170TIP3    H146001   0.985   2.374   4.507 -0.8162 -1.9231 -0.9847
 8170TIP3    H246002   1.106   2.304   4.449  1.4770 -1.2139  2.5968
 8171TIP3   OH246003   5.413   1.457   4.330 -0.0989 -0.2474  0.2514
 8171TIP3    H146004   5.453   1.539   4.358  0.4293 -0.3267 -0.2482
 8171TIP3    H246005   5.322   1.479   4.309  0.4873  0.5938 -1.6131
 8172TIP3   OH246006   1.871   4.208   6.072  0.3827 -0.1998 -0.5868
 8172TIP3    H146007   1.927   4.233   6.146 -0.8316  2.4480 -0.4643
 8172TIP3    H246008   1.856   4.114   6.085  2.7788 -0.5089  0.6971
 8173TIP3   OH246009   0.042   5.336   4.252  0.1951 -0.0936  0.1876
 8173TIP3    H146010   0.082   5.300   4.330  0.1732  1.4216  0.9432
 8173TIP3    H246011  -0.048   5.356   4.278 -0.8101 -2.4154 -1.1622
 8174TIP3   OH246012   3.358   6.072   5.544 -0.4070  0.3673  0.0779
 8174TIP3    H146013   3.369   6.091   5.637 -0.3592  3.9072 -0.5102
 8174TIP3    H246014   3.289   6.132   5.515 -1.5562 -1.7482 -1.9169
 8175TIP3   OH246015   3.304   3.593   0.572  0.1023 -0.3559  0.4176
 8175TIP3    H146016   3.322   3.507   0.533 -1.3485 -0.9539  0.9905
 8175TIP3    H246017   3.228   3.578   0.628 -1.0059  1.6056 -0.4663
 8176TIP3   OH246018   3.466   2.954   5.973  0.0656 -0.8184 -0.2871
 8176TIP3    H146019   3.430   2.906   6.048 -0.2831 -1.8661 -1.0919
 8176TIP3    H246020   3.520   3.022   6.012 -0.5774 -0.9638  0.9241
 8177TIP3   OH246021   3.773   5.696   0.050 -0.6037 -0.4423  0.1700
 8177TIP3    H146022   3.706   5.683  -0.017  0.0685  0.2270 -0.6589
 8177TIP3    H246023   3.725   5.726   0.127 -1.2843 -0.1938 -0.3408
 8178TIP3   OH246024   6.237   3.058   5.853 -0.1884 -0.3100 -0.3024
 8178TIP3    H146025   6.271   2.987   5.908 -0.6778  1.1657  2.0899
 8178TIP3    H246026   6.147   3.032   5.834 -0.8515  0.2571  1.8026
 8179TIP3   OH246027   5.433   3.794   6.518 -0.1840 -0.1739  0.0510
 8179TIP3    H146028   5.439   3.731   6.590  2.1456  0.6019  0.6233
 8179TIP3    H246029   5.401   3.875   6.559  0.4425  0.0616  0.0828
 8180TIP3   OH246030   0.769   6.332   3.878  0.5946 -0.9932 -0.6921
 8180TIP3    H146031   0.695   6.392   3.890  1.5935  0.1034  0.2783
 8180TIP3    H246032   0.815   6.366   3.801  2.6832  1.2603  1.3719
 8181TIP3   OH246033   2.991   5.387  13.385  0.1346  0.1414  0.6109
 8181TIP3    H146034   2.921   5.325  13.367  0.6404 -0.4221  0.5632
 8181TIP3    H246035   2.949   5.473  13.380 -0.4111 -0.1572 -0.0834
 8182TIP3   OH246036   6.146   5.668  13.920  0.3123  0.2295 -0.1862
 8182TIP3    H146037   6.137   5.724  13.842 -0.9727 -0.5817 -0.6554
 8182TIP3    H246038   6.085   5.705  13.983  1.3815  0.9073  0.4887
 8183TIP3   OH246039   6.336   4.183   1.235  0.1285 -0.1315 -0.2753
 8183TIP3    H146040   6.421   4.155   1.270  0.9378  1.4947 -0.8443
 8183TIP3    H246041   6.358   4.240   1.162 -1.4882 -0.2483 -0.8863
 8184TIP3   OH246042   1.322   5.430   2.828 -0.3126  0.1310  0.2007
 8184TIP3    H146043   1.308   5.436   2.922 -0.6212 -1.4522  0.2850
 8184TIP3    H246044   1.359   5.342   2.815 -0.0568  0.4185 -1.1266
 8185TIP3   OH246045   3.582   3.332   5.051 -0.0986  0.9717 -0.3031
 8185TIP3    H146046   3.513   3.358   5.112  1.0984  0.6104  1.2767
 8185TIP3    H246047   3.574   3.394   4.978 -0.1895  2.8895  1.2463
 8186TIP3   OH246048   1.405   1.125  14.355  0.1224  0.1702 -0.3812
 8186TIP3    H146049   1.420   1.091  14.443  1.3665 -0.8482 -0.9586
 8186TIP3    H246050   1.311   1.142  14.352 -0.1842 -1.1356  0.6931
 8187TIP3   OH246051   5.250   1.536   0.917  0.3071  0.1998  0.2377
 8187TIP3    H146052   5.216   1.565   1.002  0.8675 -0.2932  0.6329
 8187TIP3    H246053   5.332   1.492   0.937 -0.9078 -2.4758 -0.2052
 8188TIP3   OH246054   6.129   4.320  14.575  0.1241  0.2375 -0.1041
 8188TIP3    H146055   6.045   4.363  14.589  0.3059  1.1782 -1.6959
 8188TIP3    H246056   6.107   4.240  14.528 -0.0029 -0.3451  0.9094
 8189TIP3   OH246057   2.578   1.885   1.114  0.4571  0.4937  0.3012
 8189TIP3    H146058   2.511   1.818   1.132 -0.4638  0.6225 -2.2949
 8189TIP3    H246059   2.656   1.852   1.160 -0.1661 -1.9859 -0.2323
 8190TIP3   OH246060   5.221   0.686   1.438 -0.2200  0.1533  0.6075
 8190TIP3    H146061   5.189   0.775   1.428  0.5801  0.2994 -0.9713
 8190TIP3    H246062   5.315   0.695   1.454 -0.2279 -0.3970  1.0208
 8191TIP3   OH246063   0.255   2.121   1.490  0.2005 -0.3751  0.4365
 8191TIP3    H146064   0.320   2.114   1.560  1.0334 -1.0957 -0.3828
 8191TIP3    H246065   0.223   2.032   1.478  0.4931 -0.3611 -0.4948
 8192TIP3   OH246066   2.053   4.234   5.063  0.2684  0.8928  0.4246
 8192TIP3    H146067   2.143   4.235   5.095  0.5615 -1.4066 -0.1060
 8192TIP3    H246068   2.046   4.311   5.007  2.0989  0.7923 -0.0075
 8193TIP3   OH246069   0.254   4.866   4.117 -0.3582  0.6263 -0.4407
 8193TIP3    H146070   0.298   4.934   4.067  1.4718 -0.8744 -0.9854
 8193TIP3    H246071   0.205   4.816   4.051 -0.0574  0.2268 -0.3692
 8194TIP3   OH246072   5.920   1.033   0.961 -0.0135 -0.2651  0.2750
 8194TIP3    H146073   5.936   1.117   1.005  1.0985  0.4081 -1.3060
 8194TIP3    H246074   5.975   0.971   1.008  3.2952  0.9572 -1.6483
 8195TIP3   OH246075   2.754   4.410   2.543  0.0622  0.5712  0.6211
 8195TIP3    H146076   2.675   4.360   2.565  1.7014 -1.6849  1.7547
 8195TIP3    H246077   2.738   4.442   2.454 -1.0084 -2.2227 -0.2887
 8196TIP3   OH246078   2.332   3.682  16.460  0.2886  0.2291  0.4264
 8196TIP3    H146079   2.257   3.641  16.418  0.5052 -0.4132  0.6462
 8196TIP3    H246080   2.297   3.722  16.539  0.0401  0.6482  0.1074
 8197TIP3   OH246081   1.119   5.047  16.276 -0.0412  0.3118  0.3695
 8197TIP3    H146082   1.195   4.998  16.306  0.3294 -0.4583 -1.6497
 8197TIP3    H246083   1.047   4.985  16.281 -0.2240  0.5517  0.7770
 8198TIP3   OH246084   5.655   5.903  16.697  0.3457 -0.5621  0.3114
 8198TIP3    H146085   5.746   5.918  16.673  0.0489  0.5519 -0.1880
 8198TIP3    H246086   5.646   5.942  16.783 -0.1437  1.2541 -0.5093
 8199TIP3   OH246087   5.317   4.699  15.353 -0.5044  0.0712  0.0726
 8199TIP3    H146088   5.281   4.617  15.388 -0.3525  0.1101  0.3263
 8199TIP3    H246089   5.309   4.690  15.258 -2.8941  0.8611  0.1442
 8200TIP3   OH246090   1.790   2.812   4.494 -0.6363  0.1695 -0.3882
 8200TIP3    H146091   1.810   2.867   4.418  0.7612 -0.3865 -0.4529
 8200TIP3    H246092   1.694   2.806   4.495 -0.7756  1.8494 -0.9007
 8201TIP3   OH246093   5.604   2.625  16.738 -0.5212  0.2465 -0.0666
 8201TIP3    H146094   5.601   2.710  16.693  0.5893  0.8385  0.9227
 8201TIP3    H246095   5.674   2.635  16.802 -0.9002 -1.1728  0.5920
 8202TIP3   OH246096   0.671   5.410  15.752  0.6085  0.5656  0.0149
 8202TIP3    H146097   0.588   5.380  15.789  0.4546  0.1957 -0.6136
 8202TIP3    H246098   0.660   5.401  15.658  1.6702 -0.2773 -0.0459
 8203TIP3   OH246099   3.592   6.379   5.474  0.3664  0.1297  0.1801
 8203TIP3    H146100   3.508   6.395   5.519  0.0136 -0.3547 -0.2895
 8203TIP3    H246101   3.647   6.340   5.542  0.3942  0.9432  0.6369
 8204TIP3   OH246102   6.081   0.911  14.268 -0.0517 -0.4354  0.1996
 8204TIP3    H146103   6.036   0.827  14.257  0.5524 -0.4816 -2.9045
 8204TIP3    H246104   6.014   0.970  14.304 -1.4930 -1.4279 -0.7513
 8205TIP3   OH246105   3.411   6.816  12.859  0.1336 -0.1383  0.5900
 8205TIP3    H146106   3.490   6.808  12.806 -0.1232  1.0734 -0.0119
 8205TIP3    H246107   3.390   6.909  12.857 -1.6837 -0.5122  0.1817
 8206TIP3   OH246108   3.299   4.069  14.735 -0.4204  0.5169  0.2356
 8206TIP3    H146109   3.345   4.065  14.650  0.7930  0.9231  0.8432
 8206TIP3    H246110   3.319   3.986  14.777 -0.7221  0.4660  0.2798
 8207TIP3   OH246111   3.146   0.660   3.305  0.0558  0.1051 -0.0704
 8207TIP3    H146112   3.196   0.633   3.381 -1.0774  0.5695  0.8626
 8207TIP3    H246113   3.134   0.754   3.316 -1.5964 -0.0959  0.0967
 8208TIP3   OH246114   3.440   3.794   0.830 -0.0417  0.3129 -0.2643
 8208TIP3    H146115   3.418   3.802   0.923  2.5361  2.1641  0.2844
 8208TIP3    H246116   3.454   3.701   0.816 -2.1103 -0.2024  0.7411
 8209TIP3   OH246117   4.119   2.166   2.891 -0.0825 -0.2119  0.3251
 8209TIP3    H146118   4.172   2.194   2.817 -0.6489 -0.3723 -0.1479
 8209TIP3    H246119   4.178   2.110   2.942 -0.0869 -1.2367 -0.7407
 8210TIP3   OH246120   1.050   6.269  15.979  0.1901 -0.3086 -0.0123
 8210TIP3    H146121   1.131   6.281  16.028  0.4220 -1.9411  0.0633
 8210TIP3    H246122   1.061   6.184  15.936 -1.1768 -0.2055 -0.6030
 8211TIP3   OH246123   3.797   2.767  12.742  0.1257  0.2620  1.2598
 8211TIP3    H146124   3.784   2.675  12.717 -0.7307  0.3557  1.3185
 8211TIP3    H246125   3.880   2.792  12.702 -0.0108 -0.3144  0.6003
 8212TIP3   OH246126   0.192   0.637  16.882 -0.2099 -0.0221 -0.1901
 8212TIP3    H146127   0.186   0.604  16.972  0.5834 -0.6881 -0.3641
 8212TIP3    H246128   0.102   0.659  16.858 -0.7784 -1.9034  0.0310
 8213TIP3   OH246129   6.073   2.538  14.405 -0.3655  0.3921 -0.2485
 8213TIP3    H146130   6.128   2.608  14.440  1.5050 -0.6573 -0.9078
 8213TIP3    H246131   6.057   2.480  14.479  0.4197  0.0957 -0.3089
 8214TIP3   OH246132   5.994   2.122   1.191 -0.5666  0.5650 -0.1078
 8214TIP3    H146133   6.034   2.209   1.192  0.5845  0.0698  1.1803
 8214TIP3    H246134   5.928   2.126   1.123 -0.4814  2.4286 -0.1223
 8215TIP3   OH246135   6.580   4.090  15.270  0.3680  0.6518  0.0322
 8215TIP3    H146136   6.608   4.107  15.180 -0.2653 -0.8824 -0.4890
 8215TIP3    H246137   6.494   4.048  15.261 -0.6365  2.2304  1.4510
 8216TIP3   OH246138   4.124   4.096   3.966  0.6210 -0.1605  0.4383
 8216TIP3    H146139   4.085   4.051   3.891 -0.1349  0.7209  0.2769
 8216TIP3    H246140   4.149   4.026   4.026  0.1691 -0.8251 -0.1316
 8217TIP3   OH246141   6.521   5.161   4.841  0.5053 -0.0849 -0.5510
 8217TIP3    H146142   6.473   5.086   4.804  0.3475  0.3870 -1.3203
 8217TIP3    H246143   6.468   5.188   4.917  1.3285 -1.6555  0.6558
 8218TIP3   OH246144   5.349   5.694  11.911  0.1211  0.3345  0.0218
 8218TIP3    H146145   5.259   5.676  11.941  1.3293 -0.7301  3.5053
 8218TIP3    H246146   5.383   5.608  11.886 -0.0379  0.8635 -2.1715
 8219TIP3   OH246147   3.685   6.316   5.744  0.0622  0.1983  0.5340
 8219TIP3    H146148   3.649   6.249   5.801  0.8055 -0.9139 -0.2580
 8219TIP3    H246149   3.773   6.332   5.778  0.9929 -1.3666 -0.9327
 8220TIP3   OH246150   4.644   0.542  13.445 -0.2592 -0.4142 -0.5948
 8220TIP3    H146151   4.603   0.583  13.369 -0.3681 -1.6790 -1.2453
 8220TIP3    H246152   4.655   0.450  13.420  1.9147 -0.3711 -0.0001
 8221TIP3   OH246153   3.297   1.093   3.117 -0.0872  0.3622  0.1414
 8221TIP3    H146154   3.312   1.058   3.029  0.1119  0.6234  0.0719
 8221TIP3    H246155   3.354   1.170   3.122  0.8754 -0.3817  0.9497
 8222TIP3   OH246156   2.510   4.488  13.250 -0.2161  0.4563 -0.3256
 8222TIP3    H146157   2.546   4.414  13.298 -0.4583  0.0543 -0.7479
 8222TIP3    H246158   2.470   4.544  13.317  0.8963  0.7503  0.1148
 8223TIP3   OH246159   4.911   1.659   6.085  0.3392  0.2281  0.3754
 8223TIP3    H146160   4.945   1.653   6.174 -0.2911  0.0851  0.6152
 8223TIP3    H246161   4.894   1.752   6.072 -0.3224  0.1581  0.7013
 8224TIP3   OH246162   0.902   3.602   2.024  0.4042  0.4842  0.3400
 8224TIP3    H146163   0.843   3.527   2.035 -1.3315  1.7837  0.3595
 8224TIP3    H246164   0.910   3.638   2.112 -0.3408  1.4289  0.0321
 8225TIP3   OH246165   6.792   6.463  10.580 -0.0961 -0.0508 -0.4051
 8225TIP3    H146166   6.734   6.512  10.638 -1.4846 -1.8043 -0.2174
 8225TIP3    H246167   6.811   6.383  10.628  3.0066  0.6766 -0.2379
 8226TIP3   OH246168   4.455   5.329  16.869 -0.3521  0.3453 -0.1806
 8226TIP3    H146169   4.525   5.277  16.909 -0.3710  0.1551 -0.3915
 8226TIP3    H246170   4.389   5.338  16.938 -1.0608 -1.2519 -0.5962
 8227TIP3   OH246171   6.001   3.259  15.819  0.2093  0.6289  0.3743
 8227TIP3    H146172   6.047   3.180  15.792  0.1161 -0.1604  2.3842
 8227TIP3    H246173   6.070   3.317  15.852  0.0340  0.5041  0.9539
 8228TIP3   OH246174   6.576   5.546  15.833 -0.4899 -0.1003 -0.1303
 8228TIP3    H146175   6.666   5.577  15.822 -0.0127 -0.7750  1.6052
 8228TIP3    H246176   6.571   5.517  15.924 -1.6041 -2.8202 -0.9747
 8229TIP3   OH246177   0.023   3.830   5.958 -0.4001  0.2934 -0.0449
 8229TIP3    H146178   0.001   3.901   6.019  0.0648  0.0186  0.4423
 8229TIP3    H246179   0.085   3.870   5.897 -1.6956  0.8830 -1.0211
 8230TIP3   OH246180   2.139   3.131   2.355 -0.6549  0.2780 -0.3936
 8230TIP3    H146181   2.227   3.145   2.322 -0.4181 -1.1339 -0.4256
 8230TIP3    H246182   2.086   3.114   2.276 -0.8371  0.5560 -0.3317
 8231TIP3   OH246183   2.842   3.271  14.639 -0.2752 -0.2060  0.6484
 8231TIP3    H146184   2.844   3.349  14.583  0.9066 -0.9207 -0.3566
 8231TIP3    H246185   2.769   3.219  14.605  1.5622 -1.5171 -1.5660
 8232TIP3   OH246186   2.877   4.491  15.300 -0.1341 -0.3871  0.0153
 8232TIP3    H146187   2.967   4.479  15.269 -0.0552 -0.8491  0.4205
 8232TIP3    H246188   2.887   4.540  15.382 -0.3114  0.3879 -0.4195
 8233TIP3   OH246189   6.148   2.928   0.253  0.3080 -0.1354 -0.2444
 8233TIP3    H146190   6.202   2.855   0.224  0.1291 -0.4159  0.1308
 8233TIP3    H246191   6.169   2.999   0.192 -1.6061 -1.3008 -2.3870
 8234TIP3   OH246192   2.253   5.289  15.453  0.6528 -0.1363 -0.2041
 8234TIP3    H146193   2.236   5.355  15.386  0.5093  1.2699  1.1773
 8234TIP3    H246194   2.334   5.247  15.425  0.0118 -0.3794 -1.8335
 8235TIP3   OH246195   0.779   4.936  12.013 -0.1615 -0.0022 -0.0318
 8235TIP3    H146196   0.741   5.008  11.963  0.9325 -0.0253 -0.9210
 8235TIP3    H246197   0.871   4.960  12.024  0.5390 -1.8276 -1.4322
 8236TIP3   OH246198   4.286   0.844  14.757  0.0684  0.0353 -0.3665
 8236TIP3    H146199   4.369   0.885  14.733 -0.8382  0.9198 -2.1630
 8236TIP3    H246200   4.292   0.833  14.852  1.1840  2.4944 -0.0647
 8237TIP3   OH246201   5.115   3.916  10.854  0.2214 -0.1439  0.1606
 8237TIP3    H146202   5.163   3.999  10.850  1.1321 -0.5981  1.0553
 8237TIP3    H246203   5.063   3.914  10.774  0.4327  1.1414 -0.0254
 8238TIP3   OH246204   4.005   4.339   4.042  0.4218  0.1455 -0.3240
 8238TIP3    H146205   4.037   4.255   4.010 -0.3193 -0.3472  0.2136
 8238TIP3    H246206   3.960   4.319   4.123  1.4508  1.2577  0.5617
 8239TIP3   OH246207   2.054   3.215   5.385 -0.0514  0.4763  0.0370
 8239TIP3    H146208   1.994   3.207   5.311  0.4093 -1.8689 -0.1552
 8239TIP3    H246209   2.112   3.287   5.362  0.3859 -0.5136 -2.1444
 8240TIP3   OH246210   4.247   5.350  13.328 -0.1727 -0.2846  0.0129
 8240TIP3    H146211   4.206   5.351  13.415 -0.1178  1.0348  0.0474
 8240TIP3    H246212   4.173   5.349  13.267 -0.2167 -0.8507  0.0757
 8241TIP3   OH246213   5.839   0.513   6.654 -0.9760 -0.0337 -0.2378
 8241TIP3    H146214   5.915   0.533   6.707 -0.4804 -1.9512 -0.1546
 8241TIP3    H246215   5.764   0.540   6.707 -0.3886  2.4492 -0.5807
 8242TIP3   OH246216   4.187   6.467  16.695  0.9100 -0.1575 -0.4870
 8242TIP3    H146217   4.213   6.444  16.606  0.0089 -0.5047 -0.6678
 8242TIP3    H246218   4.269   6.465  16.745  1.3836 -0.2173 -1.2474
 8243TIP3   OH246219   0.097   5.813  14.079  0.0364 -0.0162 -0.0471
 8243TIP3    H146220   0.169   5.841  14.136 -0.7289  0.2989  0.7812
 8243TIP3    H246221   0.087   5.884  14.017 -0.5403  0.6303  0.7703
 8244TIP3   OH246222   3.621   2.874   3.390  0.6237 -0.6406 -0.0983
 8244TIP3    H146223   3.660   2.817   3.456  1.4357 -0.4805 -0.4388
 8244TIP3    H246224   3.661   2.959   3.405 -0.8385 -0.0364  0.6438
 8245TIP3   OH246225   5.007   0.558  15.221  0.3393  0.3455  0.4437
 8245TIP3    H146226   4.943   0.590  15.284  2.0304  2.2923  1.3062
 8245TIP3    H246227   5.053   0.487  15.265  0.8561  1.0541  1.0794
 8246TIP3   OH246228   3.033   0.079  10.076  0.5721  0.1571  0.1679
 8246TIP3    H146229   2.968   0.125  10.130 -0.1590  0.3408 -0.8526
 8246TIP3    H246230   3.074   0.016  10.136 -1.5864 -1.0248  0.4800
 8247TIP3   OH246231   2.807   5.699   0.519  0.3780  0.9426  0.4203
 8247TIP3    H146232   2.758   5.618   0.506  1.9905 -0.1431  0.7680
 8247TIP3    H246233   2.884   5.672   0.570  0.7236  2.7801  0.9361
 8248TIP3   OH246234   4.859   1.639   4.511 -0.1513 -0.5234 -0.7149
 8248TIP3    H146235   4.804   1.619   4.586 -0.8794  0.0621 -1.0759
 8248TIP3    H246236   4.848   1.564   4.452  2.8603 -2.5410  1.0344
 8249TIP3   OH246237   1.256   4.710   3.630  0.2885 -0.0270 -0.1532
 8249TIP3    H146238   1.197   4.743   3.698 -1.0171 -1.9384 -0.2726
 8249TIP3    H246239   1.343   4.734   3.660 -0.3526  0.3168  1.5493
 8250TIP3   OH246240   1.539   0.038   4.670 -0.1275  0.9649  0.7815
 8250TIP3    H146241   1.468  -0.024   4.653  0.3717  0.5236  0.2575
 8250TIP3    H246242   1.575   0.010   4.754 -1.2628  1.8654  1.5938
 8251TIP3   OH246243   6.231   1.450   5.917 -0.2619  0.1089 -0.2666
 8251TIP3    H146244   6.320   1.458   5.953  0.0376  1.8152 -1.2667
 8251TIP3    H246245   6.185   1.528   5.949 -0.9308  0.0300 -1.0055
 8252TIP3   OH246246   5.481   1.228   1.325  0.5434 -0.1739 -0.0590
 8252TIP3    H146247   5.453   1.245   1.415 -0.9648 -0.4185 -0.4525
 8252TIP3    H246248   5.437   1.296   1.274  0.7427 -0.5222 -0.7017
 8253TIP3   OH246249   5.956   2.702   4.848  0.2070  0.1892 -0.0525
 8253TIP3    H146250   5.979   2.773   4.788 -1.8705 -0.3046 -1.5324
 8253TIP3    H246251   5.969   2.739   4.936  0.0022  2.0971 -0.7921
 8254TIP3   OH246252   6.630   1.245  14.852 -0.0675 -0.4548 -0.5262
 8254TIP3    H146253   6.652   1.325  14.901  1.9233 -2.6599  2.5430
 8254TIP3    H246254   6.555   1.270  14.798 -0.8329  2.9282  1.7816
 8255TIP3   OH246255   1.176   6.706  16.318  0.0127  0.1415 -0.0986
 8255TIP3    H146256   1.226   6.769  16.370 -0.0838 -0.8494  1.2636
 8255TIP3    H246257   1.090   6.748  16.306  0.2069  0.6093  0.1050
 8256TIP3   OH246258   0.309   1.918   4.547 -0.3185  0.1511  0.2547
 8256TIP3    H146259   0.391   1.921   4.498 -0.1642 -1.4336  0.3588
 8256TIP3    H246260   0.244   1.955   4.488  0.1898 -0.0847 -0.4637
 8257TIP3   OH246261   1.682   5.141   0.792 -0.8248  0.0260 -0.5269
 8257TIP3    H146262   1.638   5.075   0.737 -1.0772 -1.7915  1.6615
 8257TIP3    H246263   1.613   5.205   0.812 -1.0219  0.0959 -1.4112
 8258TIP3   OH246264   5.665   2.152  14.340 -0.8513 -0.2349 -0.7411
 8258TIP3    H146265   5.643   2.205  14.263 -0.7763 -1.7952 -1.8878
 8258TIP3    H246266   5.759   2.163  14.351 -1.0997  1.2059  0.0925
 8259TIP3   OH246267   1.845   2.653  16.169  0.5622 -0.4061  0.4960
 8259TIP3    H146268   1.876   2.581  16.223 -0.0821 -0.5893  0.6269
 8259TIP3    H246269   1.892   2.730  16.202 -2.2406  0.1642  3.6590
 8260TIP3   OH246270   5.997   2.772  16.763  0.6068  0.5529  0.5585
 8260TIP3    H146271   5.986   2.855  16.810 -0.8131  1.6181 -1.4953
 8260TIP3    H246272   5.994   2.796  16.671  2.6228 -1.5302 -0.1514
 8261TIP3   OH246273   2.999   4.395   2.701 -0.3593 -0.1527  0.8530
 8261TIP3    H146274   2.919   4.377   2.651  0.6793 -1.2417 -0.4975
 8261TIP3    H246275   3.047   4.312   2.698  0.3117  0.1371  2.6280
 8262TIP3   OH246276   2.974   5.045   0.263  0.8780  0.1264 -0.5845
 8262TIP3    H146277   2.957   5.116   0.200 -2.2614 -0.2094 -0.2859
 8262TIP3    H246278   3.026   4.982   0.214  3.3972  2.3514 -1.0032
 8263TIP3   OH246279   3.503   2.571  16.062 -0.3439  0.9401 -0.1076
 8263TIP3    H146280   3.476   2.631  16.132  0.2125 -0.2604  1.2038
 8263TIP3    H246281   3.468   2.487  16.089 -0.2668  0.4880 -1.3957
 8264TIP3   OH246282   5.301   1.018  12.719  0.5343  0.1735 -0.7005
 8264TIP3    H146283   5.286   1.089  12.656 -0.2827  0.5174 -0.1320
 8264TIP3    H246284   5.289   1.059  12.805  1.2708 -0.3754 -0.3192
 8265TIP3   OH246285   0.957   4.472   0.877  0.5877  0.2049 -0.5172
 8265TIP3    H146286   0.932   4.380   0.885 -0.3554  0.5503  0.7318
 8265TIP3    H246287   1.052   4.472   0.892  0.4263 -0.4434  0.6124
 8266TIP3   OH246288   5.901   6.801   0.957 -0.0189  0.4225  0.0490
 8266TIP3    H146289   5.868   6.810   1.046  0.6889  0.6253  0.2969
 8266TIP3    H246290   5.995   6.813   0.965 -0.1123  2.2313 -0.9717
 8267TIP3   OH246291   3.156   4.848   0.110  0.2174 -0.7791 -0.2644
 8267TIP3    H146292   3.226   4.828   0.048 -0.3888 -1.3839 -0.7597
 8267TIP3    H246293   3.075   4.843   0.059 -0.0910  1.8634 -0.1635
 8268TIP3   OH246294   6.298   5.382   1.281 -0.2110 -0.3303 -0.2106
 8268TIP3    H146295   6.378   5.398   1.331 -0.8321  1.1555  0.3617
 8268TIP3    H246296   6.236   5.348   1.346 -0.1214 -1.2830 -0.6099
 8269TIP3   OH246297   0.032   1.712   2.568  0.0564  0.1656 -0.4177
 8269TIP3    H146298  -0.021   1.633   2.581  0.6184 -0.1149  0.2094
 8269TIP3    H246299   0.117   1.690   2.605  0.5910  0.6502 -1.3374
 8270TIP3   OH246300   2.252   4.702   6.297 -0.4632 -0.0498  0.1511
 8270TIP3    H146301   2.342   4.726   6.271 -0.4120 -1.0298 -0.6235
 8270TIP3    H246302   2.218   4.654   6.222 -1.8592  0.8139  0.2096
 8271TIP3   OH246303   0.136   0.469   3.611 -0.6195 -0.3726  0.1186
 8271TIP3    H146304   0.141   0.496   3.703  2.2896  0.1332 -0.0683
 8271TIP3    H246305   0.204   0.402   3.603 -2.6504 -2.4234 -1.1258
 8272TIP3   OH246306   2.001   2.779   0.123  0.0786 -0.1187  0.0152
 8272TIP3    H146307   2.076   2.816   0.171  0.8656  0.0547 -1.2781
 8272TIP3    H246308   2.009   2.818   0.036 -0.3943 -1.6132 -0.7107
 8273TIP3   OH246309   3.217   3.292   5.081 -0.5354 -0.4376  0.5874
 8273TIP3    H146310   3.156   3.328   5.017  0.4363  0.5524  0.1802
 8273TIP3    H246311   3.163   3.237   5.137 -2.2112  1.9620  1.5035
 8274TIP3   OH246312   1.025   3.219  13.595 -0.0825  0.6785 -0.6130
 8274TIP3    H146313   1.049   3.126  13.587  1.6980  1.2400 -2.4213
 8274TIP3    H246314   1.104   3.261  13.626 -0.5929  1.7497 -0.7233
 8275TIP3   OH246315   2.552   1.357   5.615  0.2798  0.5848  0.2882
 8275TIP3    H146316   2.610   1.283   5.634 -0.8492 -0.6099 -0.7098
 8275TIP3    H246317   2.563   1.416   5.690  2.4366  0.2157  0.3255
 8276TIP3   OH246318   6.165   4.246   1.437 -0.7462  0.7847 -0.1491
 8276TIP3    H146319   6.203   4.186   1.501 -1.1336 -0.9925 -1.4936
 8276TIP3    H246320   6.221   4.235   1.360 -0.5273  2.5701 -0.2794
 8277TIP3   OH246321   2.984   5.007  15.330  0.2721  0.3336 -0.1320
 8277TIP3    H146322   2.925   5.070  15.288  0.1966 -0.0296 -0.5716
 8277TIP3    H246323   2.939   4.983  15.411  0.3808  0.9738  0.1230
 8278TIP3   OH246324   4.055   3.191  11.057  0.2156 -0.2130 -0.6698
 8278TIP3    H146325   4.044   3.101  11.025  1.4465  0.1213 -2.1797
 8278TIP3    H246326   4.136   3.187  11.109  0.9236  0.2157 -1.6980
 8279TIP3   OH246327   0.689   5.249  12.312 -0.6713  0.0531 -0.4363
 8279TIP3    H146328   0.627   5.192  12.267  0.9120 -0.8350 -1.5927
 8279TIP3    H246329   0.723   5.306  12.242 -0.7857  1.1147  0.3417
 8280TIP3   OH246330   3.868   0.190   1.648  0.1335  0.0742 -0.4022
 8280TIP3    H146331   3.852   0.208   1.555  0.2646  1.4457 -0.1833
 8280TIP3    H246332   3.962   0.171   1.653  0.5626  2.0350 -0.2928
 8281TIP3   OH246333   3.895   3.789  15.888  0.2021 -0.1330 -0.1141
 8281TIP3    H146334   3.883   3.819  15.797 -0.0672 -0.0774 -0.0617
 8281TIP3    H246335   3.961   3.848  15.924  0.2008 -0.0597 -0.2301
 8282TIP3   OH246336   5.315   5.089  15.035 -0.2629 -0.1799  0.3118
 8282TIP3    H146337   5.360   5.122  14.957 -0.1606 -0.9608  0.0287
 8282TIP3    H246338   5.295   4.998  15.014 -0.2695 -0.3875  1.1837
 8283TIP3   OH246339   1.114   2.970   4.606 -0.3831  0.1385 -0.1037
 8283TIP3    H146340   1.070   3.041   4.654 -2.4274 -1.6994  0.9522
 8283TIP3    H246341   1.088   2.982   4.515  1.5178  2.2245 -0.4751
 8284TIP3   OH246342   1.819   2.426   4.139 -0.6288  0.2543  0.1081
 8284TIP3    H146343   1.771   2.478   4.204 -0.9347  2.6881 -1.9176
 8284TIP3    H246344   1.901   2.402   4.183 -1.6857 -0.0288  2.0584
 8285TIP3   OH246345   5.873   4.407  16.551 -0.1490 -0.0499  0.3327
 8285TIP3    H146346   5.925   4.327  16.560  0.9544  0.5108 -0.7999
 8285TIP3    H246347   5.900   4.462  16.624 -1.3720 -0.9245  1.4905
 8286TIP3   OH246348   3.321   1.793  11.546  0.4032  0.2501  0.3132
 8286TIP3    H146349   3.342   1.700  11.546 -0.2446  0.0886  1.3633
 8286TIP3    H246350   3.403   1.837  11.568  0.9137 -0.0054 -1.0213
 8287TIP3   OH246351   1.322   3.126  13.031  0.3672  0.2195  0.4595
 8287TIP3    H146352   1.314   3.210  12.986 -1.3111 -0.9630 -1.5997
 8287TIP3    H246353   1.272   3.138  13.112  0.4481  1.3113  0.3638
 8288TIP3   OH246354   3.457   3.078  12.804  0.9352  0.0200  0.3747
 8288TIP3    H146355   3.535   3.041  12.761  1.8723  0.5166  1.5638
 8288TIP3    H246356   3.483   3.167  12.826  0.0195  0.1907  0.7823
 8289TIP3   OH246357   2.813   6.386  16.383 -0.2922  0.5450  0.4718
 8289TIP3    H146358   2.721   6.364  16.398 -0.1906 -0.4803 -0.3843
 8289TIP3    H246359   2.840   6.427  16.465 -1.2497 -0.0038  1.0854
 8290TIP3   OH246360   1.120   4.025  16.854 -0.2119  0.3577  0.0309
 8290TIP3    H146361   1.070   4.099  16.820  0.6812  1.0584  0.2117
 8290TIP3    H246362   1.107   3.955  16.790  0.7887  1.3952 -1.3532
 8291TIP3   OH246363   4.573   2.439  17.253  0.9126 -0.2650 -0.1996
 8291TIP3    H146364   4.622   2.500  17.309 -0.3416  0.7253 -0.1394
 8291TIP3    H246365   4.481   2.456  17.274  0.4012  0.0167 -2.4143
 8292TIP3   OH246366   3.000   5.411  15.378  0.5208  0.3773  0.4698
 8292TIP3    H146367   3.060   5.346  15.342 -1.4046  0.3946 -3.2812
 8292TIP3    H246368   2.935   5.359  15.427  0.0477 -0.4281 -0.9299
 8293TIP3   OH246369   4.471   4.360  16.962  0.1362  0.1815 -0.4794
 8293TIP3    H146370   4.529   4.289  16.935  0.2092 -0.3929  1.0967
 8293TIP3    H246371   4.525   4.415  17.019  0.0501  1.4713 -1.5960
 8294TIP3   OH246372   2.354   0.092   1.690 -0.4743  0.2974  0.2543
 8294TIP3    H146373   2.382   0.058   1.775 -1.1136  2.2817  1.3014
 8294TIP3    H246374   2.436   0.110   1.644 -0.1221 -0.2752  0.6368
 8295TIP3   OH246375   3.751   0.062  13.377  0.2904 -1.0726  0.3603
 8295TIP3    H146376   3.669   0.110  13.368  1.8324  1.7419  0.2486
 8295TIP3    H246377   3.795   0.072  13.293  1.4047 -1.2258  0.8983
 8296TIP3   OH246378   0.833   1.972  11.183 -0.2155 -0.3942 -0.4660
 8296TIP3    H146379   0.922   1.979  11.146 -0.4468  0.7575 -0.8266
 8296TIP3    H246380   0.779   1.945  11.109 -0.5001  0.9039 -0.7594
 8297TIP3   OH246381   5.818   5.505   5.665 -0.1786 -0.0888  0.2355
 8297TIP3    H146382   5.723   5.501   5.650 -0.2387  1.6580 -0.0308
 8297TIP3    H246383   5.826   5.520   5.760 -0.1735 -0.1298  0.2415
 8298TIP3   OH246384   3.597   5.040   5.123  0.2725  0.1750 -0.4615
 8298TIP3    H146385   3.598   5.002   5.035 -0.0191 -0.7315 -0.0842
 8298TIP3    H246386   3.635   4.972   5.179 -0.3947  0.3763  0.2514
 8299TIP3   OH246387   6.777   5.938  15.806 -0.0951  0.2105 -0.3482
 8299TIP3    H146388   6.740   6.009  15.753 -0.9160 -0.7626 -1.0998
 8299TIP3    H246389   6.749   5.958  15.896 -0.6978  0.5860 -0.6200
 8300TIP3   OH246390   0.406   5.766   5.885  0.8029 -0.3200  0.3813
 8300TIP3    H146391   0.368   5.803   5.964 -1.2796 -5.5167  2.2704
 8300TIP3    H246392   0.497   5.746   5.910  1.5423  1.9519 -0.2315
 8301TIP3   OH246393   3.263   1.321   3.469 -0.7214 -0.2618 -0.1569
 8301TIP3    H146394   3.235   1.325   3.378 -3.0965  0.8249  0.5316
 8301TIP3    H246395   3.190   1.277   3.514  0.1242 -0.2287  1.3110
 8302TIP3   OH246396   5.134   6.682  12.116  0.2329 -0.2254  0.3002
 8302TIP3    H146397   5.223   6.716  12.109  0.0732  0.3799  1.0798
 8302TIP3    H246398   5.080   6.744  12.066  0.4663 -1.6750 -1.9301
 8303TIP3   OH246399   6.310   4.244  16.566 -0.4982 -0.2915  0.2457
 8303TIP3    H146400   6.371   4.253  16.492  1.4422  1.2032  1.9194
 8303TIP3    H246401   6.293   4.150  16.571  1.7970 -0.8099 -0.2675
 8304TIP3   OH246402   1.855   5.604  16.458 -0.7417 -0.1852  0.4687
 8304TIP3    H146403   1.919   5.675  16.455 -1.7199  0.6924 -0.3589
 8304TIP3    H246404   1.893   5.540  16.518  0.2578  0.9472  1.0848
 8305TIP3   OH246405   3.098   5.033   4.797 -0.7527  0.0097 -0.1432
 8305TIP3    H146406   3.105   5.009   4.890  0.2774  0.5508 -0.0744
 8305TIP3    H246407   3.165   4.981   4.753 -1.5591 -0.6134 -0.6842
 8306TIP3   OH246408   5.864   3.995   2.225 -0.3017 -0.1334  0.0699
 8306TIP3    H146409   5.779   4.035   2.208 -0.2194 -0.3363 -0.8829
 8306TIP3    H246410   5.898   3.974   2.138 -0.8210 -3.2786  0.4881
 8307TIP3   OH246411   2.461   1.008  10.993 -0.4667  0.4613  0.0907
 8307TIP3    H146412   2.480   1.044  10.907  0.5564 -0.7009 -0.2044
 8307TIP3    H246413   2.437   0.916  10.976 -2.3150  0.7400  0.8683
 8308TIP3   OH246414   4.731   0.792   0.436 -0.1043  0.3602  0.4122
 8308TIP3    H146415   4.819   0.767   0.407 -0.6668  0.4780 -1.5664
 8308TIP3    H246416   4.717   0.878   0.398 -1.0774  0.3376  0.6867
 8309TIP3   OH246417   2.546   6.242   1.736 -0.0522  0.4569  0.3948
 8309TIP3    H146418   2.560   6.336   1.724 -0.2576  0.8139  2.5940
 8309TIP3    H246419   2.457   6.227   1.703  0.3728  0.8027 -0.9564
 8310TIP3   OH246420   4.902   4.982  15.536  0.0209 -0.0374  0.0850
 8310TIP3    H146421   4.982   5.015  15.496  0.3668  0.8404  1.4362
 8310TIP3    H246422   4.856   4.937  15.465  0.9595  0.7981 -1.0809
 8311TIP3   OH246423   5.770   2.965  15.832  0.0524 -0.0029  0.8200
 8311TIP3    H146424   5.822   2.989  15.755 -0.5010 -0.9723  0.1257
 8311TIP3    H246425   5.690   3.017  15.825 -0.0273 -0.1416  0.7074
 8312TIP3   OH246426   4.311   5.270  15.665  0.4003 -0.1795 -0.3956
 8312TIP3    H146427   4.298   5.359  15.699  2.0304 -0.0578 -0.0309
 8312TIP3    H246428   4.222   5.239  15.645 -0.5421  0.2920  2.5998
 8313TIP3   OH246429   6.654   0.514  10.652  0.0803 -0.2205 -0.3185
 8313TIP3    H146430   6.620   0.443  10.598 -0.2244 -0.2080 -0.1458
 8313TIP3    H246431   6.719   0.557  10.597  0.1198 -0.5092 -0.4960
 8314TIP3   OH246432   5.148   2.269  14.903  0.4125  0.5153  0.0949
 8314TIP3    H146433   5.139   2.186  14.950 -1.2057  0.5322 -0.1018
 8314TIP3    H246434   5.161   2.243  14.812 -1.2342  0.4378 -0.1456
 8315TIP3   OH246435   4.514   5.988   1.377  0.1871  0.2491 -0.4533
 8315TIP3    H146436   4.550   5.910   1.333  0.9279  1.1692 -1.5449
 8315TIP3    H246437   4.505   5.962   1.468  1.1839 -0.8737 -0.6504
 8316TIP3   OH246438   5.590   1.846  17.044 -0.0603  0.6071 -0.0425
 8316TIP3    H146439   5.641   1.783  17.095 -0.4234 -0.5311 -1.0277
 8316TIP3    H246440   5.560   1.911  17.108 -1.4367 -1.3629  1.4450
 8317TIP3   OH246441   1.027   6.697  14.801 -0.5280 -0.2035  0.3152
 8317TIP3    H146442   1.075   6.758  14.859 -0.6621  0.7355 -0.5299
 8317TIP3    H246443   0.942   6.738  14.790 -0.8967 -0.9546  0.3470
 8318TIP3   OH246444   3.334   4.880   2.841  0.2131  1.1508 -0.5094
 8318TIP3    H146445   3.289   4.812   2.891  0.6153  1.1817 -0.1064
 8318TIP3    H246446   3.319   4.856   2.749  1.6975 -0.3741 -0.3801
 8319TIP3   OH246447   2.412   1.128  15.635  0.2339  0.7711 -0.2794
 8319TIP3    H146448   2.376   1.042  15.616  0.0660  0.3699  1.6336
 8319TIP3    H246449   2.337   1.187  15.632  0.2454  0.7593 -0.9759
 8320TIP3   OH246450   1.126   2.288  12.354  0.0517 -0.3508  0.1729
 8320TIP3    H146451   1.072   2.330  12.287 -0.5950 -0.9520  0.2942
 8320TIP3    H246452   1.080   2.206  12.373  1.1018 -0.9603  0.1661
 8321TIP3   OH246453   6.642   1.390  11.281 -0.2575 -0.3231 -0.2372
 8321TIP3    H146454   6.635   1.467  11.224  1.6921  0.9204  1.0789
 8321TIP3    H246455   6.709   1.336  11.239  0.6357  0.2368  0.4187
 8322TIP3   OH246456   6.110   3.378   3.128 -0.0470 -0.0498  0.0027
 8322TIP3    H146457   6.048   3.305   3.135 -1.1696  0.7725 -0.9196
 8322TIP3    H246458   6.086   3.422   3.046  0.5224  1.4350  0.6070
 8323TIP3   OH246459   0.420   5.485  15.048 -0.2714  0.2888 -0.3907
 8323TIP3    H146460   0.380   5.539  15.116 -1.2678 -1.2597  0.3040
 8323TIP3    H246461   0.496   5.536  15.018  0.0370  1.1411  1.6935
 8324TIP3   OH246462   0.837   3.556   6.812  0.1524 -0.2243 -0.3673
 8324TIP3    H146463   0.811   3.466   6.835  0.1524  0.1186  1.0321
 8324TIP3    H246464   0.913   3.545   6.754  0.8458 -1.1151  0.6802
 8325TIP3   OH246465   6.308   3.055  11.461 -0.5614  0.1159  0.8448
 8325TIP3    H146466   6.349   3.126  11.411 -1.1404  0.0656  0.2930
 8325TIP3    H246467   6.347   3.062  11.548 -0.1860  0.7479  0.6322
 8326TIP3   OH246468   5.744   1.692   0.187 -0.3857 -0.0729 -0.3498
 8326TIP3    H146469   5.815   1.683   0.251 -1.5606 -1.9292  0.8241
 8326TIP3    H246470   5.672   1.730   0.237 -0.9786 -0.5028 -0.8614
 8327TIP3   OH246471   1.253   4.982  14.076  0.3949 -0.0282 -0.2025
 8327TIP3    H146472   1.184   4.942  14.024  1.5588 -0.8847 -1.1445
 8327TIP3    H246473   1.210   5.008  14.157 -1.4169  1.0538 -1.4300
 8328TIP3   OH246474   0.890   2.513   3.424 -0.5167 -0.3762  0.4280
 8328TIP3    H146475   0.864   2.453   3.355  3.0370 -1.7729  0.0999
 8328TIP3    H246476   0.926   2.589   3.378  0.1798 -0.4960  0.7690
 8329TIP3   OH246477   0.262   2.235  12.337 -0.1193 -0.1566  0.0889
 8329TIP3    H146478   0.240   2.296  12.266  1.1006  1.2511  0.8670
 8329TIP3    H246479   0.179   2.193  12.359 -0.7822  0.3810 -1.2395
 8330TIP3   OH246480   1.087   2.534  11.592  0.4053 -0.4011 -0.1915
 8330TIP3    H146481   1.119   2.477  11.663  0.6094  0.5637  0.5050
 8330TIP3    H246482   1.046   2.607  11.637  0.6958  0.3187 -1.0759
 8331TIP3   OH246483   0.729   2.176  13.808 -0.0485 -0.0711  0.0432
 8331TIP3    H146484   0.687   2.127  13.738 -0.2420 -2.2171  1.5704
 8331TIP3    H246485   0.657   2.211  13.860  0.0284  3.3131 -1.8278
 8332TIP3   OH246486   2.284   0.923   3.092  0.3551  0.2555  0.0135
 8332TIP3    H146487   2.321   0.940   3.005  0.2426  1.6108  0.2036
 8332TIP3    H246488   2.305   0.832   3.109  1.3777  0.2757 -0.9622
 8333TIP3   OH246489   1.161   3.442   3.207  0.5031 -0.1830 -0.3841
 8333TIP3    H146490   1.218   3.453   3.282 -1.2750  1.9486  0.7841
 8333TIP3    H246491   1.211   3.477   3.133  0.8700  1.3472  0.5453
 8334TIP3   OH246492   1.123   3.465   0.916  0.5291 -0.5884 -0.1113
 8334TIP3    H146493   1.157   3.448   0.828 -1.3604 -0.6175 -0.8781
 8334TIP3    H246494   1.043   3.514   0.901  0.6085  0.1289  1.6574
 8335TIP3   OH246495   4.125   0.988   0.800  0.9174 -0.2528 -0.2334
 8335TIP3    H146496   4.092   1.017   0.715 -1.0080 -0.3547  0.4316
 8335TIP3    H246497   4.116   0.893   0.798 -1.0054 -0.1446  0.7465
 8336TIP3   OH246498   0.185   2.388  11.899 -0.3601  0.3719 -0.1264
 8336TIP3    H146499   0.101   2.342  11.892  0.5426 -1.3853  0.1506
 8336TIP3    H246500   0.211   2.377  11.990  0.2019  0.8916 -0.2171
 8337TIP3   OH246501   5.438   1.024  13.504 -0.3312  0.3751 -0.0137
 8337TIP3    H146502   5.505   0.970  13.462 -0.2066  1.4395 -1.2545
 8337TIP3    H246503   5.468   1.035  13.594 -0.9881 -2.6250  0.6953
 8338TIP3   OH246504   5.635   0.117  16.180 -0.5846  0.3764 -0.0710
 8338TIP3    H146505   5.587   0.069  16.247 -1.6724  1.3280 -0.1478
 8338TIP3    H246506   5.595   0.089  16.097  1.1121 -1.2172 -0.4307
 8339TIP3   OH246507   6.705   3.230  14.474  0.0841 -0.2465 -0.5526
 8339TIP3    H146508   6.615   3.232  14.507  0.5988  1.9586  0.9484
 8339TIP3    H246509   6.755   3.283  14.536  2.1432 -0.1369 -2.1784
 8340TIP3   OH246510   1.991   2.422   0.721  0.1362  0.4218  0.1996
 8340TIP3    H146511   1.920   2.366   0.751  0.4512 -1.0339 -1.6199
 8340TIP3    H246512   2.070   2.382   0.757  0.2402  0.6284  0.2004
 8341TIP3   OH246513   6.488   1.736  15.606 -0.1630  0.6486 -0.5158
 8341TIP3    H146514   6.433   1.713  15.531 -1.0639  0.5152  0.1617
 8341TIP3    H246515   6.441   1.699  15.681  1.0319  0.2541  0.0517
 8342TIP3   OH246516   3.489   5.785   2.156  0.1014  0.4312  0.4416
 8342TIP3    H146517   3.518   5.790   2.065 -0.3591 -2.3691  0.0587
 8342TIP3    H246518   3.413   5.842   2.160 -0.1628  0.2383 -1.0863
 8343TIP3   OH246519   3.678   0.170  14.893  0.3098 -1.0790  0.0684
 8343TIP3    H146520   3.660   0.109  14.965  0.1337 -0.6380  0.3991
 8343TIP3    H246521   3.606   0.157  14.832 -1.0654  0.5164  1.2766
 8344TIP3   OH246522   1.957   4.586   0.568  0.4046  0.0735  0.3918
 8344TIP3    H146523   2.001   4.533   0.501 -0.7553 -1.3335  0.6823
 8344TIP3    H246524   1.993   4.555   0.651  0.2823  0.2781  0.5221
 8345TIP3   OH246525   1.829   0.772  11.642  0.0350  0.1661 -0.0326
 8345TIP3    H146526   1.804   0.850  11.594  0.3672 -0.9476 -2.1525
 8345TIP3    H246527   1.898   0.732  11.589  0.9901 -0.7680  1.7923
 8346TIP3   OH246528   2.883   4.487  13.724 -0.4422 -0.6043  0.4034
 8346TIP3    H146529   2.885   4.553  13.793  0.1657 -0.2232  0.0256
 8346TIP3    H246530   2.832   4.527  13.654 -0.5300 -0.7504  0.3830
 8347TIP3   OH246531   4.112   5.201  12.146  0.5119  0.0779  0.2218
 8347TIP3    H146532   4.196   5.157  12.149  0.6921  0.4502  0.9451
 8347TIP3    H246533   4.121   5.266  12.076  1.6212  1.6395  1.7262
 8348TIP3   OH246534   3.897   2.097   6.201 -0.2543  0.3123  0.4266
 8348TIP3    H146535   3.894   2.041   6.123 -0.1576  0.6166  0.2031
 8348TIP3    H246536   3.985   2.083   6.236 -0.3566  0.0410  0.5857
 8349TIP3   OH246537   5.491   3.725   1.744 -0.0540  0.2994 -0.6328
 8349TIP3    H146538   5.490   3.652   1.805 -2.9528 -0.6474 -1.6146
 8349TIP3    H246539   5.495   3.685   1.658  1.7409  1.5195 -1.1764
 8350TIP3   OH246540   6.309   4.965   4.915 -0.0496 -0.2789 -0.5254
 8350TIP3    H146541   6.269   4.994   4.997  0.5195 -0.5857 -0.1340
 8350TIP3    H246542   6.235   4.941   4.859 -0.4579  0.3700 -0.2709
 8351TIP3   OH246543   4.110   0.655  14.388 -0.0231 -0.1989  0.2228
 8351TIP3    H146544   4.193   0.608  14.376  0.5518  0.6283  0.8629
 8351TIP3    H246545   4.062   0.638  14.308  0.5779 -1.0562  0.0180
 8352TIP3   OH246546   1.620   6.769   2.315  0.3527 -0.2660 -0.4270
 8352TIP3    H146547   1.607   6.764   2.410  1.4062 -0.4496 -0.2770
 8352TIP3    H246548   1.532   6.759   2.278 -0.8013  3.7632  0.6359
 8353TIP3   OH246549   3.615   0.708   1.093 -0.2087  0.2626 -0.4878
 8353TIP3    H146550   3.641   0.616   1.087  2.1802  0.9670 -2.0861
 8353TIP3    H246551   3.546   0.709   1.160  1.9076 -2.2101  1.9499
 8354TIP3   OH246552   5.055   0.182   2.478  0.2225 -0.3148  0.6442
 8354TIP3    H146553   5.049   0.109   2.416 -2.0203 -0.7533  1.2845
 8354TIP3    H246554   5.055   0.260   2.423 -0.3250 -0.7437  0.0121
 8355TIP3   OH246555   0.594   1.042  15.861  0.0029 -0.0609 -0.7758
 8355TIP3    H146556   0.599   0.963  15.808  0.4793 -0.8583  0.4180
 8355TIP3    H246557   0.596   1.011  15.951  1.1388  1.3659 -0.2729
 8356TIP3   OH246558   6.586   4.899  12.930  0.7230 -0.1544 -0.2519
 8356TIP3    H146559   6.562   4.989  12.910  0.6782 -0.3646 -1.1855
 8356TIP3    H246560   6.671   4.905  12.973 -0.0522  0.4544  1.2497
 8357TIP3   OH246561   5.588   5.382  15.170 -0.2791 -0.0886  0.3250
 8357TIP3    H146562   5.584   5.302  15.118 -0.9640  0.7694 -1.0235
 8357TIP3    H246563   5.627   5.447  15.111 -0.5254  0.7747  1.0832
 8358TIP3   OH246564   6.578   6.674  16.166 -0.1937  0.3279 -0.0243
 8358TIP3    H146565   6.650   6.646  16.110 -0.3581  1.4006 -0.7952
 8358TIP3    H246566   6.584   6.770  16.168 -1.1070  0.3881  0.5559
 8359TIP3   OH246567   0.619   0.510   6.108  0.3443 -0.2408  0.7588
 8359TIP3    H146568   0.544   0.569   6.120 -1.9367 -2.8642  0.5282
 8359TIP3    H246569   0.664   0.544   6.030 -0.6024  1.4173  0.8986
 8360TIP3   OH246570   4.214   6.479  17.080 -0.1504 -0.7356 -0.0259
 8360TIP3    H146571   4.198   6.388  17.104  2.8956 -1.6699 -1.0296
 8360TIP3    H246572   4.146   6.500  17.016 -0.6312 -2.4845 -0.1364
 8361TIP3   OH246573   0.049   2.040   2.499 -0.1778  0.3974 -0.1912
 8361TIP3    H146574  -0.017   2.102   2.528 -0.2971  0.0644  0.2643
 8361TIP3    H246575   0.131   2.091   2.497  0.0938  0.1396  2.0069
 8362TIP3   OH246576   3.227   6.700  15.585 -0.0192  0.3475 -0.5131
 8362TIP3    H146577   3.245   6.793  15.599 -0.0716  0.1556  0.9709
 8362TIP3    H246578   3.132   6.693  15.591  0.0549  0.0543  0.3538
 8363TIP3   OH246579   3.963   0.428   4.685 -0.1149 -0.4827 -0.3494
 8363TIP3    H146580   3.904   0.422   4.760  1.3030 -0.5077  0.7996
 8363TIP3    H246581   3.905   0.441   4.610 -1.5353  0.2315  0.8262
 8364TIP3   OH246582   5.285   0.999  11.560  0.1406 -0.5506  0.6617
 8364TIP3    H146583   5.354   1.002  11.626 -0.0150 -2.2935  0.9722
 8364TIP3    H246584   5.327   1.027  11.479  1.5844 -2.6090  0.6068
 8365TIP3   OH246585   6.454   5.962  16.572  0.1479  0.6279  0.6318
 8365TIP3    H146586   6.493   5.910  16.502 -2.1471  0.2413 -0.4780
 8365TIP3    H246587   6.460   6.053  16.542 -0.8180  0.4646 -0.1183
 8366TIP3   OH246588   1.928   3.679  10.557 -0.1078  0.6437 -0.4151
 8366TIP3    H146589   1.918   3.596  10.509  0.7237  0.3236 -0.0608
 8366TIP3    H246590   1.921   3.654  10.649  4.2587  0.2016 -0.0099
 8367TIP3   OH246591   2.067   0.425   3.022  0.2249 -0.2794 -0.2926
 8367TIP3    H146592   2.034   0.398   3.108 -0.4674  2.0031  0.2265
 8367TIP3    H246593   2.161   0.407   3.025  0.9342  2.8339  2.3530
 8368TIP3   OH246594   6.617   5.883   6.497  0.1650 -0.1605 -0.3546
 8368TIP3    H146595   6.611   5.886   6.593 -0.9400 -0.0391 -0.4141
 8368TIP3    H246596   6.600   5.973   6.469  0.6662 -0.1568 -0.6651
 8369TIP3   OH246597   0.483   5.665  12.114  0.2479 -0.7364 -0.4469
 8369TIP3    H146598   0.473   5.571  12.129 -0.0037 -0.4512  1.4659
 8369TIP3    H246599   0.400   5.703  12.144 -0.1692  0.0210 -2.3979
 8370TIP3   OH246600   6.614   0.921  11.909  0.3531  0.5025  0.0643
 8370TIP3    H146601   6.705   0.905  11.933  0.2906 -0.5028 -0.3227
 8370TIP3    H246602   6.619   0.958  11.821  0.4031  0.7047  0.1523
 8371TIP3   OH246603   1.717   6.090  14.569 -0.3958 -0.1119  0.0861
 8371TIP3    H146604   1.734   6.145  14.646 -2.4392 -0.6856  1.0105
 8371TIP3    H246605   1.717   6.152  14.496 -0.0676  0.7068  0.7575
 8372TIP3   OH246606   5.101   2.071  16.889  0.1846 -0.3045  0.2201
 8372TIP3    H146607   5.058   2.099  16.808 -0.7806  0.1157  0.8634
 8372TIP3    H246608   5.029   2.054  16.950  0.7406 -3.4301  0.1372
 8373TIP3   OH246609   1.043   6.757  17.015  0.4804  0.3893  0.2263
 8373TIP3    H146610   1.085   6.782  17.097 -0.0854 -1.0077  0.9702
 8373TIP3    H246611   1.035   6.662  17.020 -3.6084  0.5732  0.6396
 8374TIP3   OH246612   4.004   2.339   1.715 -0.4245 -0.1403  0.1195
 8374TIP3    H146613   4.083   2.344   1.769 -0.0191 -2.1475 -0.2008
 8374TIP3    H246614   3.941   2.292   1.770 -0.5769 -0.6865 -0.5133
 8375TIP3   OH246615   0.575   3.825   6.428 -0.1351  0.3987 -0.1959
 8375TIP3    H146616   0.546   3.753   6.485 -0.2727 -0.4146 -1.2724
 8375TIP3    H246617   0.631   3.879   6.484  0.2755 -0.7474  0.5280
 8376TIP3   OH246618   0.124   6.622   4.959 -0.5750 -0.0270 -0.4008
 8376TIP3    H146619   0.044   6.649   5.003  1.0348  0.3604  2.5932
 8376TIP3    H246620   0.159   6.551   5.013  2.2643  1.4219 -0.0926
 8377TIP3   OH246621   3.277   4.983   1.662 -0.1045 -0.4826 -0.6652
 8377TIP3    H146622   3.279   4.985   1.567 -1.6189 -0.0890 -0.7038
 8377TIP3    H246623   3.220   5.055   1.687  2.2396  1.0605  0.6750
 8378TIP3   OH246624   2.299   6.082   4.823  0.1073 -0.4371 -0.0697
 8378TIP3    H146625   2.345   6.015   4.773  0.8183  0.1336 -0.1817
 8378TIP3    H246626   2.263   6.035   4.898 -1.9248 -1.5533 -1.6280
 8379TIP3   OH246627   5.727   2.123   1.669 -0.1738  0.2990  0.6168
 8379TIP3    H146628   5.745   2.169   1.587 -1.6182  2.0498  1.2136
 8379TIP3    H246629   5.643   2.158   1.699 -0.9414 -2.1452  1.6019
 8380TIP3   OH246630   1.278   3.040  16.018 -0.1366 -0.0664 -0.8209
 8380TIP3    H146631   1.324   3.068  15.940  1.5734  0.8009  0.4296
 8380TIP3    H246632   1.212   2.978  15.987  1.7814 -1.2826 -2.7276
 8381TIP3   OH246633   4.382   4.596  17.159 -0.5968 -0.2210  0.6038
 8381TIP3    H146634   4.350   4.545  17.233 -0.4409 -0.2500  0.6525
 8381TIP3    H246635   4.327   4.675  17.159 -0.1990  0.0620  1.1240
 8382TIP3   OH246636   4.729   0.320   4.200 -0.0401 -0.4816  0.0225
 8382TIP3    H146637   4.704   0.267   4.275 -0.8533  0.9180  0.7796
 8382TIP3    H246638   4.715   0.263   4.124 -1.8389 -1.0340  0.7259
 8383TIP3   OH246639   6.303   3.040  15.452 -0.0923  0.4890  0.4068
 8383TIP3    H146640   6.236   3.042  15.384  1.4820  0.3082 -1.2081
 8383TIP3    H246641   6.378   3.087  15.414  1.3377 -0.8561  1.4378
 8384TIP3   OH246642   5.355   0.600  13.511 -0.4439 -0.4956  0.2249
 8384TIP3    H146643   5.358   0.572  13.420  1.2829 -0.8669  0.3697
 8384TIP3    H246644   5.435   0.651  13.524  0.0366 -1.5850  1.8700
 8385TIP3   OH246645   3.993   1.049  15.601  0.0111 -0.2721  0.3372
 8385TIP3    H146646   3.993   0.956  15.624  0.8112 -0.4045 -0.1470
 8385TIP3    H246647   4.085   1.075  15.607 -0.3376  0.7911  1.5874
 8386TIP3   OH246648   6.438   0.681   0.501  0.4096 -0.3263 -0.0675
 8386TIP3    H146649   6.503   0.737   0.458  0.0358 -0.0603 -0.2913
 8386TIP3    H246650   6.357   0.697   0.453 -0.2022  0.5609  1.2064
 8387TIP3   OH246651   3.950   6.793  15.035  0.4126 -0.3321 -0.1469
 8387TIP3    H146652   3.895   6.734  14.984 -0.6493 -1.2597  1.9496
 8387TIP3    H246653   4.039   6.777  15.003 -0.3472  0.6324 -3.0616
 8388TIP3   OH246654   4.462   3.492   2.109 -0.0896 -0.2818  0.4767
 8388TIP3    H146655   4.484   3.539   2.028 -0.6591  0.9343  1.0094
 8388TIP3    H246656   4.450   3.561   2.174  0.0713 -1.2343  1.5366
 8389TIP3   OH246657   1.656   6.773  14.335  0.2210 -0.2758 -0.5722
 8389TIP3    H146658   1.572   6.818  14.330  0.4681  0.2059 -0.4554
 8389TIP3    H246659   1.655   6.712  14.261 -0.8855 -1.4387  0.3608
 8390TIP3   OH246660   0.830   0.111  15.192  0.5410 -0.5519 -0.2405
 8390TIP3    H146661   0.905   0.052  15.184 -0.8140 -2.4882  0.5312
 8390TIP3    H246662   0.848   0.182  15.131  1.4549 -2.6355 -2.5398
 8391TIP3   OH246663   4.310   1.655   4.329  0.4115  0.3145  0.0060
 8391TIP3    H146664   4.399   1.627   4.306  0.0668  0.4231 -1.5405
 8391TIP3    H246665   4.271   1.683   4.247 -0.0093  3.3784  1.1113
 8392TIP3   OH246666   6.627   3.094   5.159  0.7596 -0.5233 -0.6761
 8392TIP3    H146667   6.650   3.024   5.097  0.2987 -1.0495 -0.2489
 8392TIP3    H246668   6.534   3.083   5.175  0.4710  0.7825 -1.3436
 8393TIP3   OH246669   5.793   4.751  15.012  0.0766 -0.1728 -0.1943
 8393TIP3    H146670   5.792   4.655  15.006  1.4091 -0.2681  0.6556
 8393TIP3    H246671   5.886   4.773  15.024 -0.4436  1.0638  2.0172
 8394TIP3   OH246672   0.604   2.093  15.639 -0.3851  0.0643  0.0292
 8394TIP3    H146673   0.656   2.029  15.687 -1.0540  0.2502  1.0306
 8394TIP3    H246674   0.514   2.076  15.665 -0.6849  0.6914 -0.5524
 8395TIP3   OH246675   1.725   5.880   3.953  0.4533  0.0905 -0.5684
 8395TIP3    H146676   1.638   5.855   3.982  0.7844 -1.5998 -0.8929
 8395TIP3    H246677   1.784   5.843   4.019  1.0155 -0.6920 -1.4810
 8396TIP3   OH246678   2.319   4.664  14.024  0.1833 -0.1364  0.3929
 8396TIP3    H146679   2.265   4.666  13.945 -0.7989 -0.7374  1.0349
 8396TIP3    H246680   2.295   4.582  14.068  2.0079 -0.6861  0.4383
 8397TIP3   OH246681   2.792   5.770  12.690 -0.6086 -0.1239  0.1687
 8397TIP3    H146682   2.880   5.735  12.691 -0.7221 -0.5650  2.8810
 8397TIP3    H246683   2.742   5.713  12.749 -2.0840  1.5243  0.6201
 8398TIP3   OH246684   5.779   2.025  11.560  0.3149 -0.1045 -0.0832
 8398TIP3    H146685   5.763   1.938  11.598 -1.1530  0.0056 -0.3728
 8398TIP3    H246686   5.693   2.067  11.560  0.5506  0.4694 -2.1041
 8399TIP3   OH246687   5.162   6.313  15.189  0.2860 -0.2813 -0.0800
 8399TIP3    H146688   5.164   6.272  15.276  1.1055  0.0378  0.0601
 8399TIP3    H246689   5.253   6.313  15.161  0.2097  0.8649 -0.3552
 8400TIP3   OH246690   0.678   5.205   5.817  0.5180  0.2807 -0.0216
 8400TIP3    H146691   0.732   5.127   5.826  2.4739  1.7375  1.8922
 8400TIP3    H246692   0.669   5.239   5.906 -1.8229  1.2838 -0.5616
 8401TIP3   OH246693   3.423   6.295  13.362 -0.0393 -0.5157 -0.1848
 8401TIP3    H146694   3.450   6.267  13.449 -0.6527 -0.7902 -0.0791
 8401TIP3    H246695   3.333   6.264  13.354 -0.8686  1.6507  0.0594
 8402TIP3   OH246696   0.526   3.997  11.433  0.5030 -0.5621  0.4487
 8402TIP3    H146697   0.458   4.039  11.487  0.6949  0.1519  0.1436
 8402TIP3    H246698   0.477   3.954  11.363  0.3724  0.3752 -0.0599
 8403TIP3   OH246699   0.279   5.371   5.199  0.3763 -0.1213 -0.6437
 8403TIP3    H146700   0.226   5.310   5.251  0.3961 -1.4844 -2.1459
 8403TIP3    H246701   0.369   5.347   5.219  0.4440  0.9988  0.5277
 8404TIP3   OH246702   2.651   5.420   4.772 -0.0132  0.0924  0.0299
 8404TIP3    H146703   2.627   5.341   4.723 -0.2411  0.1484  0.0465
 8404TIP3    H246704   2.705   5.388   4.845 -0.8647 -0.1568  0.5709
 8405TIP3   OH246705   6.768   6.797  14.554 -0.4240 -0.2326  1.0986
 8405TIP3    H146706   6.810   6.774  14.637 -1.0796  1.2695  1.9024
 8405TIP3    H246707   6.840   6.816  14.495  0.0703  0.8642  2.0137
 8406TIP3   OH246708   6.522   0.630   5.243  0.0205 -0.2948  1.0351
 8406TIP3    H146709   6.456   0.688   5.206  0.9514 -0.4223 -0.9263
 8406TIP3    H246710   6.504   0.630   5.337 -0.8712  2.0438  0.9163
 8407TIP3   OH246711   5.250   6.000  16.217  0.5492  0.1673 -0.1789
 8407TIP3    H146712   5.187   6.070  16.198  0.7502 -0.1123 -2.0666
 8407TIP3    H246713   5.237   5.981  16.310  0.8753  3.0630  0.5724
 8408TIP3   OH246714   0.647   1.690  13.012 -0.5312  0.2514  0.2398
 8408TIP3    H146715   0.639   1.685  12.917 -0.8233  2.5036  0.0857
 8408TIP3    H246716   0.699   1.614  13.036 -1.5428 -1.0987 -1.5579
 8409TIP3   OH246717   2.039   4.864   3.064 -0.5311 -0.7072 -0.0116
 8409TIP3    H146718   2.063   4.933   3.002 -0.5251 -1.0312 -0.3743
 8409TIP3    H246719   2.066   4.783   3.021 -1.5653 -1.0218 -0.0928
 8410TIP3   OH246720   2.522   2.138   6.074  0.4809 -0.4712 -0.2525
 8410TIP3    H146721   2.504   2.048   6.045  3.2645 -0.9620 -0.7415
 8410TIP3    H246722   2.443   2.163   6.122 -1.2638 -2.3704 -1.8793
 8411TIP3   OH246723   6.691   3.756  13.524 -0.5110 -0.0713 -0.1006
 8411TIP3    H146724   6.644   3.800  13.453 -2.0225 -1.3813  0.0196
 8411TIP3    H246725   6.776   3.734  13.486 -0.9008  0.1752 -1.1745
 8412TIP3   OH246726   1.294   6.360  11.080 -0.0858 -0.1727  0.4925
 8412TIP3    H146727   1.251   6.444  11.100 -2.1011 -1.3292  1.3607
 8412TIP3    H246728   1.260   6.300  11.146  0.3441 -1.9672 -0.8448
 8413TIP3   OH246729   2.262   4.950  15.786  0.7706  0.1786  0.5483
 8413TIP3    H146730   2.227   4.944  15.697 -0.4111 -2.0996  1.0883
 8413TIP3    H246731   2.324   5.023  15.782  0.8198  0.1077 -2.1483
 8414TIP3   OH246732   1.109   0.372  15.791  0.1460  0.0120  0.0111
 8414TIP3    H146733   1.083   0.441  15.852 -0.9591 -0.0630 -0.3542
 8414TIP3    H246734   1.031   0.318  15.782  0.4672 -0.2945 -1.0444
 8415TIP3   OH246735   2.264   3.809   5.466  0.4276 -0.0370  0.4138
 8415TIP3    H146736   2.336   3.820   5.528 -1.1646 -0.0492  2.3658
 8415TIP3    H246737   2.225   3.896   5.459  0.3575 -0.1208 -0.2936
 8416TIP3   OH246738   5.264   0.440   3.608 -0.7518 -0.0459  0.2373
 8416TIP3    H146739   5.348   0.425   3.564  1.1163  0.3569  3.3652
 8416TIP3    H246740   5.241   0.354   3.643 -2.4339 -0.4572 -1.7204
 8417TIP3   OH246741   5.923   5.554   4.852 -0.4431 -0.1891  0.7612
 8417TIP3    H146742   6.004   5.532   4.806 -0.2789  2.2684 -0.2585
 8417TIP3    H246743   5.937   5.521   4.941  1.6665  0.1080  0.5941
 8418TIP3   OH246744   1.259   4.497  15.384 -0.2770 -0.3207 -0.1624
 8418TIP3    H146745   1.228   4.473  15.297  0.4613 -0.7330 -0.3172
 8418TIP3    H246746   1.268   4.414  15.430 -1.2284 -0.0694  0.5184
 8419TIP3   OH246747   1.645   4.176  16.576 -0.4052  0.1978  0.4293
 8419TIP3    H146748   1.648   4.090  16.617 -0.5441 -0.6300 -1.2185
 8419TIP3    H246749   1.555   4.206  16.588 -1.1218 -1.1032 -1.2892
 8420TIP3   OH246750   6.632   5.018  17.102 -0.0207 -0.0387 -0.0133
 8420TIP3    H146751   6.537   5.017  17.090 -0.1043 -2.9379  0.2504
 8420TIP3    H246752   6.667   5.028  17.014 -0.4997  2.0948 -0.0184
 8421TIP3   OH246753   5.211   5.191   2.339 -0.2273 -0.3877 -0.1487
 8421TIP3    H146754   5.175   5.255   2.278  1.8124  0.7041 -0.2815
 8421TIP3    H246755   5.306   5.193   2.324  0.0748 -2.1325  1.1174
 8422TIP3   OH246756   3.989   0.814  14.557  0.5068  0.2400 -0.0559
 8422TIP3    H146757   4.075   0.847  14.584  0.6180  0.9819 -1.2542
 8422TIP3    H246758   4.008   0.744  14.495  0.2468 -1.4209  1.6272
 8423TIP3   OH246759   3.799   1.601  16.759  0.2390 -0.2368  0.6047
 8423TIP3    H146760   3.875   1.635  16.712 -1.0703 -1.9271 -3.1345
 8423TIP3    H246761   3.728   1.662  16.737 -0.7575 -1.8983 -1.2038
 8424TIP3   OH246762   6.144   5.121   3.290 -0.0439 -0.1688  0.7226
 8424TIP3    H146763   6.212   5.185   3.310  1.1142 -1.1262 -0.0009
 8424TIP3    H246764   6.082   5.127   3.363  0.4371  1.2110  1.0451
 8425TIP3   OH246765   3.928   5.290  15.871 -0.2080  0.6456  0.1933
 8425TIP3    H146766   4.013   5.285  15.915 -0.6958 -2.4061  1.0324
 8425TIP3    H246767   3.866   5.304  15.943 -0.6230  0.3000 -0.1000
 8426TIP3   OH246768   4.361   1.104  14.575 -0.3579 -0.2171 -0.0453
 8426TIP3    H146769   4.402   1.023  14.546 -0.5404 -0.9760  1.6852
 8426TIP3    H246770   4.378   1.166  14.504 -0.3822 -1.7934 -1.4906
 8427TIP3   OH246771   6.406   3.678  12.158 -0.3981 -0.2032  0.0470
 8427TIP3    H146772   6.382   3.586  12.144 -1.0444 -0.1185  0.5528
 8427TIP3    H246773   6.333   3.714  12.208 -0.7078  0.8806 -1.1295
 8428TIP3   OH246774   0.291   5.211  12.340  0.3641  0.0730  0.0569
 8428TIP3    H146775   0.342   5.146  12.292  1.5985  0.8899  0.2144
 8428TIP3    H246776   0.286   5.177  12.429 -0.7172 -0.7532 -0.2934
 8429TIP3   OH246777   3.222   4.531   2.525  0.0920  0.0802  0.2987
 8429TIP3    H146778   3.182   4.470   2.587  0.2484  0.4695  0.7912
 8429TIP3    H246779   3.265   4.597   2.581  0.4852  0.2703 -0.2205
 8430TIP3   OH246780   6.195   5.691   6.520 -1.1047 -0.2107 -0.1218
 8430TIP3    H146781   6.136   5.763   6.497 -1.5961 -0.6289 -0.1743
 8430TIP3    H246782   6.224   5.710   6.609 -0.0582  0.8404 -0.6586
 8431TIP3   OH246783   4.036   6.408   5.447 -0.1294  0.4696 -0.2935
 8431TIP3    H146784   3.999   6.355   5.376  1.0224 -1.5964  0.5782
 8431TIP3    H246785   3.961   6.432   5.501 -0.5589 -1.5413  0.0833
 8432TIP3   OH246786   0.400   4.765   5.524 -0.0404  0.1685  0.0512
 8432TIP3    H146787   0.413   4.757   5.429  0.3139  1.0149  0.0234
 8432TIP3    H246788   0.315   4.808   5.532 -0.8629 -1.4076  0.1608
 8433TIP3   OH246789   1.149   6.484  12.680 -0.2316 -0.4477  0.1109
 8433TIP3    H146790   1.244   6.481  12.665 -0.0552  0.6376  0.9408
 8433TIP3    H246791   1.115   6.409  12.630  1.0761 -0.9666 -0.0424
 8434TIP3   OH246792   1.042   4.576   4.725 -0.6311  0.0281  0.2881
 8434TIP3    H146793   0.994   4.599   4.645 -0.9338  0.5914  0.6271
 8434TIP3    H246794   1.098   4.652   4.741 -1.2963  0.3527  1.1560
 8435TIP3   OH246795   4.960   2.041  17.188 -0.2844 -0.6803 -0.1982
 8435TIP3    H146796   4.888   2.070  17.243  0.2377 -0.4046  0.3533
 8435TIP3    H246797   5.017   2.118  17.181  1.0134 -1.4669  1.1102
 8436TIP3   OH246798   6.208   6.484  12.823  0.0165  0.4689  0.0168
 8436TIP3    H146799   6.134   6.424  12.833 -1.3432  1.9146 -0.9347
 8436TIP3    H246800   6.168   6.568  12.799  2.0192  1.1172 -1.2787
 8437TIP3   OH246801   0.780   0.741   1.231 -0.1327 -0.2264 -0.0373
 8437TIP3    H146802   0.717   0.773   1.296  0.3928 -0.6150  0.6735
 8437TIP3    H246803   0.745   0.657   1.202 -0.5165  0.0800 -0.4831
 8438TIP3   OH246804   2.964   1.919   2.814 -0.3578  0.0101 -0.5472
 8438TIP3    H146805   2.927   1.943   2.899 -1.4234  2.8718 -1.7034
 8438TIP3    H246806   2.891   1.882   2.765 -1.0085  2.5443 -1.6675
 8439TIP3   OH246807   0.902   5.801   4.936 -0.1127  0.4626  0.0377
 8439TIP3    H146808   0.867   5.889   4.951  0.8396  0.7838  0.4655
 8439TIP3    H246809   0.997   5.812   4.943 -0.0241 -0.7794  1.0664
 8440TIP3   OH246810   4.040   2.884   2.375  0.2686  0.0621  0.0201
 8440TIP3    H146811   3.981   2.846   2.310  0.4668  2.2590 -1.5590
 8440TIP3    H246812   3.989   2.956   2.413  1.1134  0.4969  0.3460
 8441TIP3   OH246813   6.246   6.135   2.612  0.2760  0.0937 -0.2639
 8441TIP3    H146814   6.225   6.102   2.699  0.7560 -0.0914 -0.2131
 8441TIP3    H246815   6.337   6.164   2.618  0.3926 -0.1423 -0.7644
 8442TIP3   OH246816   5.396   2.165  16.600 -0.5497 -0.0480 -0.4517
 8442TIP3    H146817   5.360   2.253  16.613  1.2310  0.5783  0.6524
 8442TIP3    H246818   5.326   2.117  16.555 -2.2118  1.4398  0.3861
 8443TIP3   OH246819   1.150   4.543   4.435  0.2920  0.3603  0.2128
 8443TIP3    H146820   1.222   4.606   4.445 -0.2545  0.7599  2.1043
 8443TIP3    H246821   1.074   4.589   4.472 -0.4727 -0.8167  0.1387
 8444TIP3   OH246822   2.211   4.545  15.377 -0.0541  0.2330 -0.3883
 8444TIP3    H146823   2.141   4.497  15.422 -2.3735  2.2507 -1.6093
 8444TIP3    H246824   2.214   4.508  15.289  0.4827  0.0997 -0.3170
 8445TIP3   OH246825   2.854   3.585  12.592 -0.1665 -0.8611 -0.1650
 8445TIP3    H146826   2.786   3.518  12.595  0.5199 -1.5344  1.4696
 8445TIP3    H246827   2.925   3.545  12.542 -0.2244 -0.8927 -0.2221
 8446TIP3   OH246828   3.671   1.264   6.187  0.1116 -0.3100  0.0580
 8446TIP3    H146829   3.615   1.187   6.179  0.2446 -0.6644  1.9725
 8446TIP3    H246830   3.611   1.336   6.206  0.1698 -0.3905  0.5563
 8447TIP3   OH246831   3.584   6.740   0.857 -0.7072 -0.3185  0.4281
 8447TIP3    H146832   3.502   6.773   0.821 -0.9203 -0.7641  0.5006
 8447TIP3    H246833   3.629   6.701   0.781 -0.6372 -0.2181  0.4187
 8448TIP3   OH246834   3.960   6.442  15.365  0.3083  0.2079 -0.0406
 8448TIP3    H146835   3.976   6.392  15.285  0.2924 -0.5430  0.4189
 8448TIP3    H246836   3.889   6.502  15.342 -2.2039 -2.4022  0.3590
 8449TIP3   OH246837   6.807   6.739   6.555 -0.2726  0.0210  0.5829
 8449TIP3    H146838   6.876   6.673   6.558 -0.2403 -0.3241 -3.0137
 8449TIP3    H246839   6.854   6.822   6.561  0.0164 -0.2227  1.9773
 8450TIP3   OH246840   2.180   5.262  13.991  0.5327  0.1425 -0.2618
 8450TIP3    H146841   2.250   5.327  13.991 -0.7832  1.6537 -1.8939
 8450TIP3    H246842   2.124   5.286  13.916 -1.2412 -1.5345  0.4266
 8451TIP3   OH246843   3.932   6.137  10.913 -0.1790 -0.2357 -0.1380
 8451TIP3    H146844   3.898   6.075  10.848 -0.2291  1.7580 -2.1250
 8451TIP3    H246845   4.025   6.145  10.892  0.0555 -0.3752  0.7828
 8452TIP3   OH246846   4.892   0.024   1.633  0.0500 -0.2453 -0.2941
 8452TIP3    H146847   4.810  -0.002   1.592 -0.8674 -0.7362  1.7480
 8452TIP3    H246848   4.928   0.090   1.573 -1.8812  0.0827 -1.1818
 8453TIP3   OH246849   1.066   4.465   1.493 -0.0246  0.1296  0.8181
 8453TIP3    H146850   1.017   4.383   1.494 -0.8024  0.5870  1.6194
 8453TIP3    H246851   1.071   4.491   1.585  0.4387  0.8475  0.5976
 8454TIP3   OH246852   2.102   0.449   4.739  0.3640  0.5094 -1.5002
 8454TIP3    H146853   2.180   0.398   4.762 -0.2136  0.5653  0.8157
 8454TIP3    H246854   2.100   0.520   4.803 -1.2995  0.8214 -1.8458
 8455TIP3   OH246855   0.711   5.105   0.750  0.4358  0.1812 -0.4257
 8455TIP3    H146856   0.629   5.130   0.707  0.8837 -0.6481 -1.8247
 8455TIP3    H246857   0.709   5.009   0.752  2.2459  0.0074 -2.4105
 8456TIP3   OH246858   3.202   0.183  17.081 -0.1713  0.2488  0.0756
 8456TIP3    H146859   3.270   0.236  17.122 -1.3984  0.5940  1.7616
 8456TIP3    H246860   3.236   0.163  16.993  1.7530  1.0054  0.6122
 8457TIP3   OH246861   1.296   4.292  15.818  0.1458 -0.3213  0.4320
 8457TIP3    H146862   1.319   4.199  15.816  0.4964 -0.2361  0.4932
 8457TIP3    H246863   1.330   4.324  15.901  3.9171  0.8346 -1.3000
 8458TIP3   OH246864   0.082   2.756   5.830  0.5560  0.3850 -0.0921
 8458TIP3    H146865   0.043   2.830   5.877 -0.4906 -1.8471  2.8470
 8458TIP3    H246866   0.177   2.771   5.837  0.4449  0.3971  2.5431
 8459TIP3   OH246867   6.788   0.163   0.900 -0.2580 -0.2996  0.6389
 8459TIP3    H146868   6.814   0.220   0.827 -0.7236  1.2522  1.6524
 8459TIP3    H246869   6.844   0.189   0.972  0.5358 -2.1665  0.7584
 8460TIP3   OH246870   3.311   5.636  11.851  0.3323  0.0764  0.3020
 8460TIP3    H146871   3.395   5.590  11.853  0.9310  1.1168 -0.3471
 8460TIP3    H246872   3.248   5.569  11.823  1.1780 -0.3608 -0.6201
 8461TIP3   OH246873   1.717   1.164   0.749 -0.0078 -0.3071 -0.2631
 8461TIP3    H146874   1.807   1.177   0.778 -0.0051 -1.6196  0.3725
 8461TIP3    H246875   1.663   1.213   0.811  0.3022  1.4736 -1.3339
 8462TIP3   OH246876   1.471   4.211  15.479  0.2370 -0.2435  0.1792
 8462TIP3    H146877   1.494   4.127  15.440 -2.1657 -1.4901  1.2736
 8462TIP3    H246878   1.379   4.203  15.503  0.8462  1.2825  3.7585
 8463TIP3   OH246879   4.329   5.564   4.038  0.0952 -0.0203  0.1048
 8463TIP3    H146880   4.263   5.624   4.004  1.2046  0.8615 -0.5874
 8463TIP3    H246881   4.291   5.528   4.118 -1.5205 -0.1265 -0.6710
 8464TIP3   OH246882   1.693   1.316  12.962 -0.0622  0.3777  0.0446
 8464TIP3    H146883   1.721   1.265  13.038 -0.6921  3.0647  2.2365
 8464TIP3    H246884   1.771   1.366  12.938 -0.3301  0.7764  0.0045
 8465TIP3   OH246885   4.569   5.835  11.767  0.3558 -0.3224 -0.0690
 8465TIP3    H146886   4.476   5.853  11.750  0.2975 -0.9409 -0.4421
 8465TIP3    H246887   4.593   5.897  11.836 -0.6006 -0.8291  0.7481
 8466TIP3   OH246888   6.272   1.164  14.920  0.0168 -0.0299 -0.0176
 8466TIP3    H146889   6.267   1.244  14.972  0.6167  1.3081 -1.8826
 8466TIP3    H246890   6.203   1.108  14.955 -0.3275  1.2280  1.4454
 8467TIP3   OH246891   5.608   3.145  12.631  0.8241  0.0186 -0.1983
 8467TIP3    H146892   5.656   3.200  12.569  2.0782 -1.9461 -1.0355
 8467TIP3    H246893   5.591   3.064  12.583  1.1356 -1.2611  1.7576
 8468TIP3   OH246894   2.598   6.748   2.948  0.1075 -0.0665 -0.7950
 8468TIP3    H146895   2.605   6.733   2.854 -0.7064  0.8015 -1.0131
 8468TIP3    H246896   2.680   6.715   2.984  0.5996 -0.0489 -1.8605
 8469TIP3   OH246897   3.553   0.517  11.604 -0.3022 -0.4712 -0.0881
 8469TIP3    H146898   3.637   0.555  11.579  0.5970 -1.7496  0.8625
 8469TIP3    H246899   3.568   0.423  11.605 -1.6316 -0.7058  0.5101
 8470TIP3   OH246900   6.354   4.572  15.415 -0.6112  0.2083  0.0156
 8470TIP3    H146901   6.260   4.587  15.425 -0.8942 -1.5378  0.2368
 8470TIP3    H246902   6.391   4.596  15.500 -0.8207  0.9700 -0.0948
 8471TIP3   OH246903   1.582   5.881   6.045 -0.4313  0.2168  0.2108
 8471TIP3    H146904   1.658   5.890   5.989 -1.2786 -0.5044 -1.1216
 8471TIP3    H246905   1.538   5.966   6.040  0.3505  0.6834  1.1074
 8472TIP3   OH246906   6.221   1.179  16.140  1.2644 -0.9973  0.5799
 8472TIP3    H146907   6.154   1.225  16.191  0.2141 -1.3371 -0.4526
 8472TIP3    H246908   6.304   1.201  16.184  0.5131 -0.3795  1.7409
 8473TIP3   OH246909   2.234   4.082  14.219  0.3884  0.3397 -0.2699
 8473TIP3    H146910   2.233   4.159  14.163  1.5858  1.7761  1.5325
 8473TIP3    H246911   2.146   4.077  14.256  0.0190  0.2321 -1.1499
 8474TIP3   OH246912   0.638   6.677  15.489 -0.5836  0.2197  0.1178
 8474TIP3    H146913   0.642   6.692  15.395 -0.5121 -1.2704 -0.1538
 8474TIP3    H246914   0.598   6.590  15.497 -1.8513  0.8868  1.5241
 8475TIP3   OH246915   4.120   1.370  11.842 -0.1694  0.4025 -0.6561
 8475TIP3    H146916   4.201   1.354  11.793 -0.0002  0.3020 -0.3470
 8475TIP3    H246917   4.111   1.293  11.898  0.3227  1.0817  0.3975
 8476TIP3   OH246918   5.263   3.350   2.632 -0.2779  0.5990  0.1933
 8476TIP3    H146919   5.259   3.427   2.688 -2.6391  0.7006 -0.0299
 8476TIP3    H246920   5.187   3.357   2.575 -0.6489 -1.9429  0.2532
 8477TIP3   OH246921   1.230   2.472  15.801 -0.4254  0.0765  0.2740
 8477TIP3    H146922   1.250   2.538  15.735 -0.7791  0.1935  0.2786
 8477TIP3    H246923   1.314   2.431  15.822 -0.3085  0.0643 -0.2217
 8478TIP3   OH246924   1.892   2.873   1.126  0.4382  0.3438  0.0469
 8478TIP3    H146925   1.879   2.921   1.044  0.7453  0.9118  0.3333
 8478TIP3    H246926   1.952   2.802   1.103  0.2219  0.2718 -0.3045
 8479TIP3   OH246927   3.613   0.303   6.048  0.2549  0.7959 -0.1273
 8479TIP3    H146928   3.673   0.238   6.085  1.6902  0.3655 -2.9531
 8479TIP3    H246929   3.635   0.384   6.094  0.3118 -0.1217  1.5558
 8480TIP3   OH246930   5.832   6.556   1.950  0.3216 -0.2920 -0.0904
 8480TIP3    H146931   5.870   6.629   1.902  0.3515 -0.4422 -0.2973
 8480TIP3    H246932   5.850   6.576   2.042  2.9739 -1.4541 -0.2390
 8481TIP3   OH246933   1.229   5.155   2.350  0.3928 -0.2718  0.2294
 8481TIP3    H146934   1.152   5.166   2.406 -4.2366 -3.9901 -4.2919
 8481TIP3    H246935   1.264   5.069   2.373 -0.5885 -1.1392 -1.3265
 8482TIP3   OH246936   2.175   4.367  14.801  0.3665  0.3700  0.5831
 8482TIP3    H146937   2.223   4.386  14.720 -0.6159  0.5608  0.0368
 8482TIP3    H246938   2.184   4.273  14.812 -0.3101  0.1886 -0.2899
 8483TIP3   OH246939   6.571   2.920  14.850  0.0457 -0.4268 -0.4243
 8483TIP3    H146940   6.603   2.939  14.761 -0.2502  1.9031 -0.1037
 8483TIP3    H246941   6.650   2.904  14.901  0.4596  1.0960 -0.5334
 8484TIP3   OH246942   5.119   4.154  11.805  0.1193 -0.2982  0.1517
 8484TIP3    H146943   5.189   4.154  11.871  0.5220  3.1068 -0.0779
 8484TIP3    H246944   5.147   4.220  11.742 -1.5461 -1.5639 -2.0306
 8485TIP3   OH246945   6.466   0.185   3.469  0.3061  0.0946 -0.0142
 8485TIP3    H146946   6.389   0.172   3.524  0.3911 -1.3255 -0.1726
 8485TIP3    H246947   6.466   0.109   3.411  1.3744  0.5017 -0.5715
 8486TIP3   OH246948   2.339   6.295   4.348 -0.2721  0.4972 -0.2577
 8486TIP3    H146949   2.266   6.356   4.359 -1.3046 -1.0440  2.3566
 8486TIP3    H246950   2.299   6.218   4.308  0.1043 -0.0508  0.4225
 8487TIP3   OH246951   0.312   5.437   2.901  0.2782  0.3330 -0.2399
 8487TIP3    H146952   0.299   5.494   2.826  1.5312 -1.2311 -1.7237
 8487TIP3    H246953   0.387   5.475   2.948  1.0083  0.0278 -1.1332
 8488TIP3   OH246954   0.985   5.142   3.159 -0.2016 -0.2060  0.1177
 8488TIP3    H146955   0.908   5.092   3.186  0.5635 -1.6526 -0.2722
 8488TIP3    H246956   1.047   5.132   3.231 -0.4947  1.3253  0.6307
 8489TIP3   OH246957   0.970   2.542   1.588  0.0171  0.1082 -0.4233
 8489TIP3    H146958   0.884   2.500   1.587  1.2402 -2.7143  1.7624
 8489TIP3    H246959   0.965   2.604   1.661 -0.2657  0.2567 -0.5646
 8490TIP3   OH246960   4.646   6.195  11.618 -0.0307 -0.1759  0.6050
 8490TIP3    H146961   4.698   6.146  11.682 -0.5525 -0.9662  0.4304
 8490TIP3    H246962   4.678   6.165  11.533 -3.5501 -3.9736  0.3271
 8491TIP3   OH246963   0.142   3.379   4.490  0.0503  0.5963  0.7011
 8491TIP3    H146964   0.125   3.450   4.428  2.2247 -0.3312 -1.0639
 8491TIP3    H246965   0.055   3.341   4.505 -0.9408  2.5921  0.4691
 8492TIP3   OH246966   6.665   4.659   4.015  0.0347  0.5285 -0.4027
 8492TIP3    H146967   6.667   4.610   3.932  0.2472  0.4362 -0.3431
 8492TIP3    H246968   6.572   4.675   4.030  0.0336  1.1859 -1.0320
 8493TIP3   OH246969   1.426   0.365   5.517  0.5210 -0.3326 -0.3752
 8493TIP3    H146970   1.429   0.460   5.511 -1.0447 -0.0918  1.5545
 8493TIP3    H246971   1.366   0.338   5.448 -2.0966  0.5184  1.3891
 8494TIP3   OH246972   0.193   1.017  14.085 -0.1471 -0.2902 -0.4082
 8494TIP3    H146973   0.240   1.083  14.134  0.9494  0.4582 -2.3452
 8494TIP3    H246974   0.132   0.978  14.148  0.5377  1.2142  1.2498
 8495TIP3   OH246975   2.555   1.257   0.261 -0.2413  0.1574 -0.6825
 8495TIP3    H146976   2.626   1.318   0.282  1.0159 -0.8900 -1.6977
 8495TIP3    H246977   2.590   1.171   0.284 -1.4475 -0.3276 -0.5952
 8496TIP3   OH246978   4.629   3.699   4.361 -0.2374  0.3137  0.4285
 8496TIP3    H146979   4.634   3.775   4.303 -0.0819 -0.3594 -0.4663
 8496TIP3    H246980   4.703   3.644   4.335 -1.1065 -0.7574  0.1473
 8497TIP3   OH246981   0.259   5.800   2.993  0.0085  0.2771 -0.8286
 8497TIP3    H146982   0.304   5.883   2.975 -1.2360  0.9957 -0.7579
 8497TIP3    H246983   0.233   5.768   2.907  0.0278  0.2215 -0.8140
 8498TIP3   OH246984   1.111   5.951   2.388 -0.0997  0.2546  0.5787
 8498TIP3    H146985   1.122   5.982   2.478  0.1987 -0.4951  0.8129
 8498TIP3    H246986   1.161   5.869   2.385  0.1881  0.4538 -0.3708
 8499TIP3   OH246987   5.182   1.083   1.822  0.3605 -0.4710 -0.0541
 8499TIP3    H146988   5.181   0.996   1.863  0.0618 -0.9105 -0.9651
 8499TIP3    H246989   5.208   1.142   1.893  0.9349 -1.3430  0.4871
 8500TIP3   OH246990   6.743   3.970   1.698  0.5144  0.4923  0.3736
 8500TIP3    H146991   6.687   3.943   1.625  0.5790  0.3859  0.3627
 8500TIP3    H246992   6.829   3.934   1.677  0.5486  0.5181  0.4690
 8501TIP3   OH246993   0.756   5.736   2.103  0.3467  0.3777  0.3619
 8501TIP3    H146994   0.670   5.725   2.144 -0.3734  0.2031 -1.1223
 8501TIP3    H246995   0.772   5.830   2.108  1.4102  0.1431  3.1459
 8502TIP3   OH246996   3.411   4.423  11.490 -0.5412  0.2148  0.6276
 8502TIP3    H146997   3.373   4.377  11.415  0.6134  0.9400 -0.4577
 8502TIP3    H246998   3.339   4.432  11.552 -1.1375 -1.8509  0.3247
 8503TIP3   OH246999   2.915   4.967  17.172  0.7993  0.0722 -0.2259
 8503TIP3    H147000   2.934   4.950  17.080  1.2308 -1.0156  0.0599
 8503TIP3    H247001   2.886   4.883  17.207  0.8669  0.4220  0.6917
 8504TIP3   OH247002   0.036   0.823  11.571 -0.4155  0.2383 -0.0548
 8504TIP3    H147003  -0.006   0.783  11.494  2.3078  1.5599 -2.4103
 8504TIP3    H247004   0.120   0.778  11.578 -0.6683  0.0354  2.3556
 8505TIP3   OH247005   1.594   4.688  14.128 -0.3710  0.0401  0.2552
 8505TIP3    H147006   1.550   4.750  14.070  0.1067  1.8974  1.7787
 8505TIP3    H247007   1.675   4.732  14.152  0.8605 -1.9701  0.0106
 8506TIP3   OH247008   2.190   2.800   0.317 -0.3600 -0.3330  0.9223
 8506TIP3    H147009   2.106   2.838   0.344  0.1858  0.6370  1.2824
 8506TIP3    H247010   2.256   2.851   0.364  0.4706 -0.6601  0.1387
 8507TIP3   OH247011   6.010   3.080   2.052  0.4472  0.1926 -0.1570
 8507TIP3    H147012   5.985   3.160   2.098  1.5750  0.5830 -0.1863
 8507TIP3    H247013   5.960   3.081   1.971 -1.9829 -0.7681  1.2284
 8508TIP3   OH247014   2.276   6.700  11.309 -0.1278  0.7595 -0.0259
 8508TIP3    H147015   2.317   6.710  11.395  1.4425 -0.6474 -0.5616
 8508TIP3    H247016   2.195   6.751  11.315 -0.4963 -0.0176  2.5716
 8509TIP3   OH247017   2.349   1.764   2.105  0.1114 -0.1474 -0.1558
 8509TIP3    H147018   2.393   1.703   2.164  0.9602  2.5599  2.2814
 8509TIP3    H247019   2.259   1.769   2.137  0.3490  0.7011  0.4019
 8510TIP3   OH247020   2.481   0.586   6.097  0.1592 -0.6158 -0.0457
 8510TIP3    H147021   2.452   0.627   6.179 -0.8602 -0.9418 -0.2364
 8510TIP3    H247022   2.405   0.592   6.039  0.7242 -0.8017 -0.8173
 8511TIP3   OH247023   5.930   0.115   0.721 -0.3432  0.4562 -0.4953
 8511TIP3    H147024   5.946   0.204   0.753  0.9385  1.2099 -2.9590
 8511TIP3    H247025   5.959   0.059   0.793  1.9848  2.0168 -0.0652
 8512TIP3   OH247026   2.722   1.575  17.250 -0.6357 -0.3781 -0.1814
 8512TIP3    H147027   2.748   1.502  17.306  1.0312  0.1616 -0.2235
 8512TIP3    H247028   2.721   1.537  17.162 -1.5668 -0.7792 -0.0220
 8513TIP3   OH247029   0.487   6.456  15.513  0.2292  0.6777  0.2622
 8513TIP3    H147030   0.397   6.426  15.518  0.1247  1.1013  1.3178
 8513TIP3    H247031   0.536   6.391  15.564  0.5561  0.3378 -0.4776
 8514TIP3   OH247032   0.604   3.168  12.843  0.6141  0.1773 -0.2987
 8514TIP3    H147033   0.585   3.092  12.787 -0.8263  0.0795  0.2854
 8514TIP3    H247034   0.623   3.130  12.929 -0.0083  0.4550 -0.0321
 8515TIP3   OH247035   0.892   1.061  10.439  0.3164 -0.0948 -0.0102
 8515TIP3    H147036   0.827   1.118  10.479 -1.5509 -0.5006 -2.2217
 8515TIP3    H247037   0.939   1.117  10.377  1.3740 -0.0498  0.8114
 8516TIP3   OH247038   5.542   0.907   5.736  0.1211  0.2676  0.2932
 8516TIP3    H147039   5.566   0.850   5.663 -0.9541  0.0963  0.0570
 8516TIP3    H247040   5.447   0.895   5.746  0.2012  0.5078  1.5328
 8517TIP3   OH247041   6.622   5.842   5.473  0.5103 -0.2732 -0.0482
 8517TIP3    H147042   6.597   5.902   5.403  1.8018  2.0623  1.3404
 8517TIP3    H247043   6.714   5.820   5.453  0.6260 -0.2645  0.4715
 8518TIP3   OH247044   2.455   6.552  12.417  0.5767  0.3961  0.0344
 8518TIP3    H147045   2.468   6.641  12.450 -3.0315  1.4402 -0.9318
 8518TIP3    H247046   2.504   6.497  12.478 -0.3551  2.7555  3.2093
 8519TIP3   OH247047   2.266   0.582  15.266  0.5175 -0.1476 -0.1233
 8519TIP3    H147048   2.228   0.625  15.343  0.0165  0.3435 -0.6361
 8519TIP3    H247049   2.257   0.646  15.195 -0.1589 -1.0435 -0.8826
 8520TIP3   OH247050   1.519   2.261   1.584 -0.3794 -0.7111  0.1382
 8520TIP3    H147051   1.574   2.292   1.512 -0.0202 -1.1320  0.2251
 8520TIP3    H247052   1.431   2.290   1.561 -0.1221 -0.0008  0.0119
 8521TIP3   OH247053   5.525   2.049  17.257 -0.2647 -0.4417  0.5632
 8521TIP3    H147054   5.459   2.112  17.227  0.4134  0.5181  1.0320
 8521TIP3    H247055   5.479   1.997  17.323 -1.3372 -1.6071 -1.0307
 8522TIP3   OH247056   6.674   4.696  12.747 -0.5077  0.6787  0.0558
 8522TIP3    H147057   6.639   4.774  12.790 -1.0214  0.1572  0.6179
 8522TIP3    H247058   6.721   4.650  12.817 -0.2481  0.4664 -0.2591
 8523TIP3   OH247059   1.650   1.452   5.307  0.2363  0.3014  0.0222
 8523TIP3    H147060   1.555   1.455   5.320  0.1572  0.3487 -0.5134
 8523TIP3    H247061   1.685   1.419   5.389 -0.2314  0.4645  0.2907
 8524TIP3   OH247062   2.531   0.605   2.573 -0.3670  0.1545  0.7536
 8524TIP3    H147063   2.525   0.632   2.481 -3.4334 -1.4518  0.3342
 8524TIP3    H247064   2.445   0.626   2.609 -0.3380 -2.1041  2.3501
 8525TIP3   OH247065   2.959   0.430   0.670  0.0562  0.2295 -0.0071
 8525TIP3    H147066   3.036   0.454   0.617 -0.4502  0.3897 -0.6816
 8525TIP3    H247067   2.895   0.399   0.606  0.1032 -1.3705  0.6982
 8526TIP3   OH247068   2.733   1.819   0.583  0.0825  0.4772 -0.8255
 8526TIP3    H147069   2.723   1.751   0.517  1.2009  0.1854 -0.7148
 8526TIP3    H247070   2.761   1.896   0.535 -0.0090  0.5274 -0.7996
 8527TIP3   OH247071   6.135   1.061  12.510  0.0560 -0.5372 -0.1092
 8527TIP3    H147072   6.179   1.019  12.584 -2.6440 -0.4860  1.6842
 8527TIP3    H247073   6.061   1.004  12.492  0.2960 -0.1883 -2.3921
 8528TIP3   OH247074   0.550   3.984  16.135  0.2082 -0.4287  0.0556
 8528TIP3    H147075   0.524   4.068  16.097 -1.0122 -0.9857 -0.4189
 8528TIP3    H247076   0.512   3.918  16.076  2.2949 -1.3461 -0.3651
 8529TIP3   OH247077   1.602   5.809   3.660  0.5551  0.5394  0.0285
 8529TIP3    H147078   1.669   5.789   3.724  0.2631  2.4858  1.0235
 8529TIP3    H247079   1.529   5.844   3.711  0.5633  2.7895 -1.3470
 8530TIP3   OH247080   1.196   0.623  14.722  0.2942 -0.1661 -0.1370
 8530TIP3    H147081   1.266   0.583  14.670  0.4662 -0.4596  0.3114
 8530TIP3    H247082   1.242   0.670  14.791  0.0731  0.3746 -0.3543
 8531TIP3   OH247083   4.672   3.725  12.606 -0.5082  0.6166 -0.8217
 8531TIP3    H147084   4.691   3.663  12.676 -1.6548  1.5580  0.3954
 8531TIP3    H247085   4.706   3.809  12.638 -1.6918  1.2055 -1.0483
 8532TIP3   OH247086   4.852   0.175  12.151 -0.1345  0.2215 -0.3276
 8532TIP3    H147087   4.947   0.169  12.165 -0.0852 -2.0151 -1.1620
 8532TIP3    H247088   4.833   0.106  12.087 -2.3552  0.5151 -0.0573
 8533TIP3   OH247089   3.103   3.241   4.183  0.3452  0.0975 -0.4661
 8533TIP3    H147090   3.155   3.163   4.166  0.0496 -0.0412 -0.7480
 8533TIP3    H247091   3.034   3.212   4.243  1.2564  0.5366  0.8371
 8534TIP3   OH247092   5.047   3.265  13.660 -0.5522 -0.2984  0.8050
 8534TIP3    H147093   5.067   3.194  13.599 -1.6284 -0.3453  0.4899
 8534TIP3    H247094   5.132   3.289  13.698 -0.1276 -1.5535  0.6981
 8535TIP3   OH247095   6.021   6.149  13.006 -0.1334  0.2662 -0.3041
 8535TIP3    H147096   6.009   6.173  13.098  0.6358 -0.7431  0.0838
 8535TIP3    H247097   6.115   6.132  12.999 -0.0302  1.2458 -1.5172
 8536TIP3   OH247098   0.103   2.526   3.229  0.1123 -0.2409 -0.5521
 8536TIP3    H147099   0.072   2.481   3.308  1.8490  0.3029  0.5090
 8536TIP3    H247100   0.114   2.456   3.165 -1.0056 -0.7434 -0.2290
 8537TIP3   OH247101   1.943   3.511  14.721  0.0671  1.1244 -0.0324
 8537TIP3    H147102   1.962   3.441  14.660  1.6395  0.5946  0.9986
 8537TIP3    H247103   1.891   3.574  14.671 -0.4053 -0.2328 -1.2980
 8538TIP3   OH247104   3.343   0.649   2.445  0.0780 -0.1101  0.2409
 8538TIP3    H147105   3.279   0.672   2.377 -1.4370  0.5954  1.8495
 8538TIP3    H247106   3.305   0.683   2.526  1.5952 -1.3803  1.5331
 8539TIP3   OH247107   0.366   2.924  13.612  0.6231 -0.0182 -0.4873
 8539TIP3    H147108   0.342   2.943  13.522  0.3622  0.2574 -0.3610
 8539TIP3    H247109   0.320   2.842  13.633 -0.1268  0.4528 -0.2793
 8540TIP3   OH247110   5.456   4.938   2.613  0.5244 -0.1214 -0.1951
 8540TIP3    H147111   5.416   4.900   2.536  0.2948  0.6767 -0.4805
 8540TIP3    H247112   5.383   4.975   2.663  0.8738  1.4870 -0.8010
 8541TIP3   OH247113   4.658   2.178  17.115 -0.5168 -0.5509  0.1179
 8541TIP3    H147114   4.746   2.214  17.128 -0.0784 -1.9922  1.4918
 8541TIP3    H247115   4.600   2.243  17.155 -0.2095  0.9099 -1.7073
 8542TIP3   OH247116   2.821   0.827  13.729  0.8214  0.3667  0.2204
 8542TIP3    H147117   2.787   0.903  13.681 -1.3021 -0.2326  0.6691
 8542TIP3    H247118   2.852   0.768  13.661 -1.3788 -0.1127 -0.4555
 8543TIP3   OH247119   6.018   0.528  11.640 -0.5385  0.0168  0.5314
 8543TIP3    H147120   6.055   0.458  11.694 -0.3929 -1.3762 -1.2735
 8543TIP3    H247121   6.067   0.524  11.558 -1.9943  0.8104 -0.4243
 8544TIP3   OH247122   3.861   6.520  17.134  0.3121 -0.5065 -0.3004
 8544TIP3    H147123   3.777   6.527  17.089  0.2969 -2.5223 -0.7034
 8544TIP3    H247124   3.926   6.531  17.065  0.3101 -1.8757 -0.5481
 8545TIP3   OH247125   3.879   6.600   5.248  0.6641 -0.0963  0.1162
 8545TIP3    H147126   3.966   6.621   5.283  0.0350  0.5883  1.3250
 8545TIP3    H247127   3.820   6.662   5.291 -0.5729 -1.2107  0.0843
 8546TIP3   OH247128   5.279   0.930  12.319 -0.0029  0.0971  1.0740
 8546TIP3    H147129   5.273   0.910  12.413 -0.9304  0.3841  1.0904
 8546TIP3    H247130   5.218   1.003  12.306  0.2941  0.2173  0.2870
 8547TIP3   OH247131   1.412   2.792  12.717  0.0205 -0.0891  0.0437
 8547TIP3    H147132   1.444   2.763  12.632  0.3083  1.1252 -0.2706
 8547TIP3    H247133   1.368   2.875  12.700 -0.8841 -0.3632  0.9160
 8548TIP3   OH247134   5.622   6.776   3.976  0.1071 -0.0064 -0.0489
 8548TIP3    H147135   5.698   6.730   3.940 -0.2951 -0.7773  0.0552
 8548TIP3    H247136   5.547   6.737   3.931 -0.2511  0.4788  0.1216
 8549TIP3   OH247137   4.148   5.041  16.931 -0.2130  0.0049 -0.0376
 8549TIP3    H147138   4.160   5.116  16.872 -0.7015 -0.6010 -0.9319
 8549TIP3    H247139   4.056   5.018  16.922 -0.3895  0.1416  1.2757
 8550TIP3   OH247140   4.205   1.925  14.791  0.5064  0.7274  0.4216
 8550TIP3    H147141   4.148   1.856  14.757  1.9241 -0.7239  0.9121
 8550TIP3    H247142   4.146   2.000  14.802 -1.7896 -1.2262  2.7810
 8551TIP3   OH247143   5.840   5.620   3.577 -0.8159  0.2774  0.0191
 8551TIP3    H147144   5.918   5.666   3.609  0.1758 -1.2082 -0.1227
 8551TIP3    H247145   5.807   5.574   3.654  0.0545 -1.2239 -0.4520
 8552TIP3   OH247146   2.891   1.243   2.552 -0.2467  0.1999  0.3916
 8552TIP3    H147147   2.899   1.309   2.621 -0.0360  1.5543 -0.8934
 8552TIP3    H247148   2.857   1.291   2.477  1.3708 -0.8014 -1.0579
 8553TIP3   OH247149   5.621   5.546  14.576 -0.0594  1.1035 -0.1220
 8553TIP3    H147150   5.684   5.559  14.647 -0.6188 -0.9379  0.8343
 8553TIP3    H247151   5.676   5.530  14.499  0.5535  3.0387 -0.1468
 8554TIP3   OH247152   4.576   2.348   4.319 -0.2509 -0.5443 -0.2272
 8554TIP3    H147153   4.555   2.393   4.237 -2.0772 -0.7291  0.1003
 8554TIP3    H247154   4.578   2.256   4.295 -1.5468 -0.6623  0.0519
 8555TIP3   OH247155   0.603   5.744  16.381 -0.0499 -0.8565 -0.0867
 8555TIP3    H147156   0.696   5.738  16.359  0.2255  1.5892  0.1778
 8555TIP3    H247157   0.602   5.763  16.474 -0.7480  0.4408 -0.3437
 8556TIP3   OH247158   0.406   3.442   4.885 -0.0697  0.2159 -0.0142
 8556TIP3    H147159   0.356   3.523   4.898  1.5167  1.4224 -1.0363
 8556TIP3    H247160   0.430   3.443   4.792 -0.7171 -1.8773 -0.2443
 8557TIP3   OH247161   0.490   4.418  13.747  0.0683  0.6053  0.0600
 8557TIP3    H147162   0.577   4.389  13.775  0.0942 -0.7954 -1.3244
 8557TIP3    H247163   0.474   4.498  13.797  0.1581 -1.5350  3.8737
 8558TIP3   OH247164   1.947   2.564  13.110  0.2452  0.3525 -0.4158
 8558TIP3    H147165   2.034   2.562  13.070  0.3006  1.9925 -0.4140
 8558TIP3    H247166   1.889   2.526  13.042  0.4956  2.1578 -1.7099
 8559TIP3   OH247167   6.310   5.042   4.576 -0.3643 -0.0857 -0.3968
 8559TIP3    H147168   6.362   4.973   4.617 -1.5131 -0.8342 -0.1624
 8559TIP3    H247169   6.257   5.078   4.647  0.4153  1.2541 -0.4572
 8560TIP3   OH247170   6.049   1.973  14.525 -0.4911 -0.3340  0.7376
 8560TIP3    H147171   6.065   1.883  14.498 -1.1084 -0.3774  0.5033
 8560TIP3    H247172   6.092   1.980  14.611  1.8748 -0.0571 -0.3879
 8561TIP3   OH247173   4.214   3.882   0.367  0.0990 -0.6501  0.0058
 8561TIP3    H147174   4.256   3.861   0.450  0.0968 -1.3793 -0.1774
 8561TIP3    H247175   4.120   3.875   0.386  0.0922 -2.8957 -0.5581
 8562TIP3   OH247176   5.953   0.595   2.779 -0.9353 -0.1453 -0.1786
 8562TIP3    H147177   5.911   0.621   2.697  0.6881 -1.1400 -1.3894
 8562TIP3    H247178   5.930   0.664   2.841 -2.6487  0.3570 -1.2904
 8563TIP3   OH247179   5.536   0.474  12.537  0.1470  0.1699  0.0340
 8563TIP3    H147180   5.611   0.454  12.593  0.1737 -1.3321 -0.4885
 8563TIP3    H247181   5.537   0.405  12.471 -3.4205 -1.8049  1.7286
 8564TIP3   OH247182   5.974   2.054   4.328  0.0203 -0.2426 -0.2896
 8564TIP3    H147183   6.026   1.992   4.380  0.7504  0.4297 -0.1895
 8564TIP3    H247184   5.894   2.066   4.378 -0.3888 -1.5408 -0.5963
 8565TIP3   OH247185   6.651   1.471  12.336 -0.2046 -0.4740  0.4186
 8565TIP3    H147186   6.690   1.558  12.339 -0.2379 -0.4715  0.8748
 8565TIP3    H247187   6.726   1.411  12.336 -0.1259 -0.4341 -1.5878
 8566TIP3   OH247188   2.045   4.096  16.957  0.4627 -0.3579  0.7911
 8566TIP3    H147189   2.097   4.113  17.036  0.5294 -0.7689  0.8370
 8566TIP3    H247190   2.010   4.182  16.933  2.3785  0.2237 -0.1005
 8567TIP3   OH247191   4.622   6.351   5.553  0.0067  0.0920  0.2362
 8567TIP3    H147192   4.615   6.261   5.521  0.5080 -0.4372  1.5687
 8567TIP3    H247193   4.716   6.367   5.561 -0.0910  0.1275  1.5894
 8568TIP3   OH247194   1.830   2.508  13.780  0.4230  0.1999 -0.4876
 8568TIP3    H147195   1.893   2.517  13.851  1.9183 -0.4522 -1.6868
 8568TIP3    H247196   1.780   2.429  13.801  0.1906  0.5508  0.3111
 8569TIP3   OH247197   2.970   1.351  14.133 -0.0342 -0.8227  0.0796
 8569TIP3    H147198   3.009   1.271  14.168  0.6728 -0.8192 -0.6707
 8569TIP3    H247199   3.045   1.404  14.105 -0.4053  0.6609  1.7106
 8570TIP3   OH247200   3.652   5.503  12.477  0.1965  0.2061  0.8507
 8570TIP3    H147201   3.566   5.545  12.475 -0.0242 -0.1078 -2.3603
 8570TIP3    H247202   3.645   5.437  12.545 -1.9388  0.5554  1.0401
 8571TIP3   OH247203   4.754   0.857  15.298  0.3997  0.3864 -0.0426
 8571TIP3    H147204   4.726   0.801  15.371 -0.9645 -0.0832 -0.8738
 8571TIP3    H247205   4.727   0.809  15.220 -0.7932  2.1602 -0.7911
 8572TIP3   OH247206   5.799   4.872  14.326  0.8691  0.3043  0.0088
 8572TIP3    H147207   5.748   4.921  14.261 -1.6562 -0.7189  1.0961
 8572TIP3    H247208   5.879   4.846  14.280 -0.1857  0.8152 -2.2265
 8573TIP3   OH247209   1.802   0.464   5.801  0.1257 -0.3756 -0.7888
 8573TIP3    H147210   1.722   0.466   5.853  0.1431  0.7165 -0.7876
 8573TIP3    H247211   1.775   0.427   5.717 -0.2019 -0.7548 -0.5224
 8574TIP3   OH247212   3.084   6.529  13.573  0.2580 -0.2093  0.0746
 8574TIP3    H147213   3.133   6.596  13.621 -1.1796  0.8177  0.2009
 8574TIP3    H247214   3.129   6.520  13.490  1.6703 -0.6014  0.8502
 8575TIP3   OH247215   4.219   6.190   5.473  0.3287 -0.2003  0.5688
 8575TIP3    H147216   4.277   6.193   5.549 -0.3850  0.4114  1.1104
 8575TIP3    H247217   4.148   6.251   5.495 -1.1265 -1.7616  0.4494
 8576TIP3   OH247218   6.702   2.588  11.592 -0.3435 -0.1519 -0.0432
 8576TIP3    H147219   6.791   2.613  11.567 -0.4039 -0.7532 -0.9338
 8576TIP3    H247220   6.702   2.590  11.688  0.5758  0.0304 -0.0396
 8577TIP3   OH247221   4.840   3.058  11.713 -0.4916 -0.3342 -0.0814
 8577TIP3    H147222   4.823   2.974  11.756  0.1648  0.0221  0.9255
 8577TIP3    H247223   4.920   3.043  11.663  0.5234  0.0842  1.3449
 8578TIP3   OH247224   0.522   5.986  13.804 -0.4680 -0.5073 -0.3477
 8578TIP3    H147225   0.483   6.055  13.857  0.1243  0.7510 -1.4693
 8578TIP3    H247226   0.536   6.027  13.719  3.2726 -0.8031 -0.0537
 8579TIP3   OH247227   4.745   5.902  12.733 -0.0772  0.2097  0.3753
 8579TIP3    H147228   4.685   5.874  12.665 -0.2916 -0.0645  0.6725
 8579TIP3    H247229   4.750   5.827  12.794  1.6406 -0.3313 -0.3564
 8580TIP3   OH247230   6.587   5.002  15.663 -0.3863  1.0537 -0.3279
 8580TIP3    H147231   6.593   4.952  15.744 -1.8280 -0.4228 -1.0988
 8580TIP3    H247232   6.599   5.093  15.691  0.3256  0.4867  1.3610
 8581TIP3   OH247233   0.865   4.589   5.837  0.3517  0.3450 -1.2930
 8581TIP3    H147234   0.832   4.656   5.777 -0.1229 -0.8667 -2.4456
 8581TIP3    H247235   0.803   4.590   5.910 -1.1345 -0.5242 -2.4837
 8582TIP3   OH247236   3.112   2.780  16.843 -0.3750 -0.1917  0.1525
 8582TIP3    H147237   3.051   2.762  16.914 -0.5404 -1.6351 -0.3279
 8582TIP3    H247238   3.069   2.848  16.791 -0.6971  0.1622  0.8714
 8583TIP3   OH247239   3.298   4.406  12.155 -0.3830  0.0068  0.4227
 8583TIP3    H147240   3.336   4.386  12.241  1.1291 -0.1512 -0.2462
 8583TIP3    H247241   3.290   4.501  12.154  0.8038  0.1211  0.2803
 8584TIP3   OH247242   1.721   1.989   2.181  0.0371  0.0822 -0.1129
 8584TIP3    H147243   1.707   2.011   2.089 -0.7304  0.2681  0.0358
 8584TIP3    H247244   1.714   2.072   2.227  1.6572  0.1828  0.0063
 8585TIP3   OH247245   4.375   4.209   3.103  0.4819 -0.4737 -0.3619
 8585TIP3    H147246   4.286   4.182   3.124  1.2481 -1.1445  2.5373
 8585TIP3    H247247   4.373   4.227   3.009 -2.7034 -0.3267 -0.3822
 8586TIP3   OH247248   0.729   2.143  11.916  0.6908  0.1061  0.7005
 8586TIP3    H147249   0.808   2.153  11.863  1.6541  0.3127  2.1027
 8586TIP3    H247250   0.714   2.048  11.919 -2.3391  0.1236 -3.9649
 8587TIP3   OH247251   5.730   0.382  10.960 -0.5090  0.0831  0.0020
 8587TIP3    H147252   5.803   0.406  11.018  0.0279  0.3300 -0.7516
 8587TIP3    H247253   5.704   0.294  10.990  0.0088  0.0483  0.3719
 8588TIP3   OH247254   1.162   2.588   4.663  0.7039 -0.7316  0.5093
 8588TIP3    H147255   1.087   2.572   4.721  0.2432  0.0745  0.1486
 8588TIP3    H247256   1.160   2.514   4.602 -0.6109 -0.0441 -0.3220
 8589TIP3   OH247257   5.897   0.904   1.363  0.0820  0.3199  0.5471
 8589TIP3    H147258   5.930   0.898   1.274  2.8969 -0.9451  1.5418
 8589TIP3    H247259   5.859   0.818   1.381 -2.0065  1.0908  0.1151
 8590TIP3   OH247260   4.707   2.717   0.587 -0.3088  0.7149  0.5632
 8590TIP3    H147261   4.700   2.810   0.568  0.8410  0.9638  1.2882
 8590TIP3    H247262   4.624   2.694   0.629 -0.9984  1.1739 -0.5125
 8591TIP3   OH247263   5.415   0.515  15.365 -0.3928  0.7426 -0.2549
 8591TIP3    H147264   5.448   0.426  15.371 -2.1296 -0.0019 -0.8576
 8591TIP3    H247265   5.472   0.566  15.421 -0.4521 -1.0845  1.5708
 8592TIP3   OH247266   6.532   3.488   2.641  0.0830 -0.7180 -0.4323
 8592TIP3    H147267   6.465   3.541   2.684  1.0607 -0.2938  0.6075
 8592TIP3    H247268   6.579   3.446   2.713  1.9985  0.2868 -1.0412
 8593TIP3   OH247269   5.404   0.762  16.998  0.2279  0.0521  0.3641
 8593TIP3    H147270   5.448   0.777  16.915  0.4255  0.9314  0.6152
 8593TIP3    H247271   5.311   0.755  16.975  0.3550 -0.4769 -0.0088
 8594TIP3   OH247272   0.252   5.927   0.719  0.1066  0.6709 -0.8690
 8594TIP3    H147273   0.289   5.971   0.642 -0.9380  0.9049 -1.2522
 8594TIP3    H247274   0.315   5.944   0.789  0.6855  1.1121 -1.4879
 8595TIP3   OH247275   0.576   0.675  16.959  0.6024  0.1675 -0.4978
 8595TIP3    H147276   0.608   0.594  16.921 -0.5949  0.4522 -2.2499
 8595TIP3    H247277   0.583   0.739  16.888 -1.9010  0.6831 -0.3814
 8596TIP3   OH247278   3.575   2.460   3.954 -0.5704  0.3346  0.3191
 8596TIP3    H147279   3.494   2.433   3.998 -0.4754  1.5801  1.3123
 8596TIP3    H247280   3.634   2.484   4.025 -0.3079  2.1221 -0.4465
 8597TIP3   OH247281   5.480   0.150   4.468  0.3433 -0.3546 -0.3653
 8597TIP3    H147282   5.538   0.097   4.414  0.6425 -0.5626  0.1566
 8597TIP3    H247283   5.394   0.108   4.459  0.2494 -0.0038 -1.1925
 8598TIP3   OH247284   4.689   4.731  16.638 -0.3597  0.1732  0.4485
 8598TIP3    H147285   4.758   4.767  16.582 -0.3470  0.1161  0.4265
 8598TIP3    H247286   4.608   4.760  16.597 -0.3414  0.8476  0.8840
 8599TIP3   OH247287   4.616   0.164   3.808  0.0042 -0.4865 -0.5430
 8599TIP3    H147288   4.612   0.105   3.883 -3.4952 -0.1992 -0.3518
 8599TIP3    H247289   4.573   0.117   3.737  1.0808  0.1868 -1.6819
 8600TIP3   OH247290   2.284   3.627   0.685  0.3314 -0.5595 -0.1597
 8600TIP3    H147291   2.287   3.714   0.726  1.9545 -0.5748 -0.1981
 8600TIP3    H247292   2.340   3.573   0.739 -1.1403 -1.7794  0.2113
 8601TIP3   OH247293   2.230   3.822  14.073 -0.3246  0.6467  0.0804
 8601TIP3    H147294   2.220   3.913  14.101 -0.8509  1.0633 -1.3857
 8601TIP3    H247295   2.163   3.774  14.123  1.3074  0.6462  2.4233
 8602TIP3   OH247296   4.429   5.435   5.734 -0.1099 -0.5734 -0.3505
 8602TIP3    H147297   4.368   5.506   5.713  0.0158 -0.5131 -0.5114
 8602TIP3    H247298   4.477   5.420   5.653 -0.2488 -0.9542 -0.3665
 8603TIP3   OH247299   3.492   2.768   2.477 -0.4466 -0.6723 -0.3155
 8603TIP3    H147300   3.479   2.827   2.403  0.1695 -0.1028  0.0160
 8603TIP3    H247301   3.406   2.762   2.518 -0.1934  1.3373  0.6121
 8604TIP3   OH247302   1.198   5.134  11.204  0.3531  0.5018  0.2019
 8604TIP3    H147303   1.267   5.068  11.196  0.6288  0.9464 -1.6055
 8604TIP3    H247304   1.124   5.087  11.242  0.7563 -0.7106 -0.4665
 8605TIP3   OH247305   3.448   0.534  12.835  0.3452 -0.8132  0.6577
 8605TIP3    H147306   3.381   0.593  12.799  1.7141 -0.8142 -2.2023
 8605TIP3    H247307   3.529   0.585  12.831  1.3016 -2.3347 -0.5103
 8606TIP3   OH247308   0.031   3.935  15.035 -0.0621  0.2561 -0.8872
 8606TIP3    H147309   0.101   3.978  14.986 -1.8161  2.2100 -1.8953
 8606TIP3    H247310   0.016   3.853  14.989  2.6285 -1.0846  0.3921
 8607TIP3   OH247311   3.005   2.345  17.191  0.3893 -0.1375  0.2240
 8607TIP3    H147312   2.991   2.405  17.118 -0.3783  0.3977  0.7962
 8607TIP3    H247313   3.099   2.324  17.187  0.2592 -0.5769 -1.2464
 8608TIP3   OH247314   0.510   5.003  13.390  0.2670  0.5149  0.3033
 8608TIP3    H147315   0.545   5.043  13.311 -0.6925 -1.3982 -1.1658
 8608TIP3    H247316   0.415   5.014  13.383  0.1827  0.5691  1.3457
 8609TIP3   OH247317   3.553   5.170  11.461 -0.5332  0.5702 -0.1739
 8609TIP3    H147318   3.616   5.230  11.502 -0.1930  1.4134 -1.8369
 8609TIP3    H247319   3.581   5.083  11.489  1.3628  0.9284 -0.7690
 8610TIP3   OH247320   6.385   0.280   2.638 -0.5446  0.3592  0.4223
 8610TIP3    H147321   6.449   0.351   2.640 -0.4069  0.2602 -0.4410
 8610TIP3    H247322   6.419   0.217   2.575 -2.7522  1.5495 -2.2029
 8611TIP3   OH247323   5.398   6.502  12.878  0.3390 -0.0260  0.6644
 8611TIP3    H147324   5.455   6.428  12.856  1.0359  0.5251  0.6012
 8611TIP3    H247325   5.423   6.571  12.816 -1.3659 -0.2209 -0.3241
 8612TIP3   OH247326   6.145   6.366  16.009 -0.0090 -0.0269  0.2767
 8612TIP3    H147327   6.187   6.282  15.989 -0.9515 -0.1670 -1.2458
 8612TIP3    H247328   6.084   6.346  16.080  0.8779 -0.2747  0.9962
 8613TIP3   OH247329   1.804   4.193   0.051 -0.4725  0.1087 -0.5299
 8613TIP3    H147330   1.820   4.221  -0.039  0.4878  0.9686 -0.1202
 8613TIP3    H247331   1.794   4.275   0.100 -1.1710 -0.3460  0.1225
 8614TIP3   OH247332   2.513   2.803  13.724  0.0942 -0.0909 -0.4363
 8614TIP3    H147333   2.438   2.776  13.672  0.5561 -1.5793 -0.3826
 8614TIP3    H247334   2.588   2.764  13.679  0.9233  1.8467 -0.8219
 8615TIP3   OH247335   0.627   4.014  16.410 -0.6194 -0.2504 -0.2358
 8615TIP3    H147336   0.685   3.941  16.430 -0.0119 -0.2019 -1.6613
 8615TIP3    H247337   0.629   4.019  16.314 -0.0339  2.1381 -0.1413
 8616TIP3   OH247338   4.675   6.060   2.575  0.2156 -0.6361 -0.2867
 8616TIP3    H147339   4.610   5.991   2.584  0.2922 -0.4895  1.6615
 8616TIP3    H247340   4.674   6.107   2.658  0.9758  1.0204 -1.1411
 8617TIP3   OH247341   5.670   3.547   0.923 -0.1474  0.5318 -0.0398
 8617TIP3    H147342   5.731   3.476   0.944  0.8574  2.0592  2.7175
 8617TIP3    H247343   5.722   3.610   0.873 -0.8412 -0.2207 -1.8242
 8618TIP3   OH247344   6.433   0.940  13.420 -0.5174  0.8806  0.4802
 8618TIP3    H147345   6.390   0.963  13.502 -0.6176  0.7344  0.4679
 8618TIP3    H247346   6.447   1.025  13.376  0.0934  1.0126  0.9207
 8619TIP3   OH247347   0.793   5.761  16.955  0.0307  0.4253  0.0154
 8619TIP3    H147348   0.716   5.714  16.924  0.5170 -0.8251  0.6523
 8619TIP3    H247349   0.847   5.774  16.877 -0.8778  1.4852 -0.4753
 8620TIP3   OH247350   5.850   4.409   3.195 -0.2347  0.2712  0.1544
 8620TIP3    H147351   5.843   4.492   3.242 -0.4928 -0.2228  1.0064
 8620TIP3    H247352   5.839   4.342   3.262  3.8551 -0.5810  0.2216
 8621TIP3   OH247353   6.245   3.202  14.004  0.2903  0.3870 -0.2286
 8621TIP3    H147354   6.337   3.220  14.021 -0.0426  0.9591  1.0525
 8621TIP3    H247355   6.204   3.288  13.998 -0.4114  0.1258  0.6640
 8622TIP3   OH247356   1.827   2.688   0.760 -0.6902  0.1276  0.0794
 8622TIP3    H147357   1.817   2.600   0.797  0.1521  0.7660  1.9418
 8622TIP3    H247358   1.913   2.717   0.791 -0.3417  1.0975 -1.6562
 8623TIP3   OH247359   3.623   0.644   5.909  0.2705  0.1088  0.3336
 8623TIP3    H147360   3.702   0.594   5.891 -0.0492  0.0857 -1.0647
 8623TIP3    H247361   3.654   0.733   5.925  0.5404  0.2583 -0.9185
 8624TIP3   OH247362   6.743   3.771   2.508  0.3188  0.1862  0.3740
 8624TIP3    H147363   6.833   3.748   2.532  0.2716 -0.3309  0.0566
 8624TIP3    H247364   6.700   3.789   2.592 -0.0212 -2.2410  0.8015
 8625TIP3   OH247365   4.007   4.438   3.759 -0.2913  0.5111  0.0854
 8625TIP3    H147366   3.972   4.421   3.847  0.4114 -2.8370 -0.1399
 8625TIP3    H247367   4.101   4.422   3.767 -0.3529 -0.8644 -1.4467
 8626TIP3   OH247368   5.871   3.944  15.643  0.0210  1.0696  0.2243
 8626TIP3    H147369   5.875   3.866  15.587 -0.0548  1.6750 -0.6421
 8626TIP3    H247370   5.937   3.929  15.710 -0.7389 -0.2303  0.7103
 8627TIP3   OH247371   1.055   5.622  14.428  0.2758  0.6188  0.3334
 8627TIP3    H147372   1.045   5.548  14.368 -0.4646  0.6101  0.4555
 8627TIP3    H247373   1.139   5.661  14.405 -0.6235  1.4804 -1.6677
 8628TIP3   OH247374   5.670   2.568  17.216 -0.5499 -0.9517 -0.2672
 8628TIP3    H147375   5.760   2.549  17.242 -0.2395  0.3756 -0.2951
 8628TIP3    H247376   5.625   2.588  17.298 -0.2678  0.4783 -0.4363
 8629TIP3   OH247377   3.140   4.581   3.430 -0.7618  0.8827 -0.4396
 8629TIP3    H147378   3.226   4.602   3.395 -0.2788 -1.2501 -0.6147
 8629TIP3    H247379   3.152   4.579   3.525 -0.9842  2.0133 -0.3726
 8630TIP3   OH247380   1.309   0.651  16.025 -0.0815 -0.6412  0.1986
 8630TIP3    H147381   1.313   0.672  16.118  2.9963  2.0898 -0.3727
 8630TIP3    H247382   1.249   0.716  15.988  2.6480  1.8392 -0.2849
 8631TIP3   OH247383   2.909   4.314   4.438  0.1353 -0.1764 -0.3111
 8631TIP3    H147384   3.001   4.308   4.462  0.3160 -2.1929 -1.3198
 8631TIP3    H247385   2.906   4.285   4.347 -1.3756  0.9316 -0.6640
 8632TIP3   OH247386   5.689   2.583  12.762 -0.1390  0.2377  0.0075
 8632TIP3    H147387   5.670   2.500  12.805  1.7290  0.7663  2.0481
 8632TIP3    H247388   5.674   2.649  12.829 -0.8145  1.5159 -1.3353
 8633TIP3   OH247389   4.077   0.727   3.411  0.5518 -0.7667  0.4468
 8633TIP3    H147390   4.041   0.798   3.357  2.9965  1.4791  1.5002
 8633TIP3    H247391   4.140   0.683   3.353  0.2464 -1.0086  0.2939
 8634TIP3   OH247392   2.177   1.381   2.787 -0.4607  0.6018  0.4121
 8634TIP3    H147393   2.109   1.447   2.801 -1.0957 -0.0207  0.3144
 8634TIP3    H247394   2.220   1.373   2.871 -2.4994 -1.1758  1.3929
 8635TIP3   OH247395   1.688   1.331  16.790  0.1011 -0.1990 -0.2787
 8635TIP3    H147396   1.669   1.388  16.715  1.8410  0.5147 -0.2198
 8635TIP3    H247397   1.728   1.389  16.855  1.8518 -1.4155 -0.1848
 8636TIP3   OH247398   4.359   5.744   2.247  0.1369  0.0886 -0.2426
 8636TIP3    H147399   4.334   5.711   2.334 -0.2925 -0.4324 -0.5587
 8636TIP3    H247400   4.399   5.829   2.265 -0.6635  0.3474  0.3990
 8637TIP3   OH247401   6.683   6.011  11.845 -0.2532  0.0157  0.1391
 8637TIP3    H147402   6.676   6.030  11.938 -1.1143  1.7219 -0.2469
 8637TIP3    H247403   6.777   6.020  11.825 -0.0498 -0.4789  0.8362
 8638TIP3   OH247404   0.453   2.562  14.849  0.2883  0.4753  0.0290
 8638TIP3    H147405   0.434   2.494  14.913  1.1921 -1.4271 -1.5911
 8638TIP3    H247406   0.371   2.574  14.802  0.2333  0.1595  0.0398
 8639TIP3   OH247407   4.583   3.091  15.886  0.0017  0.4081  0.0970
 8639TIP3    H147408   4.538   3.171  15.860  0.1471  0.0716 -1.2484
 8639TIP3    H247409   4.537   3.022  15.839  2.5425  0.1380 -2.2059
 8640TIP3   OH247410   5.760   4.360   6.741  0.1449 -0.6253 -0.0511
 8640TIP3    H147411   5.766   4.418   6.665 -0.2097 -1.3945 -0.6756
 8640TIP3    H247412   5.717   4.413   6.808 -1.4626 -0.5704 -1.0591
 8641TIP3   OH247413   2.616   3.761   5.443 -0.2774  0.1360 -0.2564
 8641TIP3    H147414   2.700   3.788   5.408  0.5650 -2.2402 -0.2320
 8641TIP3    H247415   2.631   3.752   5.537 -0.9288  0.8624 -0.0675
 8642TIP3   OH247416   6.193   4.574   1.032  0.5923 -0.4360  0.4741
 8642TIP3    H147417   6.159   4.635   0.965  2.1434  0.4147  0.4141
 8642TIP3    H247418   6.242   4.509   0.982  1.4305 -0.0198  0.7422
 8643TIP3   OH247419   3.044   5.786   0.015 -0.3227  0.0732 -0.4077
 8643TIP3    H147420   2.984   5.812   0.085  0.4397 -0.6012  0.5150
 8643TIP3    H247421   3.037   5.691   0.012  2.2351 -0.2477  1.1739
 8644TIP3   OH247422   1.697   0.666  16.217  0.1546 -0.1408  0.3919
 8644TIP3    H147423   1.787   0.693  16.237 -0.6492  1.7416  1.8192
 8644TIP3    H247424   1.674   0.716  16.138 -0.8592  2.5110  2.2361
 8645TIP3   OH247425   3.763   0.206  15.931 -0.2437  0.5277 -0.0241
 8645TIP3    H147426   3.846   0.161  15.946  0.4509  1.4315 -0.9993
 8645TIP3    H247427   3.749   0.198  15.837  0.4709  3.2417 -0.4308
 8646TIP3   OH247428   3.643   4.639   1.455  0.0187 -0.3376 -0.4314
 8646TIP3    H147429   3.736   4.618   1.468  1.5013  3.7816 -2.4137
 8646TIP3    H247430   3.609   4.653   1.543  1.8713  0.0749  0.2685
 8647TIP3   OH247431   0.205   5.236  13.708  0.2186 -0.5302  0.4097
 8647TIP3    H147432   0.117   5.241  13.743  0.2985  1.7197  0.4332
 8647TIP3    H247433   0.199   5.171  13.638 -2.0835  1.2159 -1.1787
 8648TIP3   OH247434   4.053   1.701  16.331 -0.4284  0.5278  0.7535
 8648TIP3    H147435   4.143   1.715  16.304 -1.3739  3.4516 -1.5045
 8648TIP3    H247436   4.029   1.616  16.294  0.9685  0.4353  0.0103
 8649TIP3   OH247437   3.486   0.906   2.620  0.6370  0.4180 -0.1282
 8649TIP3    H147438   3.519   0.817   2.627  1.4931  0.7692  0.4457
 8649TIP3    H247439   3.391   0.897   2.629  0.8003 -0.3172  1.1622
 8650TIP3   OH247440   6.158   4.493  13.520  0.6005 -0.4209  0.2944
 8650TIP3    H147441   6.215   4.563  13.550  0.1556 -0.4335  1.2266
 8650TIP3    H247442   6.208   4.413  13.533  0.6511 -0.3706  0.4097
 8651TIP3   OH247443   3.616   5.864   3.998  0.5785 -0.2449  0.0448
 8651TIP3    H147444   3.709   5.848   4.009  0.5595  0.5357  1.5913
 8651TIP3    H247445   3.604   5.956   4.023 -0.4123  0.0550 -1.4089
 8652TIP3   OH247446   2.652   2.456  15.858  0.1859  0.1030 -0.2884
 8652TIP3    H147447   2.715   2.398  15.817  1.5978  0.3470  1.4027
 8652TIP3    H247448   2.701   2.537  15.875 -0.5861  0.3365  0.9758
 8653TIP3   OH247449   2.838   2.241   5.390 -0.5965 -0.1358 -0.2774
 8653TIP3    H147450   2.924   2.222   5.427 -1.3618 -4.3549 -0.1849
 8653TIP3    H247451   2.855   2.254   5.296  0.3938  2.3410  0.1715
 8654TIP3   OH247452   6.281   1.429  13.363 -1.1058  0.3556 -0.5451
 8654TIP3    H147453   6.300   1.481  13.285  1.2440  0.7722  0.2488
 8654TIP3    H247454   6.310   1.341  13.341 -0.3940  0.4837 -0.1345
 8655TIP3   OH247455   3.763   1.303   2.646 -0.5781  0.5101  0.0409
 8655TIP3    H147456   3.724   1.311   2.560 -0.3262 -0.3199 -0.1594
 8655TIP3    H247457   3.755   1.210   2.668  2.8004 -0.0946 -0.7613
 8656TIP3   OH247458   1.110   4.598   3.325  0.2712 -0.3347 -0.5216
 8656TIP3    H147459   1.082   4.564   3.409 -0.7695  0.8900 -0.3301
 8656TIP3    H247460   1.059   4.549   3.261 -0.7297  0.3558 -0.2843
 8657TIP3   OH247461   0.845   6.544  17.213 -0.3275 -0.2306 -0.3833
 8657TIP3    H147462   0.828   6.637  17.229 -1.7335 -0.3546 -1.0709
 8657TIP3    H247463   0.920   6.544  17.153  0.6555  0.3961  0.7859
 8658TIP3   OH247464   4.964   5.751   3.858 -0.6538  0.1354  0.1200
 8658TIP3    H147465   5.048   5.791   3.880 -1.1581  0.0798  2.4127
 8658TIP3    H247466   4.921   5.738   3.942 -3.2655  0.7648 -1.0243
 8659TIP3   OH247467   1.933   1.348   0.609  0.0596  0.0787  0.0283
 8659TIP3    H147468   2.010   1.298   0.583  0.9093  0.2471  2.0033
 8659TIP3    H247469   1.859   1.303   0.569  1.2474  1.0019 -3.5368
 8660TIP3   OH247470   6.800   2.427  12.439 -0.4113 -0.0926  0.0367
 8660TIP3    H147471   6.802   2.522  12.448  1.3014 -0.1387  0.3437
 8660TIP3    H247472   6.779   2.412  12.347  0.8095  0.6112 -0.3694
 8661TIP3   OH247473   2.334   4.027  11.861 -0.4566 -0.2419  0.2142
 8661TIP3    H147474   2.257   4.061  11.907  1.0665  1.5597  1.5537
 8661TIP3    H247475   2.407   4.081  11.891  1.2099 -1.2167 -1.7744
 8662TIP3   OH247476   1.915   5.999  12.163 -0.0569 -0.4818 -0.6025
 8662TIP3    H147477   1.948   6.025  12.078  0.4283  1.7480  0.1985
 8662TIP3    H247478   1.821   6.018  12.160  0.1872  0.8992 -0.2357
 8663TIP3   OH247479   6.697   0.072   5.352  0.3049  0.2871  0.1450
 8663TIP3    H147480   6.667   0.033   5.433  2.9274 -0.1706  1.0116
 8663TIP3    H247481   6.671   0.010   5.284  1.2106 -1.1807  1.0844
 8664TIP3   OH247482   1.033   1.104   5.825  0.3193 -0.0515  0.3941
 8664TIP3    H147483   1.084   1.124   5.904  2.8261 -0.4376 -1.0285
 8664TIP3    H247484   1.054   1.175   5.765 -1.4732  0.1771 -0.0215
 8665TIP3   OH247485   4.899   1.000   4.476  0.3343  0.2832 -0.6151
 8665TIP3    H147486   4.985   0.990   4.434  0.3797  3.2656 -1.4990
 8665TIP3    H247487   4.916   1.056   4.552 -0.7870  0.9583 -0.8296
 8666TIP3   OH247488   3.059   0.181   3.853 -0.1974  0.1141 -0.2945
 8666TIP3    H147489   2.977   0.226   3.876  0.1134 -0.2694  1.7831
 8666TIP3    H247490   3.125   0.251   3.852 -0.3272  0.2335 -0.7035
 8667TIP3   OH247491   4.655   1.944   1.063 -0.0000 -0.5025 -0.1212
 8667TIP3    H147492   4.638   2.005   0.992  0.0693  1.2377  1.2832
 8667TIP3    H247493   4.749   1.930   1.061 -0.2252 -2.1213 -1.6130
 8668TIP3   OH247494   1.932   0.664  12.293  0.8098  0.2506  0.2937
 8668TIP3    H147495   1.881   0.694  12.218 -1.8371 -2.0309  1.0149
 8668TIP3    H247496   2.002   0.611  12.255  0.4903  0.4599 -0.6107
 8669TIP3   OH247497   3.114   6.355  11.016  0.3822 -0.1495  0.0707
 8669TIP3    H147498   3.132   6.264  10.996 -1.7239 -1.6540  3.9757
 8669TIP3    H247499   3.151   6.369  11.103 -1.6747  1.8308  0.7549
 8670TIP3   OH247500   2.226   0.765   5.215  0.3420  0.3085 -0.0338
 8670TIP3    H147501   2.262   0.840   5.263  0.1740  0.3496  0.0279
 8670TIP3    H247502   2.303   0.712   5.193  1.0860  2.5657 -3.7847
 8671TIP3   OH247503   5.342   4.634   4.149  0.3908 -0.3181  1.0012
 8671TIP3    H147504   5.397   4.634   4.227  1.4602 -2.1826  0.2983
 8671TIP3    H247505   5.394   4.678   4.082 -1.1305  2.7125  1.6345
 8672TIP3   OH247506   1.344   5.035  14.712 -0.2350 -0.4759 -0.4231
 8672TIP3    H147507   1.359   5.100  14.780  1.0166 -0.5011 -0.6577
 8672TIP3    H247508   1.264   4.989  14.739  0.1658 -0.3931  0.9397
 8673TIP3   OH247509   6.766   1.176  16.217  0.2212 -0.0276  0.2592
 8673TIP3    H147510   6.805   1.264  16.218  0.2968 -0.0479 -0.4556
 8673TIP3    H247511   6.762   1.153  16.124  0.6039 -0.9589  0.4598
 8674TIP3   OH247512   5.234   3.655  16.573 -0.3278  0.0188  0.0450
 8674TIP3    H147513   5.280   3.641  16.656 -1.7062  1.4662  1.1093
 8674TIP3    H247514   5.282   3.600  16.510 -0.2526 -2.4767  2.0959
 8675TIP3   OH247515   4.717   5.161   3.854 -0.1181  0.5169  0.4650
 8675TIP3    H147516   4.704   5.086   3.795 -2.1741 -0.4881  2.0626
 8675TIP3    H247517   4.701   5.237   3.798 -3.1075 -0.4323 -0.1751
 8676TIP3   OH247518   3.905   6.093  11.211  0.5474 -0.3860 -0.2995
 8676TIP3    H147519   3.997   6.085  11.237  0.7905  0.6292 -0.8143
 8676TIP3    H247520   3.907   6.097  11.116 -0.1425 -1.5571 -0.3875
 8677TIP3   OH247521   5.444   1.582  17.237  0.2170  0.0162  0.0148
 8677TIP3    H147522   5.475   1.665  17.275 -2.1309  0.5769  0.9129
 8677TIP3    H247523   5.511   1.558  17.174  1.4383  2.1283  0.3950
 8678TIP3   OH247524   2.234   1.054   4.465  0.4189  0.2043 -0.5226
 8678TIP3    H147525   2.196   0.997   4.532 -0.4907  0.5541 -0.7287
 8678TIP3    H247526   2.322   1.074   4.498  0.7361 -1.2461 -0.4203
 8679TIP3   OH247527   2.013   6.161   2.298  0.2759  0.3084 -0.4433
 8679TIP3    H147528   1.999   6.089   2.360  1.9063 -0.4880 -0.9448
 8679TIP3    H247529   1.988   6.124   2.213  0.7351  0.4639 -0.6462
 8680TIP3   OH247530   1.198   1.620  13.661 -0.0722  0.0564 -0.9076
 8680TIP3    H147531   1.134   1.581  13.601  0.1116 -2.1521  0.2267
 8680TIP3    H247532   1.275   1.637  13.606 -1.1021  1.4490 -1.9862
 8681TIP3   OH247533   4.273   6.342  16.162  0.2205  0.0866 -0.5367
 8681TIP3    H147534   4.220   6.405  16.113 -0.0996  0.5661  0.3992
 8681TIP3    H247535   4.242   6.257  16.132  1.3753  0.3034 -2.6050
 8682TIP3   OH247536   0.440   1.013   3.421  0.4489 -0.5221 -0.9093
 8682TIP3    H147537   0.459   0.993   3.329  3.7637  0.0335 -0.4716
 8682TIP3    H247538   0.510   0.970   3.470  0.2748  1.3424  1.1199
 8683TIP3   OH247539   0.077   3.410  12.667 -0.3111  0.4089  0.1971
 8683TIP3    H147540   0.121   3.392  12.584 -1.5076 -2.1528  0.0246
 8683TIP3    H247541   0.142   3.386  12.734  0.1271  1.0339  0.0019
 8684TIP3   OH247542   3.404   6.580   3.736 -0.2617 -0.2680  0.4255
 8684TIP3    H147543   3.309   6.587   3.746 -0.7180 -1.2710 -2.2786
 8684TIP3    H247544   3.438   6.664   3.767 -2.5215  2.0683 -2.7792
 8685TIP3   OH247545   0.525   4.979   1.240 -0.5206 -0.3343  0.1843
 8685TIP3    H147546   0.567   5.044   1.183  0.0733 -1.2232 -0.4113
 8685TIP3    H247547   0.481   5.031   1.307  0.8397  0.6613  0.3476
 8686TIP3   OH247548   4.202   1.505   5.405  0.1712 -0.1430 -0.2312
 8686TIP3    H147549   4.231   1.515   5.314 -3.8312  0.7328 -1.5912
 8686TIP3    H247550   4.177   1.413   5.412  0.3211 -0.1706 -0.0411
 8687TIP3   OH247551   3.106   5.371   2.000  0.3090  0.0708  0.1829
 8687TIP3    H147552   3.186   5.322   2.018  0.3989  0.5246  1.0346
 8687TIP3    H247553   3.035   5.310   2.022  0.3845 -0.4951 -0.9949
 8688TIP3   OH247554   1.918   2.951  14.064 -0.0558 -0.4457  0.4855
 8688TIP3    H147555   1.827   2.919  14.063  0.5649 -2.3418 -0.6259
 8688TIP3    H247556   1.913   3.037  14.107 -2.7526  0.7136 -1.8461
 8689TIP3   OH247557   4.628   3.717   2.797  0.8683  0.4764  0.6702
 8689TIP3    H147558   4.534   3.729   2.787  0.4754 -3.1243 -1.5600
 8689TIP3    H247559   4.667   3.789   2.747 -0.9009 -0.5921 -2.5426
 8690TIP3   OH247560   3.167   5.388   6.320  0.4465 -0.4033  0.6282
 8690TIP3    H147561   3.158   5.293   6.332  1.3809 -0.6952 -0.7425
 8690TIP3    H247562   3.116   5.426   6.391 -1.1583 -1.9280  0.3675
 8691TIP3   OH247563   0.343   4.060   1.827  0.1366 -0.6613 -0.1974
 8691TIP3    H147564   0.322   4.153   1.831  1.7655 -0.2653 -0.2546
 8691TIP3    H247565   0.428   4.056   1.782 -0.2197 -2.2272 -0.8052
 8692TIP3   OH247566   1.423   2.347   2.683  0.1086 -0.0406  0.4827
 8692TIP3    H147567   1.330   2.359   2.661 -0.3168 -1.7176  1.1722
 8692TIP3    H247568   1.449   2.430   2.722 -1.8269 -0.3210  2.5964
 8693TIP3   OH247569   4.880   5.893  13.506 -0.3393 -0.2779  0.1561
 8693TIP3    H147570   4.830   5.824  13.462 -0.9142  0.8007 -0.9593
 8693TIP3    H247571   4.953   5.910  13.447 -0.1294 -0.0263  0.4862
 8694TIP3   OH247572   0.862   1.556  11.776  0.1889  0.0368 -0.4063
 8694TIP3    H147573   0.903   1.620  11.834  0.2377 -0.6766  0.3703
 8694TIP3    H247574   0.824   1.608  11.705  1.6217  0.7971 -0.6655
 8695TIP3   OH247575   6.091   3.395   1.937 -0.0896  0.2452 -0.2619
 8695TIP3    H147576   6.018   3.411   1.996 -0.2123 -1.7569  0.1813
 8695TIP3    H247577   6.162   3.366   1.993  0.7964  1.2907 -0.7928
 8696TIP3   OH247578   1.857   5.751   4.708 -0.4540  0.2221 -0.2662
 8696TIP3    H147579   1.876   5.838   4.673 -1.6316 -0.0152 -1.5938
 8696TIP3    H247580   1.872   5.759   4.803  0.8841  1.4450 -0.5565
 8697TIP3   OH247581   4.729   1.533   3.804  0.0121  0.2235  0.6775
 8697TIP3    H147582   4.799   1.586   3.768 -0.4802  0.9794  0.7974
 8697TIP3    H247583   4.773   1.458   3.843  0.7406  0.6548  0.7023
 8698TIP3   OH247584   6.722   0.672  13.075 -0.1462 -0.1119 -0.5209
 8698TIP3    H147585   6.628   0.664  13.058 -0.0625  1.6812 -2.2834
 8698TIP3    H247586   6.737   0.767  13.079  1.6900 -0.3451 -0.9437
 8699TIP3   OH247587   3.721   5.587   2.008 -0.7305 -0.0975 -0.2072
 8699TIP3    H147588   3.767   5.614   2.088 -1.2590  1.1416 -0.2910
 8699TIP3    H247589   3.696   5.670   1.966 -2.9441 -0.7244 -0.2233
 8700TIP3   OH247590   2.505   3.443   2.080  0.0144  0.7301 -0.5152
 8700TIP3    H147591   2.416   3.474   2.061 -0.3799 -1.1133 -1.9506
 8700TIP3    H247592   2.549   3.443   1.995 -0.3914 -3.5691 -0.9501
 8701TIP3   OH247593   3.736   6.256   6.123 -0.3812 -0.1430  0.0260
 8701TIP3    H147594   3.729   6.165   6.150 -1.0926  0.4579  2.0155
 8701TIP3    H247595   3.830   6.268   6.105 -0.0644 -0.9138  1.0708
 8702TIP3   OH247596   6.084   1.196  15.712 -0.2262 -0.4014 -0.0663
 8702TIP3    H147597   6.169   1.155  15.729 -0.1525 -0.4227 -0.4897
 8702TIP3    H247598   6.099   1.290  15.726  0.3307 -0.1867 -1.9296
 8703TIP3   OH247599   2.991   0.592  14.486 -0.0415 -0.0983 -0.0996
 8703TIP3    H147600   2.986   0.607  14.391  0.5142 -1.0659 -0.2977
 8703TIP3    H247601   3.068   0.536  14.497  0.4539  0.7711  1.0281
 8704TIP3   OH247602   1.019   0.672  12.605 -0.2852  0.7094  1.1216
 8704TIP3    H147603   1.108   0.663  12.570  0.0861  4.1139  0.8952
 8704TIP3    H247604   0.971   0.598  12.567  1.7281  0.4343 -1.1236
 8705TIP3   OH247605   6.497   5.639  14.998  0.0844 -0.2627 -0.0740
 8705TIP3    H147606   6.498   5.694  14.920 -1.4569 -0.3082 -0.1663
 8705TIP3    H247607   6.433   5.571  14.979 -0.3302 -0.2752  1.2201
 8706TIP3   OH247608   3.653   1.939  13.293  0.1047 -0.5239  0.4585
 8706TIP3    H147609   3.675   1.848  13.314 -1.8863 -0.9848  0.7333
 8706TIP3    H247610   3.612   1.934  13.207 -1.9964 -0.2500  1.3786
 8707TIP3   OH247611   3.145   4.973  11.183 -0.4753  0.9287 -0.0647
 8707TIP3    H147612   3.099   5.055  11.165 -0.0649  1.0876 -0.4304
 8707TIP3    H247613   3.205   4.995  11.255  0.6997  1.3626 -1.1464
 8708TIP3   OH247614   5.235   6.407   2.902 -0.0058 -0.5871 -0.9292
 8708TIP3    H147615   5.173   6.438   2.836 -0.8573  1.8148  0.8356
 8708TIP3    H247616   5.180   6.369   2.971  0.6531 -0.7441 -0.4761
 8709TIP3   OH247617   0.537   3.766  15.101 -0.5909 -0.0434  0.0652
 8709TIP3    H147618   0.579   3.800  15.180 -0.3962  1.2881 -0.5852
 8709TIP3    H247619   0.610   3.740  15.044 -0.6695  0.8115 -0.4412
 8710TIP3   OH247620   5.876   5.287  13.924 -0.2545 -0.3405 -0.1745
 8710TIP3    H147621   5.940   5.347  13.886 -1.6412  0.8102 -0.7861
 8710TIP3    H247622   5.900   5.201  13.891  2.2103 -0.2888  1.2853
 8711TIP3   OH247623   6.314   5.820  13.585  0.5520  0.4759 -0.1651
 8711TIP3    H147624   6.347   5.785  13.668 -1.1624 -1.8231 -0.3453
 8711TIP3    H247625   6.391   5.820  13.527  0.7584 -3.4797 -0.1919
 8712TIP3   OH247626   3.299   1.685   0.818 -0.2545 -0.4349  0.1502
 8712TIP3    H147627   3.289   1.760   0.759 -1.1263 -0.8189 -0.2192
 8712TIP3    H247628   3.314   1.724   0.904  0.6045  0.1409 -0.2449
 8713TIP3   OH247629   4.482   2.371  16.130 -0.2420  0.1969  0.0547
 8713TIP3    H147630   4.538   2.366  16.208  0.0198 -0.0306 -0.1470
 8713TIP3    H247631   4.535   2.334  16.060 -0.0919  1.3596 -0.4619
 8714TIP3   OH247632   6.129   5.251   2.775 -0.4705  0.4839 -0.1069
 8714TIP3    H147633   6.038   5.229   2.760 -0.4537  0.6803 -0.5043
 8714TIP3    H247634   6.143   5.235   2.868 -0.7939  0.0448 -0.1353
 8715TIP3   OH247635   0.800   4.404  13.136  0.0338  0.3971 -0.1868
 8715TIP3    H147636   0.713   4.368  13.149 -0.7178  2.3616  0.5965
 8715TIP3    H247637   0.785   4.488  13.092  1.6142  0.2707 -1.0302
 8716TIP3   OH247638   2.472   2.439  16.057  0.1381  0.3072  0.4554
 8716TIP3    H147639   2.522   2.497  16.115  1.2195  1.6806 -1.7392
 8716TIP3    H247640   2.531   2.421  15.984 -1.9646  0.6641 -1.4478
 8717TIP3   OH247641   1.617   3.977   6.034  0.5086 -0.2837 -0.6339
 8717TIP3    H147642   1.622   3.942   5.945  0.9471  0.2287 -0.8151
 8717TIP3    H247643   1.708   3.987   6.061  0.3850  0.2850 -0.4167
 8718TIP3   OH247644   2.558   5.820  14.045  0.6867  0.5643 -0.6215
 8718TIP3    H147645   2.524   5.788  13.962  1.8644  0.7046 -1.1764
 8718TIP3    H247646   2.482   5.854  14.091  0.0368  0.5640 -1.6762
 8719TIP3   OH247647   4.014   2.508  16.259 -0.0475 -0.0826  0.1407
 8719TIP3    H147648   3.941   2.509  16.198  0.4064  2.0896 -0.4339
 8719TIP3    H247649   4.086   2.467  16.210  0.0286  0.7416 -0.4455
 8720TIP3   OH247650   3.350   3.200  15.594 -0.6285  0.1792  0.1847
 8720TIP3    H147651   3.278   3.249  15.556 -0.4621 -1.7032 -2.9129
 8720TIP3    H247652   3.316   3.112  15.607  0.5388 -0.2498  0.5042
 8721TIP3   OH247653   2.478   1.898   3.270 -0.0296  0.6184  0.2267
 8721TIP3    H147654   2.553   1.839   3.273 -0.8050 -0.4135  0.1022
 8721TIP3    H247655   2.482   1.938   3.183  1.7493  2.5010  1.0823
 8722TIP3   OH247656   0.755   0.127  11.556 -0.9289 -0.2655 -0.3753
 8722TIP3    H147657   0.796   0.141  11.471 -1.5222  2.0339 -0.3270
 8722TIP3    H247658   0.670   0.086  11.535 -0.9226 -0.0330 -0.8717
 8723TIP3   OH247659   1.270   3.848   3.957 -1.0027 -0.0156 -0.1671
 8723TIP3    H147660   1.356   3.887   3.975 -1.4027  1.1530 -0.6893
 8723TIP3    H247661   1.287   3.781   3.891 -0.3765 -0.4031  0.3695
 8724TIP3   OH247662   4.273   0.186  15.951 -0.3993 -0.9116  0.1074
 8724TIP3    H147663   4.200   0.229  15.995  0.8215  0.2973  1.0236
 8724TIP3    H247664   4.232   0.118  15.897 -2.0388 -1.5546  2.0619
 8725TIP3   OH247665   0.356   0.328  17.033 -0.2045 -0.2139 -0.1395
 8725TIP3    H147666   0.449   0.337  17.054 -0.3548 -0.5696  0.7065
 8725TIP3    H247667   0.355   0.294  16.943  0.4540  1.1021 -0.6717
 8726TIP3   OH247668   0.929   4.663   1.318 -0.5778 -0.9417 -0.6119
 8726TIP3    H147669   0.958   4.572   1.325  2.0432 -0.1575 -0.0401
 8726TIP3    H247670   0.865   4.673   1.388  1.9667 -1.4396  2.0016
 8727TIP3   OH247671   5.433   5.881   0.774 -0.0709 -0.4982  0.0638
 8727TIP3    H147672   5.524   5.883   0.803 -0.0687  1.0768  0.0403
 8727TIP3    H247673   5.429   5.811   0.709  1.7296  0.9844 -1.7896
 8728TIP3   OH247674   4.189   3.458   1.496 -0.4910 -0.1066  0.4193
 8728TIP3    H147675   4.192   3.368   1.530 -0.9445  0.0702  0.9467
 8728TIP3    H247676   4.247   3.507   1.554  0.9009 -0.3238 -0.7423
 8729TIP3   OH247677   3.548   5.708  12.659  0.1437 -0.8283  0.5875
 8729TIP3    H147678   3.616   5.675  12.718  1.6723 -1.5312 -1.4530
 8729TIP3    H247679   3.570   5.800  12.646  1.7178 -1.3815 -1.2186
 8730TIP3   OH247680   1.834   1.771   0.840  0.2065  0.0050  0.0002
 8730TIP3    H147681   1.899   1.733   0.780 -1.3708 -1.6189 -0.7555
 8730TIP3    H247682   1.762   1.799   0.783  0.0906  1.5814  0.8499
 8731TIP3   OH247683   0.104   6.588   0.392  0.1996 -0.4151 -0.0088
 8731TIP3    H147684   0.054   6.544   0.323  1.2615 -0.3747 -0.8346
 8731TIP3    H247685   0.164   6.646   0.345 -0.2590  0.9398  1.0256
 8732TIP3   OH247686   0.681   3.680  10.702 -0.0901 -0.3085  0.2423
 8732TIP3    H147687   0.593   3.665  10.667  0.1187 -0.2239 -0.3375
 8732TIP3    H247688   0.737   3.621  10.652  0.2359 -0.0971  0.3542
 8733TIP3   OH247689   2.642   3.021   2.937 -0.2689 -0.0424 -0.6575
 8733TIP3    H147690   2.561   3.046   2.892 -0.2704  0.9687 -0.1160
 8733TIP3    H247691   2.618   3.019   3.030  0.9898  3.2113 -0.1417
 8734TIP3   OH247692   0.174   3.527  12.059 -0.2662 -0.6446 -0.1307
 8734TIP3    H147693   0.174   3.622  12.072 -1.7998 -0.7386  0.7644
 8734TIP3    H247694   0.188   3.516  11.965  1.7511  0.3787 -0.0101
 8735TIP3   OH247695   3.152   1.445   4.806 -0.7248  0.2533  0.5242
 8735TIP3    H147696   3.125   1.537   4.802  1.7395  1.0138 -1.4953
 8735TIP3    H247697   3.246   1.447   4.786 -0.9847 -2.8617 -1.6921
 8736TIP3   OH247698   4.200   3.208  15.415  0.0756 -0.4331 -0.3688
 8736TIP3    H147699   4.232   3.284  15.367  1.6555 -1.2439 -0.6386
 8736TIP3    H247700   4.104   3.213  15.406  0.2519  0.2646 -2.2989
 8737TIP3   OH247701   3.085   4.955   3.750 -0.0310  0.7609  0.8421
 8737TIP3    H147702   3.051   4.972   3.838 -0.4593  0.6310  0.7088
 8737TIP3    H247703   3.006   4.946   3.696  0.1465 -1.1052  0.8060
 8738TIP3   OH247704   6.203   5.031  12.246 -0.1646  0.4175  0.5451
 8738TIP3    H147705   6.194   4.946  12.203  0.4965  0.8207 -0.4387
 8738TIP3    H247706   6.146   5.026  12.322 -1.7702 -0.1698 -0.6397
 8739TIP3   OH247707   0.151   1.892  15.655  0.0888 -0.1020  0.6119
 8739TIP3    H147708   0.060   1.923  15.649 -0.1368 -0.8379  0.0078
 8739TIP3    H247709   0.204   1.971  15.648 -0.4227  0.1226 -2.4171
 8740TIP3   OH247710   2.045   5.790  11.876  0.0929  0.0072  0.2110
 8740TIP3    H147711   2.005   5.825  11.796  0.6773  2.3228  0.8553
 8740TIP3    H247712   2.086   5.708  11.849  1.2925  1.3045 -2.1546
 8741TIP3   OH247713   0.964   3.332   0.388 -0.5382 -0.1656  0.8637
 8741TIP3    H147714   0.974   3.408   0.331  0.1700 -0.4446  0.6156
 8741TIP3    H247715   1.007   3.261   0.341 -0.4315 -0.5220  1.5014
 8742TIP3   OH247716   6.493   5.500  12.741 -0.0560 -0.2759  0.6898
 8742TIP3    H147717   6.472   5.430  12.680  0.4494 -0.9718  1.3063
 8742TIP3    H247718   6.420   5.563  12.731  0.0826 -0.3043 -0.7067
 8743TIP3   OH247719   5.233   1.221  11.784  0.2347 -0.6788 -0.2810
 8743TIP3    H147720   5.299   1.288  11.768  0.8178 -1.1598  0.0514
 8743TIP3    H247721   5.154   1.254  11.741 -0.0409  1.1101  1.4413
 8744TIP3   OH247722   5.265   4.667  12.448  0.4930  0.5837 -0.3199
 8744TIP3    H147723   5.187   4.719  12.463 -0.3628 -0.9303  0.7420
 8744TIP3    H247724   5.337   4.722  12.480 -0.3253  1.2863  0.3459
 8745TIP3   OH247725   2.576   1.670  14.820  0.4084  0.2469 -0.0609
 8745TIP3    H147726   2.557   1.742  14.879 -1.3828  0.3748 -0.7490
 8745TIP3    H247727   2.634   1.708  14.754  0.8764  0.5838  0.5351
 8746TIP3   OH247728   6.245   0.199  14.130  0.2080 -0.0343  0.7773
 8746TIP3    H147729   6.257   0.171  14.221  0.7520 -1.6070  0.2450
 8746TIP3    H247730   6.150   0.208  14.120  0.1787  0.8202  1.6754
 8747TIP3   OH247731   4.564   5.461  12.260 -0.3433 -0.3030 -0.3831
 8747TIP3    H147732   4.611   5.543  12.272 -0.4536 -0.1068 -1.2210
 8747TIP3    H247733   4.534   5.463  12.169 -1.2391 -0.8116 -0.1140
 8748TIP3   OH247734   0.166   0.426   2.434 -0.1373 -0.0180 -0.2435
 8748TIP3    H147735   0.183   0.382   2.518  1.8976 -0.0668 -0.6302
 8748TIP3    H247736   0.109   0.365   2.387  1.7109 -1.7765 -0.3203
 8749TIP3   OH247737   2.721   0.772   1.924 -0.2619  0.2064  0.0264
 8749TIP3    H147738   2.801   0.739   1.882  0.8076  0.1655  1.9517
 8749TIP3    H247739   2.740   0.864   1.942 -0.3855  0.0423  1.0476
 8750TIP3   OH247740   1.460   3.732   4.221 -0.1211  0.1315 -0.2018
 8750TIP3    H147741   1.517   3.767   4.289  3.0043  0.4028 -2.7563
 8750TIP3    H247742   1.436   3.808   4.169  1.3706 -0.5809 -2.0222
 8751TIP3   OH247743   2.295   6.070   4.224 -0.1971  0.3995  0.1350
 8751TIP3    H147744   2.295   6.091   4.130 -0.5139  3.0111  0.6527
 8751TIP3    H247745   2.241   5.991   4.231  0.1453 -0.0736 -1.9043
 8752TIP3   OH247746   4.183   3.030  14.940 -0.4189  0.6970  0.2369
 8752TIP3    H147747   4.267   3.058  14.978  0.6405 -1.2747 -0.4773
 8752TIP3    H247748   4.208   2.964  14.875 -2.5876 -0.3481  0.4082
 8753TIP3   OH247749   6.570   4.260   2.203 -0.2367  0.0133  0.1932
 8753TIP3    H147750   6.641   4.212   2.162  0.8583  1.5723  0.1800
 8753TIP3    H247751   6.567   4.226   2.293  0.8505  0.2507  0.3302
 8754TIP3   OH247752   5.593   1.615  16.937 -0.2037  0.5595  0.4877
 8754TIP3    H147753   5.685   1.634  16.955  0.8404 -2.3092 -1.1404
 8754TIP3    H247754   5.552   1.701  16.931  1.9896  1.9222  2.7655
 8755TIP3   OH247755   0.723   5.737   3.660 -0.2468 -0.1083  0.5012
 8755TIP3    H147756   0.765   5.758   3.744 -0.0062  2.1577 -0.1150
 8755TIP3    H247757   0.653   5.801   3.652 -0.6531 -0.6886 -0.7513
 8756TIP3   OH247758   0.853   5.287   5.160  0.2413  0.0231  0.4164
 8756TIP3    H147759   0.780   5.305   5.220 -0.7197 -1.0113 -0.4028
 8756TIP3    H247760   0.898   5.213   5.200 -0.0819 -0.3255  0.1371
 8757TIP3   OH247761   6.768   0.228   4.192  0.0493 -0.2210  0.5263
 8757TIP3    H147762   6.699   0.177   4.149  0.5011  0.4110 -1.0048
 8757TIP3    H247763   6.818   0.267   4.121  1.0785  0.5703  1.6293
 8758TIP3   OH247764   5.616   0.133   0.330 -0.2889 -0.1266 -0.0732
 8758TIP3    H147765   5.553   0.193   0.289  2.0543  1.6221 -1.3989
 8758TIP3    H247766   5.616   0.157   0.422 -1.7396 -0.3623  0.0062
 8759TIP3   OH247767   4.583   6.286  14.614  0.1884 -0.2133  0.2898
 8759TIP3    H147768   4.647   6.217  14.629  0.2969 -0.3175 -0.6017
 8759TIP3    H247769   4.498   6.242  14.614  0.3300 -0.5311 -1.3054
 8760TIP3   OH247770   4.174   5.516   3.466 -0.4559  0.4161 -0.1766
 8760TIP3    H147771   4.119   5.517   3.544 -0.4042  0.5944 -0.1428
 8760TIP3    H247772   4.254   5.562   3.492 -1.1002  1.9665 -0.8178
 8761TIP3   OH247773   4.218   3.027   5.024  0.3495 -0.2790  0.3597
 8761TIP3    H147774   4.288   2.963   5.036  0.8420  0.3938  1.1125
 8761TIP3    H247775   4.225   3.085   5.100  0.9906  1.7115 -1.1426
 8762TIP3   OH247776   4.304   6.545   1.116 -0.1698 -0.4475  0.0780
 8762TIP3    H147777   4.388   6.591   1.123  0.2888 -1.2847  0.2582
 8762TIP3    H247778   4.275   6.536   1.207 -2.0173  2.5573 -0.0782
 8763TIP3   OH247779   2.836   2.968   3.190 -0.3662 -0.2270  0.4248
 8763TIP3    H147780   2.882   2.909   3.131 -0.5773  0.9421 -0.9532
 8763TIP3    H247781   2.903   3.025   3.226 -0.6152  1.0325 -1.0558
 8764TIP3   OH247782   5.927   6.030  16.797 -0.2756 -0.1830 -0.0440
 8764TIP3    H147783   5.933   5.951  16.850 -0.1407  0.3002  0.6677
 8764TIP3    H247784   5.841   6.068  16.818  0.8098  1.3993  1.8445
 8765TIP3   OH247785   6.099   4.245   2.100 -0.2403  0.3487 -0.1327
 8765TIP3    H147786   6.107   4.242   2.004  0.1779  0.4693 -0.1049
 8765TIP3    H247787   6.174   4.194   2.131  0.1647  1.0976  0.1440
 8766TIP3   OH247788   3.729   2.537  13.668 -0.2107 -0.1842 -0.3349
 8766TIP3    H147789   3.669   2.522  13.741  0.8645  0.8377  0.7843
 8766TIP3    H247790   3.815   2.549  13.708  0.7242 -1.2876 -1.8884
 8767TIP3   OH247791   1.914   1.002   5.237  1.0355  0.1356 -0.5406
 8767TIP3    H147792   1.912   0.985   5.142  1.3992 -0.4249 -0.4478
 8767TIP3    H247793   1.831   1.046   5.254  0.7264 -0.2398 -1.0341
 8768TIP3   OH247794   0.348   0.688  16.445 -0.2548  0.3859 -0.2111
 8768TIP3    H147795   0.345   0.649  16.532  0.4571 -1.7386 -1.0817
 8768TIP3    H247796   0.256   0.699  16.421 -0.4637  1.2756  0.8837
 8769TIP3   OH247797   3.027   0.922   3.796  0.5198  0.0028 -0.6538
 8769TIP3    H147798   3.037   1.016   3.805 -0.7159  0.0856  0.1579
 8769TIP3    H247799   2.972   0.910   3.718 -0.5969  0.0679  0.0907
 8770TIP3   OH247800   4.581   2.778  13.810 -0.1807 -0.0768 -0.4014
 8770TIP3    H147801   4.528   2.700  13.827 -0.5417  0.1477 -0.4934
 8770TIP3    H247802   4.571   2.831  13.889 -0.0095 -0.0825 -0.3768
 8771TIP3   OH247803   2.301   4.783   3.293 -0.2521 -0.1507 -0.6031
 8771TIP3    H147804   2.254   4.709   3.255  0.1766  0.4709 -2.4121
 8771TIP3    H247805   2.362   4.811   3.226  0.3904  1.1551  0.4625
 8772TIP3   OH247806   4.902   2.051   1.354  0.2802 -0.4929 -0.0757
 8772TIP3    H147807   4.937   2.133   1.317 -0.4304 -0.7691 -1.4326
 8772TIP3    H247808   4.817   2.076   1.391 -0.3520 -0.7589 -1.2962
 8773TIP3   OH247809   4.650   6.446  11.721 -0.0695 -0.0088  0.5976
 8773TIP3    H147810   4.731   6.478  11.682 -0.0831 -0.3767  0.2560
 8773TIP3    H247811   4.639   6.358  11.684 -0.9565  0.2892  0.1299
 8774TIP3   OH247812   4.278   1.917  14.343 -0.5304  0.5845 -0.1271
 8774TIP3    H147813   4.231   1.840  14.312  1.3298 -0.3279 -0.8778
 8774TIP3    H247814   4.274   1.978  14.271 -0.9359  0.6842 -0.0198
 8775TIP3   OH247815   1.127   2.645  15.025  0.3030  0.1417  0.7188
 8775TIP3    H147816   1.057   2.696  14.984 -0.3205 -1.5063 -0.3527
 8775TIP3    H247817   1.092   2.619  15.110  0.6770  1.5483  1.3362
 8776TIP3   OH247818   6.435   3.646   2.046  0.3302  0.5735  0.7007
 8776TIP3    H147819   6.523   3.621   2.019  0.0637 -0.7762  0.9993
 8776TIP3    H247820   6.437   3.741   2.050  1.1336  0.7080 -1.4588
 8777TIP3   OH247821   2.808   1.112  12.033  0.7508 -0.4396  0.0263
 8777TIP3    H147822   2.805   1.192  12.085 -0.0824 -1.0446  0.9473
 8777TIP3    H247823   2.845   1.047  12.093  0.2391 -1.0355 -0.2966
 8778TIP3   OH247824   5.361   5.758  15.884  0.2627  0.0443  0.0377
 8778TIP3    H147825   5.435   5.784  15.828  0.6236  1.0210  0.9273
 8778TIP3    H247826   5.401   5.712  15.957 -0.0019  0.5788  0.5274
 8779TIP3   OH247827   6.233   1.259  13.006  0.3192 -0.1635 -0.3524
 8779TIP3    H147828   6.199   1.169  13.010  1.2594 -0.5170 -0.0103
 8779TIP3    H247829   6.158   1.311  12.977 -0.5001 -0.9199  0.3197
 8780TIP3   OH247830   1.541   0.187  14.203  0.3006  0.6179 -0.1996
 8780TIP3    H147831   1.470   0.136  14.163  0.6604 -0.4914  0.5451
 8780TIP3    H247832   1.617   0.170  14.148  0.3065  0.7272 -0.2243
 8781TIP3   OH247833   2.923   4.789  16.665  0.1153 -0.3247 -0.0540
 8781TIP3    H147834   2.829   4.777  16.682  0.3529  0.1423  1.9059
 8781TIP3    H247835   2.961   4.702  16.672 -0.0485 -0.3844  0.0904
 8782TIP3   OH247836   0.634   2.061   1.907 -0.0789 -0.0691 -0.5664
 8782TIP3    H147837   0.657   1.999   1.838 -3.4580 -0.1078 -1.8440
 8782TIP3    H247838   0.614   2.006   1.983 -0.5149 -0.3634 -0.8915
 8783TIP3   OH247839   2.455   3.542  13.948 -0.0604  0.0126 -0.2833
 8783TIP3    H147840   2.489   3.560  14.036  0.6346  0.4453 -0.6234
 8783TIP3    H247841   2.461   3.447  13.939  1.2831  0.0877 -0.3974
 8784TIP3   OH247842   2.396   6.309   4.990  0.1213  0.0641 -0.5454
 8784TIP3    H147843   2.358   6.241   4.935  0.0605  0.6422 -1.2374
 8784TIP3    H247844   2.333   6.321   5.061  0.1008 -0.5483 -0.4568
 8785TIP3   OH247845   1.191   2.824   2.699  0.5419  0.0313  0.4271
 8785TIP3    H147846   1.148   2.908   2.686  1.3207  0.3236 -0.3540
 8785TIP3    H247847   1.123   2.766   2.732 -0.1249  0.8251  0.4576
 8786TIP3   OH247848   2.232   0.492   5.124 -0.0621  0.0668 -0.8766
 8786TIP3    H147849   2.267   0.526   5.042 -0.2332 -0.0183 -0.9863
 8786TIP3    H247850   2.285   0.415   5.143 -0.1051  0.0137 -0.9731
 8787TIP3   OH247851   4.552   2.667   0.140 -0.3819  0.2502 -0.4210
 8787TIP3    H147852   4.622   2.685   0.203  0.5745 -0.5335 -1.2376
 8787TIP3    H247853   4.500   2.748   0.139 -0.4378  0.2774  1.3684
 8788TIP3   OH247854   0.745   0.749  13.501 -0.0591 -0.2527 -0.1581
 8788TIP3    H147855   0.682   0.710  13.440  0.3871  0.0494 -0.8275
 8788TIP3    H247856   0.826   0.754  13.451  0.7527 -1.4775  0.9836
 8789TIP3   OH247857   2.942   4.262  13.525  0.6000 -0.4091 -0.3924
 8789TIP3    H147858   3.006   4.192  13.531 -0.2512 -1.1015  1.1632
 8789TIP3    H247859   2.960   4.317  13.602  0.0269 -0.0036 -0.5435
 8790TIP3   OH247860   1.260   5.187  16.460  0.2124  0.4679  0.0219
 8790TIP3    H147861   1.205   5.166  16.385 -0.5407  0.5167  0.5510
 8790TIP3    H247862   1.348   5.194  16.424 -0.3549  2.1894 -1.1566
 8791TIP3   OH247863   6.209   3.945  11.234 -0.2785 -0.4429  0.0836
 8791TIP3    H147864   6.210   3.859  11.194 -1.0826 -0.6458  0.4656
 8791TIP3    H247865   6.301   3.969  11.243 -0.0276 -1.4371  0.3311
 8792TIP3   OH247866   5.471   5.556   1.646 -0.0277  0.1905 -0.1295
 8792TIP3    H147867   5.454   5.599   1.730  2.9109  0.5587  0.3937
 8792TIP3    H247868   5.402   5.490   1.639 -0.9965  0.8632  2.0492
 8793TIP3   OH247869   5.750   2.278   5.559 -0.3421  0.0496  0.1312
 8793TIP3    H147870   5.665   2.260   5.599 -0.1355 -1.4311 -0.0600
 8793TIP3    H247871   5.804   2.310   5.632 -0.4653 -1.0128  0.7124
 8794TIP3   OH247872   0.589   6.666  11.771  0.2398 -0.4876 -0.3813
 8794TIP3    H147873   0.600   6.696  11.680  0.3968 -1.4911 -0.7084
 8794TIP3    H247874   0.559   6.575  11.763 -2.9066  0.3424  0.5534
 8795TIP3   OH247875   5.935   4.935  12.901  0.0575 -0.4088 -0.2966
 8795TIP3    H147876   5.963   4.844  12.899  1.1157 -0.1025  0.0922
 8795TIP3    H247877   5.955   4.965  12.989 -2.6835 -0.4952  0.4618
 8796TIP3   OH247878   4.684   1.468   5.113  0.3190 -0.6192  0.1230
 8796TIP3    H147879   4.618   1.491   5.178  1.8233  0.8692  1.1763
 8796TIP3    H247880   4.661   1.378   5.088 -1.8451 -0.3080  0.7222
 8797TIP3   OH247881   0.893   3.487  14.244  0.3816 -0.2676 -0.0166
 8797TIP3    H147882   0.930   3.400  14.257 -1.5463 -1.0294  0.7260
 8797TIP3    H247883   0.800   3.472  14.228 -0.0606  1.6713  0.3958
 8798TIP3   OH247884   4.998   4.693  16.281 -0.9057  0.2206  0.4689
 8798TIP3    H147885   4.998   4.748  16.203 -0.8091  0.7020  0.7969
 8798TIP3    H247886   5.082   4.648  16.279  0.0146  1.7861  1.3386
 8799TIP3   OH247887   0.642   4.739  13.311  0.9892 -0.4563  0.0098
 8799TIP3    H147888   0.654   4.818  13.363 -0.2584 -0.0663 -0.2547
 8799TIP3    H247889   0.636   4.669  13.375  1.5878 -0.2737  0.2744
 8800TIP3   OH247890   0.688   6.211  15.106 -0.4413 -0.0914 -0.2318
 8800TIP3    H147891   0.597   6.222  15.135 -0.3691 -0.2019  0.0444
 8800TIP3    H247892   0.684   6.219  15.011 -0.9953 -1.7990 -0.3931
 8801TIP3   OH247893   0.625   4.331  14.930 -0.0900 -0.3647 -0.7925
 8801TIP3    H147894   0.621   4.334  14.834 -4.0035  0.0784 -0.7688
 8801TIP3    H247895   0.607   4.239  14.951 -0.0155 -0.3048 -0.4637
 8802TIP3   OH247896   0.240   4.317  11.967 -0.2202  0.1128  0.4022
 8802TIP3    H147897   0.267   4.337  11.877  0.9816  0.3666  0.8103
 8802TIP3    H247898   0.315   4.340  12.021 -1.7924  2.4080  1.7763
 8803TIP3   OH247899   4.732   0.731  15.062 -0.0293 -0.4091  0.2896
 8803TIP3    H147900   4.692   0.787  14.996  0.7402  0.1833  0.3152
 8803TIP3    H247901   4.744   0.647  15.018 -1.9967 -0.8676  0.5133
 8804TIP3   OH247902   5.095   4.714   0.569  0.4220 -0.4748  0.5856
 8804TIP3    H147903   5.001   4.732   0.572  0.1343 -1.7856 -0.0776
 8804TIP3    H247904   5.119   4.722   0.477  1.6261  2.8301  1.0562
 8805TIP3   OH247905   2.030   3.239   2.021  0.2299 -0.7092  0.3577
 8805TIP3    H147906   1.940   3.225   1.990  0.4932  1.0716 -1.4081
 8805TIP3    H247907   2.030   3.328   2.055  0.7189 -1.6204  2.9767
 8806TIP3   OH247908   3.348   4.351  17.024  0.5108  0.8062 -0.3109
 8806TIP3    H147909   3.414   4.409  17.063  0.8619  0.3177 -0.1640
 8806TIP3    H247910   3.320   4.295  17.096  0.6799  0.3395 -0.6053
 8807TIP3   OH247911   5.457   0.964   1.298  0.4913 -0.3524 -0.0209
 8807TIP3    H147912   5.526   0.918   1.249 -1.1488 -2.4606 -0.5210
 8807TIP3    H247913   5.493   1.051   1.314  2.7188 -0.9251 -1.4248
 8808TIP3   OH247914   1.825   6.390  16.536 -0.0488  0.0070 -0.4448
 8808TIP3    H147915   1.736   6.409  16.508 -1.5565 -2.3112  2.2061
 8808TIP3    H247916   1.850   6.312  16.486  0.0096 -0.0605 -0.3114
 8809TIP3   OH247917   6.098   4.852   0.003 -0.0762 -0.1675  0.1583
 8809TIP3    H147918   6.105   4.929  -0.052  1.8715  1.2592  2.2126
 8809TIP3    H247919   6.153   4.786  -0.041  0.2756  0.4459 -0.3325
 8810TIP3   OH247920   0.104   0.121   1.146  0.7557  0.3432 -0.1220
 8810TIP3    H147921   0.057   0.056   1.199  1.1409 -0.3617 -0.6441
 8810TIP3    H247922   0.184   0.077   1.119  2.5714  2.0568  2.1051
 8811TIP3   OH247923   0.653   0.622   0.186 -0.4869  0.5695  0.0746
 8811TIP3    H147924   0.631   0.694   0.127 -0.2965 -0.0523 -0.7768
 8811TIP3    H247925   0.721   0.573   0.140 -0.7240 -0.2496  0.5614
 8812TIP3   OH247926   4.767   3.229  13.013  0.2759 -0.7335 -0.1117
 8812TIP3    H147927   4.733   3.178  12.939  0.9663  0.0600 -0.9951
 8812TIP3    H247928   4.701   3.219  13.081 -1.7122  0.6378 -1.7163
 8813TIP3   OH247929   4.335   5.826   5.986 -0.3491  0.3047 -0.1754
 8813TIP3    H147930   4.358   5.735   6.003  1.6404  0.7341 -0.3155
 8813TIP3    H247931   4.406   5.877   6.025 -0.1722  1.6760 -2.1119
 8814TIP3   OH247932   3.277   6.014  12.161 -0.1239 -0.0882  0.1529
 8814TIP3    H147933   3.251   6.091  12.110  1.5147  1.1715  1.1039
 8814TIP3    H247934   3.372   6.018  12.162 -0.0771 -0.2431  2.9811
 8815TIP3   OH247935   5.923   6.686   4.978 -0.2749  0.1489 -0.0468
 8815TIP3    H147936   5.985   6.615   4.992 -1.5316 -1.1747 -0.9306
 8815TIP3    H247937   5.943   6.718   4.890  0.6244  1.2825  0.5378
 8816TIP3   OH247938   0.693   0.890   4.636 -0.1175  0.6889  0.0962
 8816TIP3    H147939   0.649   0.895   4.551 -1.7317  1.5729  0.9208
 8816TIP3    H247940   0.636   0.941   4.695  2.2834  2.3585  1.1485
 8817TIP3   OH247941   6.128   1.227   2.488 -0.1439  0.1145  0.0823
 8817TIP3    H147942   6.157   1.272   2.409 -1.4862  2.7007  0.9654
 8817TIP3    H247943   6.161   1.280   2.560  0.9936 -2.1398  1.3482
 8818TIP3   OH247944   6.266   4.246   3.466  0.6206 -0.1419 -0.2467
 8818TIP3    H147945   6.209   4.172   3.489  1.2416 -0.3272  0.7386
 8818TIP3    H247946   6.324   4.256   3.541 -0.5960  2.5208  0.4290
 8819TIP3   OH247947   4.332   6.642  12.610  0.3122 -0.5368 -0.1545
 8819TIP3    H147948   4.387   6.579  12.565  2.3386  0.1158  1.2620
 8819TIP3    H247949   4.376   6.656  12.694 -2.1761 -0.1463  1.1669
 8820TIP3   OH247950   5.396   5.459  11.215 -0.6294  0.4010 -0.2097
 8820TIP3    H147951   5.348   5.533  11.178  0.0835  0.5305 -0.9121
 8820TIP3    H247952   5.332   5.389  11.224 -1.2952  1.0718  0.3801
 8821TIP3   OH247953   3.746   5.523  14.350  0.4365 -0.0991 -0.2813
 8821TIP3    H147954   3.791   5.475  14.419 -0.2967  1.3348  1.2689
 8821TIP3    H247955   3.793   5.501  14.270  1.7998 -1.2123  0.7922
 8822TIP3   OH247956   1.904   6.604   5.109  0.5887  0.5380  0.5160
 8822TIP3    H147957   1.809   6.613   5.120  0.3091  0.2294 -1.3865
 8822TIP3    H247958   1.934   6.689   5.077  0.4747 -0.1831 -1.6399
 8823TIP3   OH247959   2.046   1.558   2.110  0.6710 -0.1670  0.4689
 8823TIP3    H147960   2.141   1.547   2.108  0.5620 -1.1410  0.1867
 8823TIP3    H247961   2.016   1.530   2.023  0.1774  0.6832  0.3559
 8824TIP3   OH247962   6.670   4.691   5.293 -0.2834  0.1763  0.5547
 8824TIP3    H147963   6.762   4.714   5.283 -0.0685  0.7800  3.2815
 8824TIP3    H247964   6.623   4.760   5.245  0.6278  0.9730  0.7779
 8825TIP3   OH247965   0.035   0.913   3.257  0.2144  0.3287 -1.2301
 8825TIP3    H147966   0.066   0.858   3.185  1.9211 -0.8946  0.3478
 8825TIP3    H247967   0.100   0.901   3.326 -0.9015  2.1345  0.2202
 8826TIP3   OH247968   3.553   2.880  17.012  0.2427  0.0724 -0.3524
 8826TIP3    H147969   3.478   2.825  16.991  1.3548 -1.3180 -0.8092
 8826TIP3    H247970   3.629   2.828  16.986  1.3474  1.7887 -0.7011
 8827TIP3   OH247971   5.685   4.516   2.066 -0.4965 -0.0690  0.3375
 8827TIP3    H147972   5.641   4.443   2.023 -0.2861 -0.3108  0.5373
 8827TIP3    H247973   5.776   4.511   2.036 -0.4158 -0.0618  0.5810
 8828TIP3   OH247974   5.828   4.298  15.422 -0.1341  0.2891 -0.0147
 8828TIP3    H147975   5.776   4.377  15.435 -0.2519  0.1793  0.1880
 8828TIP3    H247976   5.860   4.275  15.509 -0.5506 -0.1941  0.0174
 8829TIP3   OH247977   0.326   2.016  12.094 -0.3766 -0.0714  0.1413
 8829TIP3    H147978   0.316   1.925  12.123  1.7197 -0.2110  0.5606
 8829TIP3    H247979   0.340   2.066  12.174  0.8159  0.2486 -0.2488
 8830TIP3   OH247980   1.644   0.347  11.813  0.1784 -0.0901  0.1896
 8830TIP3    H147981   1.568   0.291  11.827  0.4459 -0.6684 -0.6313
 8830TIP3    H247982   1.674   0.326  11.725  1.5809 -0.2195  0.6781
 8831TIP3   OH247983   3.679   4.239   2.902 -0.5415  0.3725 -0.6694
 8831TIP3    H147984   3.722   4.165   2.860 -1.3757 -1.2110  1.1496
 8831TIP3    H247985   3.733   4.259   2.978 -0.7825  1.0965 -0.6761
 8832TIP3   OH247986   2.091   0.313  14.903 -0.3183  1.0855 -0.2317
 8832TIP3    H147987   2.001   0.287  14.882 -0.1502  0.6400 -0.3976
 8832TIP3    H247988   2.080   0.389  14.961 -0.8080  0.4892  0.4749
 8833TIP3   OH247989   1.637   4.918  12.215 -0.2671  0.2525 -0.2015
 8833TIP3    H147990   1.692   4.840  12.204  0.7081  1.1936 -2.9468
 8833TIP3    H247991   1.580   4.917  12.138  0.1693  2.5259 -0.6160
 8834TIP3   OH247992   5.760   2.496  11.964  0.4927 -0.2379 -0.3664
 8834TIP3    H147993   5.800   2.409  11.972  1.2724  0.2522  1.5074
 8834TIP3    H247994   5.740   2.522  12.054 -1.4931  0.7517 -1.0435
 8835TIP3   OH247995   4.720   2.522   1.103 -0.5264 -0.1932  0.5455
 8835TIP3    H147996   4.709   2.496   1.012  0.9303 -0.3857  0.3978
 8835TIP3    H247997   4.815   2.530   1.115 -0.5923 -1.4065  2.3711
 8836TIP3   OH247998   5.781   1.842   1.198  0.1894  0.4363  0.1793
 8836TIP3    H147999   5.832   1.865   1.120 -1.2296  1.0971 -0.5954
 8836TIP3    H248000   5.831   1.879   1.271 -0.0116  2.5892 -0.6957
 8837TIP3   OH248001   0.465   3.812   6.848 -0.3539 -0.3136 -0.4804
 8837TIP3    H148002   0.513   3.881   6.802 -1.0817  2.1123  2.1504
 8837TIP3    H248003   0.375   3.842   6.850 -0.2235  0.2507  3.2350
 8838TIP3   OH248004   3.939   1.919  12.948 -0.4506 -0.7019  0.1245
 8838TIP3    H148005   3.989   1.932  12.867 -0.0657  0.9482  0.5932
 8838TIP3    H248006   3.855   1.962  12.932 -1.0459 -1.8432  0.0237
 8839TIP3   OH248007   3.335   2.488   0.997 -0.0687  0.7494  0.8348
 8839TIP3    H148008   3.317   2.565   1.050  0.3629  0.3305  1.6207
 8839TIP3    H248009   3.407   2.513   0.940  0.3604  0.8024  1.3920
 8840TIP3   OH248010   4.478   1.668  14.819 -0.7215 -0.1884 -0.0064
 8840TIP3    H148011   4.553   1.638  14.869  1.5869 -0.8091 -3.5072
 8840TIP3    H248012   4.409   1.604  14.838  0.2291 -0.7133  1.8133
 8841TIP3   OH248013   4.110   3.873  17.143 -0.3473 -0.9484 -0.3877
 8841TIP3    H148014   4.180   3.936  17.123 -0.6989 -0.9632 -1.7554
 8841TIP3    H248015   4.078   3.900  17.229 -0.4304  0.7016 -0.8985
 8842TIP3   OH248016   1.699   6.693  15.050  0.7165  0.7701 -0.0611
 8842TIP3    H148017   1.657   6.657  15.129 -0.7059  1.3994 -0.4949
 8842TIP3    H248018   1.766   6.752  15.084  0.5784  0.5155  0.6821
 8843TIP3   OH248019   0.209   0.052   1.551  0.3364 -1.0806 -0.6376
 8843TIP3    H148020   0.274  -0.018   1.539 -0.0338 -1.6328  0.4534
 8843TIP3    H248021   0.126   0.012   1.525  0.1160 -1.0697  0.0307
 8844TIP3   OH248022   6.530   6.317  10.748  0.5590  0.4823  0.3181
 8844TIP3    H148023   6.533   6.404  10.789  1.3902  0.2400  0.7960
 8844TIP3    H248024   6.621   6.289  10.745  0.2211 -0.7616  0.9943
 8845TIP3   OH248025   0.358   4.587  14.305  0.1005  0.8570  0.3013
 8845TIP3    H148026   0.377   4.623  14.392  1.3427  2.8995 -0.7094
 8845TIP3    H248027   0.417   4.512  14.297 -1.7045 -0.8334  2.0459
 8846TIP3   OH248028   3.837   4.114   4.222 -0.1870 -0.0383 -0.2871
 8846TIP3    H148029   3.888   4.146   4.296  1.8541  0.0354 -1.6509
 8846TIP3    H248030   3.849   4.019   4.224  3.8364  0.1666 -3.0406
 8847TIP3   OH248031   5.567   5.570  13.711  0.0624  0.6394 -0.3156
 8847TIP3    H148032   5.531   5.624  13.782 -0.6699 -2.4174  1.8517
 8847TIP3    H248033   5.491   5.546  13.659  0.1138  0.2575 -0.2130
 8848TIP3   OH248034   6.056   6.014  11.922  0.0347  0.9125  0.7598
 8848TIP3    H148035   6.033   5.925  11.949  0.9128  1.0971  2.2143
 8848TIP3    H248036   6.112   6.003  11.845  0.9747  0.1398  1.5319
 8849TIP3   OH248037   4.965   4.440   6.110  0.5272  0.2934 -0.0829
 8849TIP3    H148038   4.982   4.350   6.138  0.8350 -0.1590 -1.6514
 8849TIP3    H248039   4.884   4.435   6.060  0.9147  0.7491 -0.7802
 8850TIP3   OH248040   3.709   6.524  14.749  0.1561 -0.3327  0.3230
 8850TIP3    H148041   3.664   6.568  14.677  0.7249 -0.3078 -0.0189
 8850TIP3    H248042   3.742   6.443  14.711 -0.7859 -1.0200  0.9236
 8851TIP3   OH248043   3.044   2.398   5.859 -1.0185  0.2557 -0.0560
 8851TIP3    H148044   3.133   2.431   5.869 -0.8780  0.3392 -1.4786
 8851TIP3    H248045   3.043   2.317   5.910 -0.0190  0.0674 -0.3102
 8852TIP3   OH248046   4.680   6.457  10.340 -0.7705 -0.3688  0.5417
 8852TIP3    H148047   4.600   6.510  10.333 -2.0073 -2.2565 -0.4666
 8852TIP3    H248048   4.747   6.511  10.298 -1.5015  1.2040  1.2658
 8853TIP3   OH248049   6.075   3.394  13.970  0.3102 -0.5550  0.1140
 8853TIP3    H148050   6.086   3.450  13.893 -1.8361  0.5863  0.5695
 8853TIP3    H248051   6.082   3.454  14.044 -0.3559 -1.1837  0.6956
 8854TIP3   OH248052   2.447   2.212  14.242  0.1542  0.0377  0.0852
 8854TIP3    H148053   2.429   2.260  14.161 -2.1479  1.2428  1.2270
 8854TIP3    H248054   2.409   2.266  14.311  1.9110 -1.0311  1.9991
 8855TIP3   OH248055   0.687   1.654   1.413  0.7729  0.3104 -0.2663
 8855TIP3    H148056   0.726   1.672   1.498  1.3816 -0.3781 -0.3968
 8855TIP3    H248057   0.617   1.592   1.431  0.3978  0.7554 -0.1706
 8856TIP3   OH248058   3.030   3.197  11.510  0.5307  0.0258  0.5456
 8856TIP3    H148059   2.969   3.186  11.584 -1.8144  0.7234 -1.1545
 8856TIP3    H248060   3.036   3.292  11.499  0.2745 -0.0725 -0.5583
 8857TIP3   OH248061   1.356   4.449   5.133  0.5220 -0.2414 -0.5543
 8857TIP3    H148062   1.304   4.439   5.054 -0.1149 -0.6659 -0.0898
 8857TIP3    H248063   1.292   4.450   5.205  1.1691 -1.3295  0.0686
 8858TIP3   OH248064   0.863   5.887  11.043 -0.4510  0.0679 -0.0047
 8858TIP3    H148065   0.791   5.825  11.039 -1.0577  0.7983 -0.8513
 8858TIP3    H248066   0.907   5.879  10.958 -0.3675  0.6012 -0.0150
 8859TIP3   OH248067   3.645   6.461   1.607  0.1987 -0.1786 -0.9231
 8859TIP3    H148068   3.692   6.392   1.561 -1.1457 -1.6936 -0.1178
 8859TIP3    H248069   3.621   6.422   1.691 -1.4443  0.9327 -0.8365
 8860TIP3   OH248070   1.017   2.602  17.022 -0.0929  0.1945  0.0033
 8860TIP3    H148071   0.952   2.611  17.092 -0.6788  2.1975 -0.7257
 8860TIP3    H248072   1.101   2.611  17.067 -0.3638 -0.6218  0.7112
 8861TIP3   OH248073   2.642   4.023   0.089  0.0839 -0.6171  0.0736
 8861TIP3    H148074   2.639   4.111   0.051  3.0108 -0.8428 -0.9209
 8861TIP3    H248075   2.601   3.968   0.022  3.6631 -0.7492 -2.3386
 8862TIP3   OH248076   4.891   6.077  11.679 -1.0230  0.0440  0.1359
 8862TIP3    H148077   4.903   6.057  11.772 -0.0976  1.2674  0.2943
 8862TIP3    H248078   4.975   6.058  11.639 -1.2575  0.0589 -0.3713
 8863TIP3   OH248079   6.743   3.613   5.020 -0.4085 -0.0222 -0.0741
 8863TIP3    H148080   6.764   3.707   5.023 -0.6359  0.0066  1.3828
 8863TIP3    H248081   6.750   3.585   5.111 -1.7128 -1.1284 -0.3008
 8864TIP3   OH248082   1.858   6.129   1.397 -0.1295  0.1737  0.1986
 8864TIP3    H148083   1.882   6.042   1.427 -1.9260  0.0712  1.4475
 8864TIP3    H248084   1.796   6.114   1.326  0.5538  0.4632 -0.4828
 8865TIP3   OH248085   3.141   5.851   4.429 -0.1010  0.2292  0.2792
 8865TIP3    H148086   3.070   5.794   4.400 -0.2559 -0.2507  1.5312
 8865TIP3    H248087   3.220   5.807   4.401 -0.2476 -0.2390  0.5806
 8866TIP3   OH248088   6.717   4.034  15.947  0.1056  0.3137  0.0380
 8866TIP3    H148089   6.798   3.983  15.947 -0.6713 -0.9633 -0.5089
 8866TIP3    H248090   6.689   4.035  16.038  0.6134  0.5888  0.1990
 8867TIP3   OH248091   0.909   4.526   3.806  0.4729  0.1479 -0.2293
 8867TIP3    H148092   0.857   4.496   3.881 -0.4578 -0.1474 -0.9752
 8867TIP3    H248093   0.906   4.621   3.811 -0.2201  0.1304 -0.3189
 8868TIP3   OH248094   1.953   6.689   6.393  0.0994 -0.7540  0.2974
 8868TIP3    H148095   1.937   6.773   6.435 -0.0042 -0.6724  0.0975
 8868TIP3    H248096   1.922   6.623   6.456 -0.8083 -0.6100  0.0167
 8869TIP3   OH248097   4.590   3.450  15.920  0.7718  0.1078 -0.3368
 8869TIP3    H148098   4.658   3.472  15.985 -0.9004  0.5173  1.3699
 8869TIP3    H248099   4.520   3.411  15.972  1.0242 -3.6615 -2.4358
 8870TIP3   OH248100   1.490   5.802  11.664  0.4023  0.0553 -0.0141
 8870TIP3    H148101   1.566   5.799  11.722  1.2634 -0.1572 -1.1440
 8870TIP3    H248102   1.433   5.868  11.704  0.4883 -0.8302  1.6520
 8871TIP3   OH248103   4.842   0.600   3.941 -0.0832 -0.2676  0.2046
 8871TIP3    H148104   4.833   0.669   3.875 -1.4268 -1.2447 -0.6978
 8871TIP3    H248105   4.760   0.604   3.990  0.9805  0.5721  1.9895
 8872TIP3   OH248106   0.074   4.286  15.996  0.0503  0.2411  0.0152
 8872TIP3    H148107  -0.008   4.250  15.965 -1.7173  2.7273  1.4288
 8872TIP3    H248108   0.121   4.211  16.033 -1.4180 -1.2929 -1.0803
 8873TIP3   OH248109   1.777   0.480   1.220  0.2163 -0.3892 -1.2338
 8873TIP3    H148110   1.835   0.414   1.182 -1.0043 -2.1388 -0.2216
 8873TIP3    H248111   1.833   0.535   1.274  1.4505  0.1543 -2.9950
 8874TIP3   OH248112   2.635   3.846   3.855  0.1600 -0.5380  0.0120
 8874TIP3    H148113   2.652   3.771   3.798  0.8767  0.6365 -1.3791
 8874TIP3    H248114   2.644   3.812   3.944  1.2674 -1.9193 -0.5992
 8875TIP3   OH248115   3.725   0.468   5.341 -0.6002 -0.4837 -0.1459
 8875TIP3    H148116   3.731   0.560   5.367 -0.1599 -1.0129  1.7693
 8875TIP3    H248117   3.650   0.434   5.389 -1.5632 -0.8652 -1.8172
 8876TIP3   OH248118   4.305   3.047   0.348 -0.3218  0.4267 -1.2215
 8876TIP3    H148119   4.217   3.050   0.311 -0.7091 -1.8449 -0.6902
 8876TIP3    H248120   4.301   3.104   0.425 -1.8424 -0.7492 -0.3499
 8877TIP3   OH248121   4.174   2.764   5.479 -0.4282  0.4621 -0.0747
 8877TIP3    H148122   4.134   2.763   5.392 -0.5013  1.3645 -0.0612
 8877TIP3    H248123   4.268   2.772   5.462 -0.4901  1.2781 -0.0714
 8878TIP3   OH248124   2.133   2.565  10.528 -0.2383  0.2224 -0.1283
 8878TIP3    H148125   2.101   2.584  10.440  0.8554  0.2814 -0.5221
 8878TIP3    H248126   2.197   2.496  10.516  2.1729  2.2678  0.2003
 8879TIP3   OH248127   3.688   1.598  12.836 -0.0797 -0.1721  0.2741
 8879TIP3    H148128   3.613   1.538  12.834  0.1744 -0.4861  0.1498
 8879TIP3    H248129   3.756   1.551  12.884  0.4161 -0.3388 -0.5674
 8880TIP3   OH248130   0.627   6.135  12.323 -0.4127 -0.1540 -0.1493
 8880TIP3    H148131   0.632   6.068  12.254 -0.7996  0.0962 -0.4279
 8880TIP3    H248132   0.677   6.099  12.395 -0.1691 -0.5141 -0.4917
 8881TIP3   OH248133   0.572   3.525  13.477  0.1559  0.0925  0.4206
 8881TIP3    H148134   0.609   3.613  13.470  0.0549  0.4531  3.2538
 8881TIP3    H248135   0.647   3.467  13.466  0.9180  0.6973  2.0343
 8882TIP3   OH248136   0.824   4.091  15.112 -0.1804 -0.3874 -0.0264
 8882TIP3    H148137   0.828   4.184  15.136 -0.1286 -0.1014 -1.0612
 8882TIP3    H248138   0.760   4.088  15.040  0.5173 -1.0082 -0.6353
 8883TIP3   OH248139   0.123   3.693   2.092 -1.1779  0.2779  0.4736
 8883TIP3    H148140   0.060   3.686   2.020 -1.6779 -1.2062  1.0150
 8883TIP3    H248141   0.190   3.753   2.059 -0.5813 -1.4979 -1.8810
 8884TIP3   OH248142   6.645   5.854   3.947  0.7441 -0.0351 -0.3116
 8884TIP3    H148143   6.634   5.842   4.041 -0.5355 -1.1741 -0.5607
 8884TIP3    H248144   6.616   5.770   3.909  1.9186  0.1437 -1.6809
 8885TIP3   OH248145   0.598   2.211   5.945 -0.1700  0.0284  0.1295
 8885TIP3    H148146   0.588   2.136   5.887 -0.4176 -1.2495  1.7587
 8885TIP3    H248147   0.607   2.286   5.886 -1.1687 -1.1059 -1.5421
 8886TIP3   OH248148   5.055   3.195   0.980 -0.6392  0.2576  0.0564
 8886TIP3    H148149   4.963   3.208   1.002 -0.4821  0.0647  0.8318
 8886TIP3    H248150   5.053   3.162   0.890 -1.3371  0.0598  0.1373
 8887TIP3   OH248151   3.472   4.212  14.384  0.3510  0.3344 -0.0668
 8887TIP3    H148152   3.408   4.149  14.350 -0.7006  1.1345  0.3796
 8887TIP3    H248153   3.531   4.159  14.438  0.7582 -0.5974 -1.3676
 8888TIP3   OH248154   2.503   2.118  15.140  0.1751 -0.1231 -0.4549
 8888TIP3    H148155   2.471   2.029  15.150  0.9683 -0.4212 -0.5130
 8888TIP3    H248156   2.593   2.116  15.173 -0.3027  1.0180  1.0588
 8889TIP3   OH248157   2.170   4.200  17.186  0.3922 -0.1446 -0.4074
 8889TIP3    H148158   2.183   4.238  17.273  0.7260 -0.3234 -0.3761
 8889TIP3    H248159   2.090   4.241  17.153  0.9314  0.8492 -0.5154
 8890TIP3   OH248160   1.097   4.156  13.556  0.0738  1.1193  0.2400
 8890TIP3    H148161   1.088   4.185  13.647 -0.0854  2.7307 -0.2491
 8890TIP3    H248162   1.101   4.238  13.506 -2.1287  0.3001 -1.4152
 8891TIP3   OH248163   3.953   4.812  11.960  0.4195  0.3710  0.4324
 8891TIP3    H148164   3.880   4.750  11.961  0.6311  0.1159  0.1576
 8891TIP3    H248165   4.013   4.778  12.027  0.2666  0.6077  0.6923
 8892TIP3   OH248166   4.873   0.963  13.969  0.2483 -0.1505  0.5358
 8892TIP3    H148167   4.840   1.005  13.890  1.2684  0.8814  0.6260
 8892TIP3    H248168   4.825   0.880  13.975  0.6860 -0.6188 -1.5833
 8893TIP3   OH248169   6.690   0.998  13.665  0.0013  0.1342 -0.3625
 8893TIP3    H148170   6.764   1.005  13.725  0.2825  2.0218 -0.8842
 8893TIP3    H248171   6.726   0.957  13.586  0.1201 -0.3516 -0.0596
 8894TIP3   OH248172   1.798   0.575  15.233  0.5328  0.0579  0.2730
 8894TIP3    H148173   1.821   0.578  15.326  0.3590  1.7854  0.2890
 8894TIP3    H248174   1.729   0.509  15.228 -0.8165  1.2707  1.7225
 8895TIP3   OH248175   2.530   3.695   0.975  0.2539 -0.5358 -0.0152
 8895TIP3    H148176   2.468   3.700   1.047  1.6351 -0.3700  1.2064
 8895TIP3    H248177   2.532   3.784   0.939 -0.3701 -0.5973 -0.2137
 8896TIP3   OH248178   5.302   2.695   1.283 -0.0586 -0.4340 -0.4767
 8896TIP3    H148179   5.233   2.650   1.332  0.3162 -0.1472  0.3353
 8896TIP3    H248180   5.337   2.628   1.224  0.0597 -1.0285  0.2584
 8897TIP3   OH248181   0.585   5.940   3.468 -0.5987  0.4305  0.3769
 8897TIP3    H148182   0.585   6.033   3.491  0.3266  0.6647 -0.5048
 8897TIP3    H248183   0.661   5.929   3.410  0.6235 -1.3247  2.1953
 8898TIP3   OH248184   5.095   0.177  12.310  0.0766 -0.1504  0.0363
 8898TIP3    H148185   5.170   0.148  12.259 -0.6130 -1.9624  0.0018
 8898TIP3    H248186   5.105   0.136  12.395 -0.5219  0.1504  0.2608
 8899TIP3   OH248187   1.258   0.877  11.798  0.5850 -0.0001  0.0374
 8899TIP3    H148188   1.246   0.936  11.724  3.7900  0.9206  0.1048
 8899TIP3    H248189   1.177   0.883  11.847 -1.6662 -0.5984 -3.2755
 8900TIP3   OH248190   5.536   1.732   3.342  0.2880 -0.4317 -0.2616
 8900TIP3    H148191   5.549   1.643   3.376 -0.9168  0.0912  1.6978
 8900TIP3    H248192   5.623   1.772   3.344  0.6261 -1.1636  0.0388
 8901TIP3   OH248193   3.150   5.514  14.996  0.2733  0.1341  0.0511
 8901TIP3    H148194   3.119   5.448  15.059  0.6140 -0.1075 -0.0334
 8901TIP3    H248195   3.160   5.593  15.048  0.2856  0.0061  0.2442
 8902TIP3   OH248196   6.421   5.215  14.212 -0.0713 -0.2348 -0.9334
 8902TIP3    H148197   6.353   5.226  14.146  0.4151 -1.8977 -1.7735
 8902TIP3    H248198   6.375   5.184  14.290 -0.3611 -0.7789 -1.3131
 8903TIP3   OH248199   6.643   2.449   4.776 -0.0214 -0.5912 -0.2287
 8903TIP3    H148200   6.593   2.530   4.764  1.3536  0.1999 -0.8694
 8903TIP3    H248201   6.576   2.380   4.783 -1.2096  0.1220 -3.0739
 8904TIP3   OH248202   4.006   5.612   0.542  0.1327 -0.1984  0.0476
 8904TIP3    H148203   4.040   5.669   0.474  1.3311 -1.4630 -0.4713
 8904TIP3    H248204   4.072   5.617   0.612 -0.1845 -0.2735  0.3531
 8905TIP3   OH248205   1.778   6.210  14.790  0.2195  0.3335 -0.2435
 8905TIP3    H148206   1.867   6.246  14.788  1.2023 -1.9328 -0.7807
 8905TIP3    H248207   1.756   6.207  14.883  1.2661 -0.2762  0.0027
 8906TIP3   OH248208   3.465   4.968  16.332  0.2784  0.0057  0.1267
 8906TIP3    H148209   3.524   5.038  16.303  0.9258 -1.0038 -1.0615
 8906TIP3    H248210   3.445   4.991  16.423  0.4021  1.7672 -0.2437
 8907TIP3   OH248211   5.483   5.192  14.089 -0.2224  0.4528  0.2040
 8907TIP3    H148212   5.392   5.175  14.114 -0.9286  2.0946 -1.0483
 8907TIP3    H248213   5.484   5.180  13.994 -0.0286  3.8214 -0.3121
 8908TIP3   OH248214   2.731   0.592   6.001 -0.4042  0.0333 -0.2422
 8908TIP3    H148215   2.794   0.620   6.067  0.6764  2.1090 -2.0295
 8908TIP3    H248216   2.647   0.590   6.047  0.1265  2.4258  0.9755
 8909TIP3   OH248217   0.349   3.088   0.707  0.1717 -0.5650  0.6715
 8909TIP3    H148218   0.293   3.018   0.738 -2.6002  1.5696  0.8753
 8909TIP3    H248219   0.346   3.155   0.776  2.6218 -0.1218  0.4544
 8910TIP3   OH248220   2.821   2.925  15.425  0.4194  0.2176 -0.3735
 8910TIP3    H148221   2.908   2.886  15.413 -0.0340 -0.5858 -1.2250
 8910TIP3    H248222   2.768   2.854  15.460  0.4155  1.0894  1.5143
 8911TIP3   OH248223   5.261   2.049   4.138  0.2273 -0.0294  0.2176
 8911TIP3    H148224   5.190   2.114   4.136 -0.3587 -0.6020  1.2419
 8911TIP3    H248225   5.228   1.975   4.086 -0.6430 -0.9513  1.9893
 8912TIP3   OH248226   4.981   1.163   0.972 -0.4922 -0.5822 -0.2677
 8912TIP3    H148227   4.917   1.234   0.964 -0.5294 -0.7628 -2.0879
 8912TIP3    H248228   4.929   1.088   1.000 -0.6440 -0.1688  0.5887
 8913TIP3   OH248229   6.292   6.650  11.904 -0.0376  0.0186  0.3927
 8913TIP3    H148230   6.324   6.618  11.819 -0.0008  1.4667 -0.1672
 8913TIP3    H248231   6.223   6.712  11.882  1.4877  2.1544  1.2804
 8914TIP3   OH248232   0.994   6.198   4.894  0.2772 -0.0572  0.3643
 8914TIP3    H148233   0.949   6.135   4.949 -1.5120 -0.3895 -1.3615
 8914TIP3    H248234   1.022   6.267   4.953 -1.3376 -0.5057  1.7066
 8915TIP3   OH248235   4.835   3.203  12.549  0.2728 -0.5084 -0.5575
 8915TIP3    H148236   4.741   3.185  12.559 -0.1193  0.1615 -2.5423
 8915TIP3    H248237   4.869   3.129  12.499  0.6846 -0.4682 -0.3412
 8916TIP3   OH248238   0.319   1.654   1.243  0.6077 -0.0684  0.7639
 8916TIP3    H148239   0.282   1.646   1.155  0.7369  2.0546  0.4775
 8916TIP3    H248240   0.369   1.573   1.255  1.4556  0.0511 -1.5233
 8917TIP3   OH248241   3.803   3.348   2.781  0.3466  0.9257 -0.2280
 8917TIP3    H148242   3.837   3.260   2.798  1.4212  1.2870 -0.4577
 8917TIP3    H248243   3.813   3.394   2.864 -0.0954  0.8747 -0.1446
 8918TIP3   OH248244   3.846   1.398   3.941  0.2248  0.5810  0.0331
 8918TIP3    H148245   3.818   1.356   3.860  0.5211 -1.0552  0.7269
 8918TIP3    H248246   3.815   1.488   3.934 -2.7236 -0.3835 -0.4224
 8919TIP3   OH248247   5.833   5.227  17.236  0.2471 -0.0099 -0.2315
 8919TIP3    H148248   5.843   5.218  17.331  1.8003 -2.7020 -0.5376
 8919TIP3    H248249   5.754   5.176  17.216 -0.0269  0.4802 -0.4072
 8920TIP3   OH248250   5.959   6.169  10.709 -0.1500  0.0841  0.2619
 8920TIP3    H148251   6.005   6.194  10.789  0.3179 -0.8003  0.2780
 8920TIP3    H248252   6.025   6.126  10.655 -0.5743  0.2589 -0.4093
 8921TIP3   OH248253   0.634   3.162   0.921  0.1360 -0.6629  0.0792
 8921TIP3    H148254   0.624   3.164   0.826 -0.3095 -0.9208  0.1147
 8921TIP3    H248255   0.703   3.225   0.939  0.1071 -0.4852 -0.4024
 8922TIP3   OH248256   4.579   6.418   1.170  0.3754 -0.1144  0.5000
 8922TIP3    H148257   4.637   6.425   1.094  0.8147  0.6624  0.8864
 8922TIP3    H248258   4.527   6.340   1.154  0.6190 -0.0853 -0.4919
 8923TIP3   OH248259   5.242   2.565   0.151  0.0981 -0.5232  0.6098
 8923TIP3    H148260   5.194   2.554   0.069  0.8593 -0.8461  0.1956
 8923TIP3    H248261   5.281   2.652   0.145 -1.3906  0.2354  1.4708
 8924TIP3   OH248262   3.628   0.191   3.727  0.5822 -0.5840  0.3693
 8924TIP3    H148263   3.548   0.219   3.683  1.1797 -0.1863 -0.5081
 8924TIP3    H248264   3.684   0.269   3.727  1.3381 -1.1095  0.0941
 8925TIP3   OH248265   2.667   6.772   2.677 -0.1766 -0.0021  0.1171
 8925TIP3    H148266   2.641   6.859   2.649  0.0718 -0.4423 -1.6222
 8925TIP3    H248267   2.634   6.713   2.609 -1.4131 -1.4385  1.8575
 8926TIP3   OH248268   2.733   0.962   3.633  0.4612  0.5025 -0.0245
 8926TIP3    H148269   2.685   0.953   3.550  1.2378 -0.9688 -0.3404
 8926TIP3    H248270   2.670   0.937   3.700  0.5473 -0.7471 -0.3824
 8927TIP3   OH248271   5.968   4.690   4.778 -0.1601 -0.3204  0.4664
 8927TIP3    H148272   6.001   4.662   4.693  1.2879 -0.6446  1.1095
 8927TIP3    H248273   6.000   4.624   4.840 -1.5319 -0.3215  1.2328
 8928TIP3   OH248274   1.439   2.197  15.076 -0.4115  0.0354  0.0730
 8928TIP3    H148275   1.489   2.129  15.030 -0.4054 -0.3139  0.5811
 8928TIP3    H248276   1.487   2.210  15.158 -1.2629 -0.4611  0.6623
 8929TIP3   OH248277   6.159   0.635  10.714 -0.7100 -0.5127  0.2426
 8929TIP3    H148278   6.224   0.695  10.750  0.2202 -0.6839 -1.0773
 8929TIP3    H248279   6.104   0.612  10.789 -0.3205  0.9841  1.0362
 8930TIP3   OH248280   4.476   5.486  11.486  0.0053 -0.1319 -0.4228
 8930TIP3    H148281   4.490   5.559  11.426 -1.1634 -0.0697 -0.6572
 8930TIP3    H248282   4.547   5.425  11.467  0.2668  0.3758 -1.1199
 8931TIP3   OH248283   4.841   4.586   0.271 -0.0837 -0.0964  0.0100
 8931TIP3    H148284   4.888   4.595   0.188 -0.6975 -1.6966 -0.5331
 8931TIP3    H248285   4.882   4.511   0.314 -0.5834 -0.0344  0.6160
 8932TIP3   OH248286   3.253   6.242   3.857  0.1157 -0.6126  0.8505
 8932TIP3    H148287   3.315   6.306   3.824 -1.8154  1.4273  0.8986
 8932TIP3    H248288   3.291   6.212   3.939  1.5370 -0.2700  0.3379
 8933TIP3   OH248289   5.523   4.817  16.464 -0.7182  0.4350  0.4775
 8933TIP3    H148290   5.435   4.819  16.427 -0.9568  0.4209  1.0408
 8933TIP3    H248291   5.536   4.726  16.490  0.7547 -0.3841 -2.6577
 8934TIP3   OH248292   3.916   0.567  16.070 -0.2654  0.5809 -0.0019
 8934TIP3    H148293   3.935   0.475  16.086  0.0781  0.6035 -0.2670
 8934TIP3    H248294   4.001   0.611  16.079 -0.3457  0.8077 -0.3382
 8935TIP3   OH248295   5.348   3.466   4.957 -0.6788  0.0749 -0.7058
 8935TIP3    H148296   5.425   3.430   5.000 -1.7900  0.3490  1.6850
 8935TIP3    H248297   5.383   3.519   4.886  1.3484  0.2929  0.3692
 8936TIP3   OH248298   1.274   1.746  10.378 -0.1454  0.2624 -0.3556
 8936TIP3    H148299   1.180   1.765  10.381  0.0625  1.2848  1.1729
 8936TIP3    H248300   1.280   1.652  10.360 -1.5251 -0.1214  0.9580
 8937TIP3   OH248301   0.624   0.947   3.644  0.2689 -0.3142  0.4991
 8937TIP3    H148302   0.559   0.912   3.705  0.8443  1.9886  2.6019
 8937TIP3    H248303   0.708   0.926   3.684  0.7193  0.1213 -0.1953
 8938TIP3   OH248304   5.219   1.683   1.176  0.3813  0.0810 -0.5977
 8938TIP3    H148305   5.281   1.671   1.247 -0.6012 -0.5745  0.1636
 8938TIP3    H248306   5.133   1.671   1.216 -0.2532  0.9452 -1.6329
 8939TIP3   OH248307   0.667   1.384  12.435  0.4154 -0.2123  0.6194
 8939TIP3    H148308   0.656   1.324  12.508  0.5522 -0.1986  0.6527
 8939TIP3    H248309   0.629   1.338  12.360  0.9638 -0.5567  0.5417
 8940TIP3   OH248310   1.404   1.961  13.676  0.1486  0.0013  0.0305
 8940TIP3    H148311   1.336   1.985  13.613  1.0441  0.0842 -0.9323
 8940TIP3    H248312   1.397   1.865  13.683  0.1258 -0.0194 -0.2813
 8941TIP3   OH248313   3.383   3.567   1.757 -0.1686  0.5710  0.0683
 8941TIP3    H148314   3.442   3.564   1.832 -0.4843 -1.3026  0.3137
 8941TIP3    H248315   3.358   3.475   1.743 -0.1684  0.8644 -2.3055
 8942TIP3   OH248316   5.958   4.105   1.568 -0.8494 -0.1507 -0.8709
 8942TIP3    H148317   6.021   4.135   1.502 -0.3496  0.6422 -0.0686
 8942TIP3    H248318   5.979   4.012   1.581 -1.7535 -0.6524 -2.6679
 8943TIP3   OH248319   5.299   1.135  17.040 -0.1891 -0.6510  0.0123
 8943TIP3    H148320   5.314   1.165  16.950 -0.4339  0.6320  0.3850
 8943TIP3    H248321   5.204   1.139  17.051 -0.0111  1.9694  1.2164
 8944TIP3   OH248322   1.455   2.964   5.233 -0.0895  0.4890  0.2205
 8944TIP3    H148323   1.397   3.040   5.237  0.6320  0.9990  1.3080
 8944TIP3    H248324   1.518   2.977   5.304 -0.2536 -1.3825  0.7671
 8945TIP3   OH248325   5.989   3.639   2.130 -0.0708 -0.5373 -0.3138
 8945TIP3    H148326   6.060   3.666   2.189  0.0565 -0.2871 -0.5798
 8945TIP3    H248327   5.990   3.705   2.060 -0.3079 -0.7595 -0.5257
 8946TIP3   OH248328   0.100   6.163   5.927 -0.0863  0.2086 -1.0554
 8946TIP3    H148329   0.098   6.189   6.019 -0.7848 -1.3841 -0.5892
 8946TIP3    H248330   0.192   6.148   5.908 -0.0842 -1.1035 -0.1094
 8947TIP3   OH248331   5.884   4.973   3.061 -0.1869 -0.1575  0.0002
 8947TIP3    H148332   5.852   5.061   3.083 -1.7368 -0.3349 -1.4025
 8947TIP3    H248333   5.967   4.989   3.014 -0.3756  0.5526 -0.1008
 8948TIP3   OH248334   0.872   2.999   0.464 -0.1230  0.1038 -0.5000
 8948TIP3    H148335   0.796   3.038   0.507 -1.2911  0.6321 -2.8374
 8948TIP3    H248336   0.839   2.916   0.429  1.0332 -0.7549  0.3680
 8949TIP3   OH248337   4.705   2.409  12.302 -0.4373 -0.1193  0.2463
 8949TIP3    H148338   4.698   2.363  12.218 -0.2231 -0.5376  0.4542
 8949TIP3    H248339   4.788   2.379  12.339 -1.0156 -0.7231  1.0834
 8950TIP3   OH248340   1.120   3.978  12.165  0.4003 -0.1716 -0.4155
 8950TIP3    H148341   1.144   4.055  12.114  2.2281  1.6251  2.8179
 8950TIP3    H248342   1.040   4.004  12.211 -0.9930 -1.6074 -1.8974
 8951TIP3   OH248343   1.455   0.362   4.730  0.3947  0.5287 -0.4385
 8951TIP3    H148344   1.550   0.351   4.740  0.2515 -0.1996  0.1608
 8951TIP3    H248345   1.444   0.457   4.717  1.1196  0.7525  0.4291
 8952TIP3   OH248346   3.806   5.530  13.147 -0.3524 -0.3852  0.0298
 8952TIP3    H148347   3.754   5.521  13.068 -0.0779 -0.3006 -0.1619
 8952TIP3    H248348   3.801   5.623  13.169 -1.9011 -0.6804  1.1304
 8953TIP3   OH248349   3.269   2.925  13.566 -0.2543  0.2272 -0.2447
 8953TIP3    H148350   3.212   2.860  13.525 -0.7388  0.7414 -0.4005
 8953TIP3    H248351   3.318   2.963  13.492  1.3110 -1.1572  0.0233
 8954TIP3   OH248352   5.252   1.073  14.340  0.6938 -0.6292  0.2611
 8954TIP3    H148353   5.302   1.148  14.309  1.3054 -0.7906  0.8432
 8954TIP3    H248354   5.170   1.076  14.290 -1.0223  2.6213  2.8978
 8955TIP3   OH248355   2.914   5.841   0.289 -0.7155 -0.4268 -0.3163
 8955TIP3    H148356   2.884   5.792   0.366  2.7355 -3.6796 -0.7548
 8955TIP3    H248357   2.841   5.836   0.228 -2.0060 -1.4818  1.2185
 8956TIP3   OH248358   6.677   4.159   2.726  0.7534  0.5347  0.5268
 8956TIP3    H148359   6.699   4.109   2.805  1.5303  2.4650  1.5940
 8956TIP3    H248360   6.619   4.228   2.757 -0.8118 -0.0140 -1.0295
 8957TIP3   OH248361   1.357   0.044   4.356  0.3371 -0.0556  0.3513
 8957TIP3    H148362   1.388   0.115   4.300  0.1459  0.9157  1.4263
 8957TIP3    H248363   1.280   0.080   4.400  0.8899 -0.5046  1.7643
 8958TIP3   OH248364   2.740   6.599  10.471  0.6724  0.3360  0.3796
 8958TIP3    H148365   2.728   6.531  10.405 -0.0777  1.7559 -1.0069
 8958TIP3    H248366   2.833   6.620  10.467  0.7086  0.1225  0.1045
 8959TIP3   OH248367   1.402   1.408  13.006 -0.3880  0.1114  0.4477
 8959TIP3    H148368   1.307   1.411  13.008 -0.3745  0.3401  1.0832
 8959TIP3    H248369   1.424   1.397  12.914 -0.9532  3.2907 -0.1977
 8960TIP3   OH248370   3.002   4.198  15.379  0.0534  0.1462  0.4726
 8960TIP3    H148371   3.028   4.106  15.385  0.4653  0.2789  0.8261
 8960TIP3    H248372   2.987   4.212  15.286  0.4763 -0.1527  0.3538
 8961TIP3   OH248373   5.193   1.735  11.968  0.3047  0.6968 -0.3990
 8961TIP3    H148374   5.214   1.664  11.907 -0.4248  0.1716 -0.0562
 8961TIP3    H248375   5.176   1.811  11.912  2.7978  1.1016 -0.7142
 8962TIP3   OH248376   0.619   0.331  13.634  0.4573 -0.2183 -0.1565
 8962TIP3    H148377   0.626   0.367  13.722 -0.4507 -2.0667  0.7213
 8962TIP3    H248378   0.547   0.381  13.594 -2.2345 -2.2722  1.7625
 8963TIP3   OH248379   5.571   3.309  16.668 -0.1520 -0.3630 -0.2100
 8963TIP3    H148380   5.631   3.255  16.617 -0.4719 -0.3704 -0.5729
 8963TIP3    H248381   5.589   3.284  16.759 -2.3622 -3.2644 -0.4436
 8964TIP3   OH248382   5.857   1.223   2.592  0.5756 -1.0003 -0.5534
 8964TIP3    H148383   5.941   1.248   2.554  0.6138  1.2466  0.8454
 8964TIP3    H248384   5.859   1.259   2.681 -2.4038  0.4665 -0.9526
 8965TIP3   OH248385   2.552   3.193   0.128  0.0260 -0.3974  0.1646
 8965TIP3    H148386   2.479   3.238   0.170  0.6852  0.7246  0.1346
 8965TIP3    H248387   2.573   3.246   0.052  2.5790  0.8533  1.5954
 8966TIP3   OH248388   5.355   0.287   2.439  0.2191 -0.1862  0.4463
 8966TIP3    H148389   5.284   0.277   2.376  1.6152  0.5712 -1.3327
 8966TIP3    H248390   5.420   0.223   2.413  0.2119 -0.9164  2.0974
 8967TIP3   OH248391   5.040   5.575  14.901 -0.0626  0.0021 -0.4408
 8967TIP3    H148392   5.114   5.556  14.959 -0.0795  0.8381 -0.1359
 8967TIP3    H248393   5.066   5.654  14.854  0.7433 -1.6736 -2.9690
 8968TIP3   OH248394   1.965   3.903   5.501  0.0496 -0.0235  0.2201
 8968TIP3    H148395   1.884   3.949   5.523 -0.1731 -0.8770  1.2603
 8968TIP3    H248396   2.012   3.963   5.443 -0.6492  1.1153  0.7967
 8969TIP3   OH248397   3.050   1.181   0.391 -0.4649  0.0638 -0.4901
 8969TIP3    H148398   2.973   1.207   0.442  0.0088 -2.0629  1.4923
 8969TIP3    H248399   3.016   1.121   0.324 -0.5957 -0.8224  0.3424
 8970TIP3   OH248400   0.810   1.794   3.885 -0.3252 -0.3714  0.3715
 8970TIP3    H148401   0.846   1.864   3.830 -0.1119 -0.7115  0.0751
 8970TIP3    H248402   0.723   1.826   3.910 -0.3663 -0.1503 -0.0440
 8971TIP3   OH248403   3.392   5.481   0.038  0.0475  0.4454 -0.7101
 8971TIP3    H148404   3.340   5.404   0.060 -1.2508  1.5443  0.2301
 8971TIP3    H248405   3.374   5.497  -0.054  0.3030 -0.3378 -0.9027
 8972TIP3   OH248406   4.234   0.427  12.174 -0.0176  0.0919 -0.2060
 8972TIP3    H148407   4.209   0.520  12.173 -0.7909 -0.1118 -1.2247
 8972TIP3    H248408   4.225   0.399  12.083  1.9657 -0.5453 -0.2639
 8973TIP3   OH248409   0.462   3.116  16.007  0.0265  0.1861 -0.0335
 8973TIP3    H148410   0.553   3.140  15.994  0.0319  0.0884 -0.1866
 8973TIP3    H248411   0.432   3.169  16.080 -0.2951  1.5450 -1.0993
 8974TIP3   OH248412   1.615   4.728   5.112 -0.0143 -0.2394 -0.3834
 8974TIP3    H148413   1.637   4.721   5.205 -1.3891  0.0848 -0.0155
 8974TIP3    H248414   1.603   4.638   5.083  0.6119 -0.3538 -0.3122
 8975TIP3   OH248415   0.945   4.656  13.218  0.2043  0.2841 -0.1358
 8975TIP3    H148416   1.007   4.686  13.285  1.1122 -1.3880 -0.1634
 8975TIP3    H248417   0.860   4.665  13.260  0.6415  0.6369  0.7135
 8976TIP3   OH248418   3.425   4.907   1.064  0.3965  0.2507  0.4936
 8976TIP3    H148419   3.493   4.973   1.057  1.8082 -1.1039  0.9834
 8976TIP3    H248420   3.449   4.841   0.999 -0.4900 -0.2255  0.6349
 8977TIP3   OH248421   6.276   1.617  14.145 -0.0488 -0.4699 -0.8786
 8977TIP3    H148422   6.279   1.539  14.090  1.2474 -0.9395 -0.2046
 8977TIP3    H248423   6.341   1.600  14.213 -0.5896  0.7057 -0.0372
 8978TIP3   OH248424   4.524   3.906  14.341  0.0219  0.5307 -0.0203
 8978TIP3    H148425   4.453   3.936  14.284 -0.7445 -2.0678 -0.5667
 8978TIP3    H248426   4.589   3.869  14.281  0.6514  0.5660  0.6275
 8979TIP3   OH248427   1.380   5.595  13.206  0.7758  0.4260  0.2546
 8979TIP3    H148428   1.321   5.530  13.245 -0.1704  0.3646 -1.2126
 8979TIP3    H248429   1.352   5.601  13.115 -0.6066  4.4059  0.7359
 8980TIP3   OH248430   6.490   2.333   6.020 -0.4234  0.1608 -0.6485
 8980TIP3    H148431   6.554   2.370   5.960  1.9235  2.2443  2.7767
 8980TIP3    H248432   6.438   2.407   6.050 -1.2817 -0.7353  0.1829
 8981TIP3   OH248433   3.072   2.799   2.447 -0.3491  0.1684  0.3770
 8981TIP3    H148434   3.102   2.868   2.387 -1.3552 -0.3395 -0.7476
 8981TIP3    H248435   3.152   2.766   2.487  0.5305 -0.3453 -1.6569
 8982TIP3   OH248436   4.176   6.485   5.847 -0.4020 -0.3507 -0.1123
 8982TIP3    H148437   4.215   6.425   5.784  2.4530  0.3198  0.8541
 8982TIP3    H248438   4.243   6.496   5.915 -2.6741  0.2417  2.2146
 8983TIP3   OH248439   5.905   0.479  10.736  0.0011  0.0271 -0.3498
 8983TIP3    H148440   5.815   0.445  10.741  0.3858 -0.9087  0.7261
 8983TIP3    H248441   5.944   0.454  10.820  0.6568  2.2164  0.0783
 8984TIP3   OH248442   5.481   2.565   2.122  0.7707 -0.7948  0.2303
 8984TIP3    H148443   5.430   2.484   2.119 -2.4569  1.0123  1.3521
 8984TIP3    H248444   5.476   2.592   2.214  1.4167  0.8684 -0.1939
 8985TIP3   OH248445   4.086   3.693   5.288 -0.1277  0.3798  0.7450
 8985TIP3    H148446   4.088   3.663   5.379  0.1883  0.3798  0.7373
 8985TIP3    H248447   4.055   3.783   5.293  0.2403  0.5008  0.8851
 8986TIP3   OH248448   2.007   1.290  13.736 -0.3479 -0.0208 -0.0425
 8986TIP3    H148449   2.005   1.194  13.734 -1.2060 -0.0092 -1.1802
 8986TIP3    H248450   2.089   1.312  13.780  0.3927 -1.2781 -0.7374
 8987TIP3   OH248451   0.650   3.748   4.936  0.2028 -0.1363 -0.2473
 8987TIP3    H148452   0.733   3.794   4.934  0.0316  0.1714 -0.3113
 8987TIP3    H248453   0.654   3.695   5.016 -0.3124  1.3346  0.7968
 8988TIP3   OH248454   3.889   3.585  14.962 -0.1498 -0.2908  0.3437
 8988TIP3    H148455   3.836   3.635  14.900  0.5703  0.9968  0.7277
 8988TIP3    H248456   3.897   3.642  15.039 -0.1395 -1.4197  1.2093
 8989TIP3   OH248457   0.413   0.395   6.513  0.5294 -0.2457  0.6014
 8989TIP3    H148458   0.330   0.421   6.475  1.5658  1.3676 -0.7029
 8989TIP3    H248459   0.390   0.339   6.587 -1.6538 -0.9593 -0.5381
 8990TIP3   OH248460   3.436   3.025   1.267 -0.1674 -0.0274 -0.2247
 8990TIP3    H148461   3.457   3.053   1.356 -0.5976 -0.7780  0.1160
 8990TIP3    H248462   3.424   3.107   1.219  0.0635  0.3840  0.4063
 8991TIP3   OH248463   0.530   5.328   2.172  0.2728  0.4692 -0.7072
 8991TIP3    H148464   0.452   5.287   2.209  0.7077  0.5059  0.2779
 8991TIP3    H248465   0.510   5.337   2.079  0.5956 -3.0441 -1.2366
 8992TIP3   OH248466   6.487   3.928   5.731 -0.2482  0.3432  0.4162
 8992TIP3    H148467   6.465   3.981   5.808 -1.2977 -0.0240  0.3829
 8992TIP3    H248468   6.403   3.913   5.687 -0.0084 -1.4131  0.4677
 8993TIP3   OH248469   1.334   0.330   5.257 -0.3232  0.2860  0.3044
 8993TIP3    H148470   1.292   0.261   5.206  1.9973 -0.9492 -0.0594
 8993TIP3    H248471   1.316   0.411   5.209 -0.5011 -0.4816 -0.9452
 8994TIP3   OH248472   3.266   3.073  16.743  0.1835  0.1872 -0.4780
 8994TIP3    H148473   3.345   3.097  16.792 -0.4783  0.5546  0.4477
 8994TIP3    H248474   3.194   3.112  16.793 -0.6261 -0.5332 -1.0409
 8995TIP3   OH248475   1.226   1.010   3.438 -0.6885 -0.2232  0.7845
 8995TIP3    H148476   1.311   0.987   3.400  0.0633 -0.2169  2.3388
 8995TIP3    H248477   1.199   0.931   3.485 -1.4162 -0.1377  0.5117
 8996TIP3   OH248478   0.468   3.163   1.155 -0.4358  0.0807 -0.6460
 8996TIP3    H148479   0.518   3.137   1.077  3.2594  0.9859  1.1571
 8996TIP3    H248480   0.437   3.081   1.192 -0.0988 -0.5746 -1.7532
 8997TIP3   OH248481   2.506   2.366   5.832 -0.2843  0.4076 -0.2078
 8997TIP3    H148482   2.416   2.388   5.857 -0.6634  3.4467 -3.4178
 8997TIP3    H248483   2.497   2.328   5.745  1.4831 -1.4251  0.3338
 8998TIP3   OH248484   3.859   3.681   0.232  0.2201 -0.1879 -0.4112
 8998TIP3    H148485   3.906   3.703   0.152 -0.5557  0.1708 -0.7782
 8998TIP3    H248486   3.927   3.670   0.298  0.7344  2.2170 -0.4791
 8999TIP3   OH248487   0.496   0.369  11.216  0.5093  0.4846  0.1526
 8999TIP3    H148488   0.443   0.402  11.143  0.1204 -0.3849  0.0219
 8999TIP3    H248489   0.521   0.280  11.189  0.0588  0.0148  1.2270
 9000TIP3   OH248490   6.520   2.308   2.749 -0.3796 -0.1147  0.2875
 9000TIP3    H148491   6.489   2.229   2.704  0.1599  0.0801 -0.4484
 9000TIP3    H248492   6.496   2.380   2.691  1.6201  0.0271 -0.4354
 9001TIP3   OH248493   0.130   4.056   0.117  0.1039 -0.0394 -0.2174
 9001TIP3    H148494   0.143   4.107   0.197  1.8536  0.7899 -0.9839
 9001TIP3    H248495   0.038   4.069   0.095  0.4605  2.8238 -0.3588
 9002TIP3   OH248496   4.985   6.584   1.735 -0.4294 -0.7118  0.0451
 9002TIP3    H148497   4.986   6.678   1.717  0.3424 -0.1056  2.8684
 9002TIP3    H248498   5.042   6.546   1.667 -0.7472  0.8065 -1.1202
 9003TIP3   OH248499   2.886   3.199   1.915  0.0187 -0.5601  0.1210
 9003TIP3    H148500   2.940   3.139   1.967 -0.7187  0.2200  1.8400
 9003TIP3    H248501   2.797   3.183   1.945 -0.5858 -0.8332 -1.6911
 9004TIP3   OH248502   5.089   3.394   5.032  0.1776  0.0683 -0.3692
 9004TIP3    H148503   5.177   3.430   5.021  0.7041 -0.5966  1.3610
 9004TIP3    H248504   5.079   3.386   5.126 -1.4641 -0.5809 -0.5847
 9005TIP3   OH248505   0.954   2.297  13.924  0.0576 -0.2322 -0.1958
 9005TIP3    H148506   0.952   2.302  14.019  0.4731  0.5747 -0.2186
 9005TIP3    H248507   0.866   2.267  13.900 -0.4859  0.8390  0.3878
 9006TIP3   OH248508   3.056   6.631   3.803 -1.0316  0.8095 -0.2808
 9006TIP3    H148509   3.028   6.567   3.737 -0.1861 -0.5602  0.6388
 9006TIP3    H248510   2.978   6.685   3.819 -1.2764  1.1595 -2.3358
 9007TIP3   OH248511   6.663   2.063   3.034 -0.5054 -0.1821 -0.4271
 9007TIP3    H148512   6.606   2.021   3.098  1.7649 -0.3339  1.6293
 9007TIP3    H248513   6.712   1.991   2.994 -0.2825  0.0916 -0.6561
 9008TIP3   OH248514   0.929   2.638  16.382 -0.0011 -0.2719 -0.3223
 9008TIP3    H148515   0.860   2.616  16.320  0.4343  1.6255 -1.5780
 9008TIP3    H248516   1.003   2.582  16.358 -0.1237 -0.1510 -0.9928
 9009TIP3   OH248517   4.634   2.081  14.502 -0.0539 -0.5799  0.1366
 9009TIP3    H148518   4.552   2.043  14.535  0.1347 -0.0509  1.2544
 9009TIP3    H248519   4.612   2.173  14.486  0.3187 -0.4330  0.4587
 9010TIP3   OH248520   3.507   0.880   0.537  0.5378  0.5579 -0.4076
 9010TIP3    H148521   3.505   0.905   0.629  1.8124  0.4668 -0.3469
 9010TIP3    H248522   3.598   0.892   0.510  0.4712 -0.7134 -1.2850
 9011TIP3   OH248523   0.859   2.450  13.655  0.0159  0.3196 -0.0182
 9011TIP3    H148524   0.859   2.367  13.702  2.1841  0.6995  0.7471
 9011TIP3    H248525   0.767   2.465  13.633 -0.5817 -1.6408  0.9381
 9012TIP3   OH248526   2.371   4.321   0.375 -0.0408  0.0834  0.3008
 9012TIP3    H148527   2.430   4.247   0.356  0.1209  0.4986 -0.8948
 9012TIP3    H248528   2.367   4.370   0.293 -2.0724  0.0777  0.3585
 9013TIP3   OH248529   5.538   1.089   4.530  0.4279 -0.0617 -0.5962
 9013TIP3    H148530   5.443   1.083   4.538  0.4375 -1.3685 -1.3557
 9013TIP3    H248531   5.552   1.165   4.474 -0.0978  0.9774  0.6220
 9014TIP3   OH248532   5.733   0.665  10.890 -0.6041  0.6633  0.3621
 9014TIP3    H148533   5.704   0.676  10.980  0.4260  2.3203  0.5266
 9014TIP3    H248534   5.741   0.570  10.879  1.8455  0.4452  2.9220
 9015TIP3   OH248535   5.140   4.237  16.510  0.2909 -0.1224  0.6903
 9015TIP3    H148536   5.094   4.158  16.480  1.3287 -0.4050 -0.2297
 9015TIP3    H248537   5.169   4.216  16.599  1.6260 -1.2846  0.0223
 9016TIP3   OH248538   2.162   0.573   1.556 -0.1472 -0.0439 -0.5971
 9016TIP3    H148539   2.233   0.532   1.505  0.2166 -0.7571  0.4287
 9016TIP3    H248540   2.205   0.600   1.638 -1.3515 -2.0277  0.7755
 9017TIP3   OH248541   5.444   2.602  12.168  0.1809  0.2897  0.3092
 9017TIP3    H148542   5.532   2.579  12.198 -0.1678 -0.7950  0.5433
 9017TIP3    H248543   5.456   2.684  12.120  1.1640  0.6726  1.1590
 9018TIP3   OH248544   0.722   3.979   0.387  0.1965 -0.2471  0.0084
 9018TIP3    H148545   0.695   3.973   0.479 -0.7326  1.6331 -0.1069
 9018TIP3    H248546   0.719   4.072   0.367  0.2139 -0.6346 -1.9991
 9019TIP3   OH248547   6.589   0.198  13.882 -0.1713  0.0042  0.0940
 9019TIP3    H148548   6.582   0.208  13.787 -0.3894 -1.8946 -0.1425
 9019TIP3    H248549   6.682   0.183  13.898 -0.2361 -0.4400  0.0731
 9020TIP3   OH248550   4.790   5.735  14.607  0.1690  0.4355 -0.0734
 9020TIP3    H148551   4.793   5.684  14.688 -1.8522  2.5952  1.5173
 9020TIP3    H248552   4.750   5.677  14.543 -0.4618 -0.5617  1.1856
 9021TIP3   OH248553   3.029   5.460  11.563  0.0366 -0.0587  0.1043
 9021TIP3    H148554   3.055   5.419  11.646 -1.5070 -0.2632  0.5219
 9021TIP3    H248555   2.938   5.435  11.552 -0.4602  1.8598 -0.4992
 9022TIP3   OH248556   3.735   6.426   4.505 -0.0206  0.3378 -0.0492
 9022TIP3    H148557   3.767   6.400   4.419 -0.7467 -0.2811 -0.1476
 9022TIP3    H248558   3.811   6.419   4.563  0.1136 -0.7730 -0.3413
 9023TIP3   OH248559   1.989   3.459   2.219 -0.1482 -0.5613  0.2942
 9023TIP3    H148560   1.925   3.388   2.225 -0.4516 -0.2562  0.7017
 9023TIP3    H248561   1.996   3.492   2.308 -1.6618  1.3620 -0.2416
 9024TIP3   OH248562   6.063   5.607  14.915  0.3531 -0.6827 -0.0092
 9024TIP3    H148563   6.141   5.555  14.930  0.2063 -0.9658 -0.2118
 9024TIP3    H248564   5.996   5.543  14.888  0.2916 -0.3397 -0.6982
 9025TIP3   OH248565   6.683   6.738  13.123 -0.0600  0.9010  0.2137
 9025TIP3    H148566   6.773   6.709  13.139  0.4204  1.5722 -1.0908
 9025TIP3    H248567   6.673   6.731  13.028 -1.5623  0.3894  0.3869
 9026TIP3   OH248568   0.316   5.109  12.597  0.2680  0.0476 -0.0833
 9026TIP3    H148569   0.261   5.117  12.675  0.6004  1.1772  0.0485
 9026TIP3    H248570   0.295   5.022  12.562  0.5892 -0.7560  1.6170
 9027TIP3   OH248571   2.300   0.009   2.975  0.2914  0.5593  0.0056
 9027TIP3    H148572   2.312   0.004   2.880 -1.0708  1.7959 -0.2680
 9027TIP3    H248573   2.366  -0.051   3.011  0.6432 -0.1448 -1.7211
 9028TIP3   OH248574   1.004   0.472  14.862  0.2815  0.2661  0.1854
 9028TIP3    H148575   0.944   0.478  14.787 -1.3771 -0.8114  1.3609
 9028TIP3    H248576   1.060   0.549  14.854  0.2952  0.1073 -2.2431
 9029TIP3   OH248577   0.016   4.351  14.525 -0.1623  0.3927  0.8034
 9029TIP3    H148578   0.083   4.358  14.594  0.9803 -0.4934 -0.1757
 9029TIP3    H248579   0.009   4.258  14.508  1.2461  0.6810 -1.8249
 9030TIP3   OH248580   2.619   1.677  12.845  0.5570  0.2008  0.1179
 9030TIP3    H148581   2.589   1.589  12.867 -2.5162  0.9393 -0.6433
 9030TIP3    H248582   2.713   1.666  12.826  0.8609 -2.3963  2.4414
 9031TIP3   OH248583   5.921   1.214  12.394 -0.5910  0.1468 -0.0471
 9031TIP3    H148584   5.987   1.183  12.332 -0.0495 -0.3351  0.7521
 9031TIP3    H248585   5.970   1.270  12.454 -1.3030  1.4535 -0.6441
 9032TIP3   OH248586   1.149   1.281  14.444  0.3377 -0.3176 -0.1798
 9032TIP3    H148587   1.058   1.284  14.474 -0.5539  0.1419 -2.7081
 9032TIP3    H248588   1.201   1.295  14.524 -1.8407  1.2342  1.0819
 9033TIP3   OH248589   4.481   5.744   6.398 -0.3274  0.0483  0.6176
 9033TIP3    H148590   4.549   5.791   6.445 -0.1834 -1.8417  2.4546
 9033TIP3    H248591   4.517   5.656   6.386 -1.0429  0.0077 -1.6322
 9034TIP3   OH248592   1.532   2.868   4.505 -0.1369 -0.5187  0.3398
 9034TIP3    H148593   1.528   2.905   4.417  0.8080  0.7906  0.8103
 9034TIP3    H248594   1.571   2.937   4.559 -0.6344 -1.3061  1.7852
 9035TIP3   OH248595   6.300   4.624   3.184 -0.3653 -0.1931 -0.0429
 9035TIP3    H148596   6.299   4.694   3.249  0.1861 -0.9391  0.7972
 9035TIP3    H248597   6.234   4.562   3.216 -0.2073 -0.4853 -0.2864
 9036TIP3   OH248598   1.186   5.790  15.390  0.2369 -0.4632 -0.2904
 9036TIP3    H148599   1.276   5.799  15.358  0.5007  0.0244  0.5692
 9036TIP3    H248600   1.191   5.807  15.484 -0.6743 -0.9666 -0.1313
 9037TIP3   OH248601   3.120   6.158  15.544 -0.0464  0.2719 -0.0993
 9037TIP3    H148602   3.053   6.100  15.508 -0.3892  0.8735 -0.4394
 9037TIP3    H248603   3.173   6.101  15.599  0.3081 -0.6170 -1.3076
 9038TIP3   OH248604   2.852   4.540  12.140  0.4751 -0.1850  0.2806
 9038TIP3    H148605   2.811   4.618  12.178 -1.0084 -0.5778 -0.4484
 9038TIP3    H248606   2.844   4.553  12.046  0.9747 -0.8370  0.1451
 9039TIP3   OH248607   0.853   2.215   2.055 -0.4847  0.2756 -0.4176
 9039TIP3    H148608   0.924   2.208   2.118  0.2296  0.0268 -1.2242
 9039TIP3    H248609   0.872   2.147   1.990 -0.5989  1.2138 -1.4698
 9040TIP3   OH248610   4.149   2.981  12.813 -0.6421  0.4005  0.6536
 9040TIP3    H148611   4.115   3.070  12.801  1.0520  1.1746  1.3738
 9040TIP3    H248612   4.126   2.936  12.732 -0.5601  1.8088 -0.1800
 9041TIP3   OH248613   3.171   4.137  14.979 -0.0304  0.8646 -0.3932
 9041TIP3    H148614   3.238   4.138  14.911  1.9318 -0.5193  1.3965
 9041TIP3    H248615   3.206   4.195  15.047 -0.4139 -0.2176  0.7540
 9042TIP3   OH248616   5.962   1.931  13.706  0.1549  0.1558 -0.4062
 9042TIP3    H148617   6.051   1.908  13.679  1.9390  4.3084  1.0362
 9042TIP3    H248618   5.956   1.902  13.796 -0.0932 -0.4501 -0.6177
 9043TIP3   OH248619   0.157   6.411   5.122  0.7884 -0.2046  0.0890
 9043TIP3    H148620   0.129   6.349   5.055 -0.1672 -0.0648  0.3377
 9043TIP3    H248621   0.137   6.368   5.205  2.3070 -0.5300  0.3055
 9044TIP3   OH248622   4.991   2.954   0.168  0.1081 -0.1185  0.1902
 9044TIP3    H148623   4.965   2.939   0.077  1.0031 -0.1063 -0.0781
 9044TIP3    H248624   4.978   3.048   0.180 -1.6634 -0.3985  0.6253
 9045TIP3   OH248625   6.697   1.935  12.657 -0.3342  0.1974 -0.2260
 9045TIP3    H148626   6.691   2.019  12.703  1.7760  0.5778 -0.5691
 9045TIP3    H248627   6.678   1.870  12.724  1.4408  0.8036  0.9492
 9046TIP3   OH248628   0.683   5.964   5.896  0.5701  0.4184  1.0573
 9046TIP3    H148629   0.652   5.928   5.979  1.3703  0.5766  1.4310
 9046TIP3    H248630   0.722   5.889   5.850 -4.1470 -0.9363 -1.4174
 9047TIP3   OH248631   4.649   6.720   5.231  0.1918  0.2431 -0.5730
 9047TIP3    H148632   4.632   6.626   5.231 -0.1174  0.2988 -0.9277
 9047TIP3    H248633   4.641   6.746   5.322  2.3484 -0.4476 -0.1234
 9048TIP3   OH248634   6.242   5.428   4.165  0.0455 -0.4621  0.2216
 9048TIP3    H148635   6.248   5.459   4.075  0.3129 -2.7657 -0.6298
 9048TIP3    H248636   6.160   5.379   4.169 -1.3482  1.8358  2.0457
 9049TIP3   OH248637   1.877   5.759  11.126  0.3109 -0.3586 -0.6861
 9049TIP3    H148638   1.786   5.783  11.147  0.3336  0.4744 -1.4715
 9049TIP3    H248639   1.923   5.843  11.122  1.2073 -0.8024  0.0602
 9050TIP3   OH248640   6.223   5.623   4.491  1.0062  0.0730 -0.3948
 9050TIP3    H148641   6.160   5.552   4.504  1.0522  0.0341 -0.3840
 9050TIP3    H248642   6.254   5.643   4.580  2.7836 -1.5087 -0.5890
 9051TIP3   OH248643   6.359   2.792   0.069  0.0412 -0.1275  0.0345
 9051TIP3    H148644   6.368   2.873   0.019  1.0340 -1.1537 -1.5459
 9051TIP3    H248645   6.449   2.771   0.097  0.0784 -1.5074 -0.9973
 9052TIP3   OH248646   5.140   4.677  15.590  0.6055  0.3058  0.0493
 9052TIP3    H148647   5.155   4.756  15.539  2.6039 -0.7165 -1.0858
 9052TIP3    H248648   5.227   4.655  15.626  0.0549 -1.2169  0.5265
 9053TIP3   OH248649   4.327   3.356   3.286  0.8732  0.0246  0.1077
 9053TIP3    H148650   4.365   3.274   3.319  1.8341  0.4387  0.0260
 9053TIP3    H248651   4.376   3.375   3.206  1.7271  1.5036  0.9555
 9054TIP3   OH248652   3.056   1.535   2.248  0.2158  0.3922  0.2479
 9054TIP3    H148653   3.052   1.622   2.287  0.9835  0.7083 -0.3551
 9054TIP3    H248654   3.089   1.550   2.160 -1.5776 -0.2939 -0.5778
 9055TIP3   OH248655   3.306   0.661   4.022 -0.2363 -0.1079 -0.5442
 9055TIP3    H148656   3.317   0.750   4.056 -0.3504 -0.9251  1.7991
 9055TIP3    H248657   3.320   0.670   3.928  0.3770  2.2714 -0.2998
 9056TIP3   OH248658   2.240   3.339  14.426  0.6429 -0.0715 -0.1003
 9056TIP3    H148659   2.243   3.423  14.379  1.1848 -1.2585 -2.3056
 9056TIP3    H248660   2.149   3.331  14.454  0.1464  0.4578 -1.4629
 9057TIP3   OH248661   1.856   3.148   2.731  0.8398  0.7910 -0.6575
 9057TIP3    H148662   1.861   3.127   2.824  0.0742 -0.8651 -0.9539
 9057TIP3    H248663   1.944   3.131   2.698  1.1646  1.5565 -0.2384
 9058TIP3   OH248664   6.125   6.130   5.071 -0.0023 -0.0031 -0.2035
 9058TIP3    H148665   6.196   6.108   5.011  1.2858  0.5131  1.1006
 9058TIP3    H248666   6.088   6.045   5.096  1.9147 -0.4812  1.1810
 9059TIP3   OH248667   6.634   3.216   1.467  0.5331 -0.1069  0.0964
 9059TIP3    H148668   6.547   3.191   1.496  1.0083 -0.6360  1.1253
 9059TIP3    H248669   6.634   3.200   1.372 -1.1678  1.9729 -0.3090
 9060TIP3   OH248670   4.857   2.811  13.094 -0.6497  0.1945  0.4467
 9060TIP3    H148671   4.777   2.827  13.045 -0.6732  0.0065  0.4245
 9060TIP3    H248672   4.873   2.893  13.140 -0.2644  0.6100 -0.3954
 9061TIP3   OH248673   1.165   4.472   0.090 -0.7926 -0.4049 -0.4968
 9061TIP3    H148674   1.225   4.397   0.083 -0.4012 -0.2875  1.0816
 9061TIP3    H248675   1.089   4.437   0.137 -1.7022 -0.3880 -1.9149
 9062TIP3   OH248676   3.774   4.303   0.850  0.2107 -0.8661 -0.1334
 9062TIP3    H148677   3.692   4.289   0.803  0.1994 -1.2430 -0.0007
 9062TIP3    H248678   3.817   4.218   0.851  0.3414 -0.7982  0.2916
 9063TIP3   OH248679   3.142   0.269  11.101  0.1998  0.0007 -0.1093
 9063TIP3    H148680   3.165   0.341  11.043 -0.5214  0.0858 -0.3022
 9063TIP3    H248681   3.083   0.308  11.165  0.0920 -0.3377 -0.0004
 9064TIP3   OH248682   1.328   0.773   3.874 -0.2016 -0.1211 -0.2327
 9064TIP3    H148683   1.380   0.836   3.924  1.1839 -0.8814 -0.6533
 9064TIP3    H248684   1.241   0.779   3.911  0.2479  1.0028  0.7044
 9065TIP3   OH248685   0.839   5.304  13.480  0.5467  0.1137  0.1965
 9065TIP3    H148686   0.783   5.277  13.553 -0.0322 -2.5605 -1.0856
 9065TIP3    H248687   0.779   5.339  13.415  0.8134  0.5768  0.1950
 9066TIP3   OH248688   1.309   1.158   5.613 -0.2873 -0.3323  0.2040
 9066TIP3    H148689   1.368   1.232   5.601  0.5140 -1.2934 -2.6312
 9066TIP3    H248690   1.367   1.086   5.638 -0.8790 -0.3633  1.5770
 9067TIP3   OH248691   1.339   0.227   3.819  0.0286  0.3175 -0.0079
 9067TIP3    H148692   1.364   0.161   3.884  0.3458  0.4458  0.0028
 9067TIP3    H248693   1.298   0.297   3.870 -0.1335  0.2138  0.0030
 9068TIP3   OH248694   0.892   4.288   1.576 -0.5395 -0.3867 -0.9725
 9068TIP3    H148695   0.805   4.317   1.602  0.0262  0.2775  0.2826
 9068TIP3    H248696   0.919   4.228   1.646  1.1099  1.5839  0.1822
 9069TIP3   OH248697   4.974   2.790   1.626 -0.1092  0.0946  0.5656
 9069TIP3    H148698   4.963   2.882   1.601  0.2657  0.6151  2.1890
 9069TIP3    H248699   5.060   2.767   1.592 -0.1027  0.4311  0.3488
 9070TIP3   OH248700   1.440   5.647  14.468  0.3707 -0.0652 -0.3093
 9070TIP3    H148701   1.451   5.739  14.489  0.3742 -0.4938  1.7172
 9070TIP3    H248702   1.523   5.606  14.495 -0.4235 -0.9788  0.8211
 9071TIP3   OH248703   3.864   6.314  12.911 -0.0744 -0.0324 -0.7955
 9071TIP3    H148704   3.881   6.377  12.841  2.5961  1.8961  1.3418
 9071TIP3    H248705   3.777   6.337  12.944  0.2705  1.7125 -0.9781
 9072TIP3   OH248706   4.052   5.920  12.801 -0.3498 -0.4051  0.2811
 9072TIP3    H148707   4.005   5.840  12.825 -1.2684  0.4720  1.4957
 9072TIP3    H248708   4.098   5.946  12.881 -0.9037  0.8322  0.2209
 9073TIP3   OH248709   5.174   3.107   5.078 -0.7063  0.3518 -0.4342
 9073TIP3    H148710   5.154   3.198   5.054  1.1558  0.2699 -2.6388
 9073TIP3    H248711   5.169   3.106   5.173 -1.4857  2.5816 -0.3841
 9074TIP3   OH248712   3.347   6.812  11.562  0.6990  0.3601  0.5188
 9074TIP3    H148713   3.341   6.801  11.657 -0.7167  0.4251  0.4640
 9074TIP3    H248714   3.297   6.892  11.544  2.0476  1.0794 -0.1655
 9075TIP3   OH248715   0.105   2.338  10.968  0.1328 -0.0667  0.0097
 9075TIP3    H148716   0.020   2.338  10.924  0.4742 -0.2488 -0.6625
 9075TIP3    H248717   0.142   2.251  10.949  0.6969  0.2053 -0.1691
 9076TIP3   OH248718   3.897   1.500   6.385  0.3156 -0.3877  0.0239
 9076TIP3    H148719   3.941   1.507   6.301  0.4116 -0.2386  0.0860
 9076TIP3    H248720   3.817   1.552   6.375  0.8792  0.5739  0.3850
 9077TIP3   OH248721   2.460   3.681   0.416 -0.2681  0.2427 -0.0733
 9077TIP3    H148722   2.449   3.619   0.488 -0.0974  0.2459 -0.0432
 9077TIP3    H248723   2.471   3.766   0.458  1.1891  0.0680 -0.0314
 9078TIP3   OH248724   0.188   4.126   4.143 -0.0753  0.0951  0.2194
 9078TIP3    H148725   0.181   4.188   4.070 -0.8131 -0.2732 -0.0309
 9078TIP3    H248726   0.274   4.144   4.181  1.1728 -0.9264 -1.8879
 9079TIP3   OH248727   6.722   0.051  15.901 -0.0441 -0.5156  0.2901
 9079TIP3    H148728   6.753   0.066  15.812  0.2056 -0.6026  0.3625
 9079TIP3    H248729   6.757  -0.035  15.925 -1.0577 -1.0150  0.0573
 9080TIP3   OH248730   3.559   5.691  16.352  0.1563  0.2384 -0.1739
 9080TIP3    H148731   3.526   5.630  16.417  1.1038 -0.5742 -0.4352
 9080TIP3    H248732   3.564   5.775  16.398  0.4556 -0.2411  0.6960
 9081TIP3   OH248733   0.044   4.324  13.730  0.0750  0.5198  0.3738
 9081TIP3    H148734   0.059   4.309  13.823 -2.0940 -1.7999  0.4804
 9081TIP3    H248735   0.127   4.303  13.688  0.9998  1.3185  1.7302
 9082TIP3   OH248736   4.375   3.556  16.990  0.4038 -0.1572 -0.2142
 9082TIP3    H148737   4.445   3.490  16.988  0.5038 -0.0460 -0.3298
 9082TIP3    H248738   4.419   3.637  17.013  0.5143  0.1733 -1.5535
 9083TIP3   OH248739   6.623   0.512   4.003  0.9255 -0.0225 -0.2993
 9083TIP3    H148740   6.615   0.572   3.929  0.0228  1.6222  1.0692
 9083TIP3    H248741   6.536   0.473   4.012  1.2771 -0.9057 -0.6462
 9084TIP3   OH248742   0.278   6.188   2.903  0.4185 -0.1589  0.1745
 9084TIP3    H148743   0.367   6.198   2.935  1.4601 -1.9913 -1.8906
 9084TIP3    H248744   0.286   6.133   2.825 -2.6413 -1.5481  0.6633
 9085TIP3   OH248745   4.881   0.647  14.781 -0.2736 -0.6882  0.0213
 9085TIP3    H148746   4.962   0.633  14.732 -1.0100  1.4913 -2.0361
 9085TIP3    H248747   4.812   0.612  14.725 -1.1050  1.5093 -0.4502
 9086TIP3   OH248748   2.909   2.594  11.536 -0.5760  0.0716 -0.0394
 9086TIP3    H148749   2.860   2.553  11.606 -1.6615 -0.1739 -0.9117
 9086TIP3    H248750   2.850   2.660  11.500 -0.0036  0.2686 -0.6526
 9087TIP3   OH248751   2.811   6.755  14.537 -0.7854  0.2020  0.5411
 9087TIP3    H148752   2.842   6.778  14.450 -0.2295 -0.9862  0.4025
 9087TIP3    H248753   2.727   6.801  14.546  0.3671  2.4211  0.4267
 9088TIP3   OH248754   4.312   1.041   5.323 -0.1598 -0.3040  0.3674
 9088TIP3    H148755   4.334   1.095   5.248  2.5140  1.3045  2.1252
 9088TIP3    H248756   4.294   1.103   5.393  1.8855 -1.6070  2.1803
 9089TIP3   OH248757   5.568   1.481   3.466 -0.1000  0.1279 -0.6082
 9089TIP3    H148758   5.557   1.438   3.550  0.4271  1.9898  0.4657
 9089TIP3    H248759   5.616   1.418   3.413 -0.7065 -1.1956  0.3606
 9090TIP3   OH248760   6.602   3.612   4.229 -0.5121  0.4083 -0.5793
 9090TIP3    H148761   6.583   3.637   4.138 -2.1991 -1.7925 -0.9370
 9090TIP3    H248762   6.515   3.604   4.270  0.0259 -1.5187  0.3365
 9091TIP3   OH248763   3.332   3.309   1.731 -0.1292 -0.4486 -0.2234
 9091TIP3    H148764   3.306   3.246   1.664 -1.4384 -0.0730 -0.0875
 9091TIP3    H248765   3.306   3.268   1.813  0.8161 -0.5839  0.0256
 9092TIP3   OH248766   3.468   1.850  16.449 -0.4738  0.6232  0.5656
 9092TIP3    H148767   3.448   1.942  16.429 -1.1610  0.5895  1.0828
 9092TIP3    H248768   3.385   1.813  16.477 -0.7027 -0.7125 -1.6459
 9093TIP3   OH248769   5.748   0.950   3.744  0.1721 -0.6790  0.7944
 9093TIP3    H148770   5.688   0.984   3.810  0.3935 -0.3468  0.8248
 9093TIP3    H248771   5.809   1.022   3.728 -0.1594 -0.5962 -0.1114
 9094TIP3   OH248772   3.079   2.553   1.977  0.0653  0.2254  0.2598
 9094TIP3    H148773   3.057   2.640   1.945 -1.4889 -0.4417 -0.6169
 9094TIP3    H248774   3.062   2.557   2.071 -2.5226  0.2184 -0.1303
 9095TIP3   OH248775   0.852   3.239   5.363  0.0129 -0.3969 -0.4597
 9095TIP3    H148776   0.830   3.293   5.439  1.6240  0.2743 -0.4355
 9095TIP3    H248777   0.767   3.204   5.333 -0.5238 -2.5011  2.9297
 9096TIP3   OH248778   0.920   6.760  13.560  0.1774  0.4377  0.9480
 9096TIP3    H148779   0.851   6.782  13.497  0.4087 -0.8251  0.2392
 9096TIP3    H248780   0.961   6.681  13.525  1.6127  0.8373  1.6645
 9097TIP3   OH248781   2.214   4.288  12.483 -0.0149 -0.4819  0.6902
 9097TIP3    H148782   2.191   4.196  12.467 -4.0471  0.7999 -3.0341
 9097TIP3    H248783   2.162   4.313  12.559 -1.5201 -0.6109 -0.2515
 9098TIP3   OH248784   5.062   6.456   1.503 -0.2700  0.1714  0.0324
 9098TIP3    H148785   5.074   6.367   1.538  1.6593  0.4720  0.2853
 9098TIP3    H248786   5.005   6.445   1.427  1.0629 -1.5233 -0.7984
 9099TIP3   OH248787   5.562   6.173  15.591  0.1002  0.7552 -0.6453
 9099TIP3    H148788   5.471   6.145  15.603  0.0867  0.3149 -1.7301
 9099TIP3    H248789   5.598   6.173  15.680 -1.0703  1.3554 -0.1517
 9100TIP3   OH248790   1.423   1.869  15.158  0.4821  0.6240  0.0635
 9100TIP3    H148791   1.500   1.827  15.197 -0.8606 -0.3554  1.7791
 9100TIP3    H248792   1.447   1.883  15.066  2.4770 -0.1874  0.4227
 9101TIP3   OH248793   3.848   6.036  14.817  0.5422  0.7255  0.3781
 9101TIP3    H148794   3.881   6.119  14.851  3.1793  0.0034 -0.1848
 9101TIP3    H248795   3.916   6.006  14.756 -1.6141 -0.5097 -1.6134
 9102TIP3   OH248796   4.885   3.907  17.091 -0.0285 -1.1305  0.1254
 9102TIP3    H148797   4.796   3.916  17.123  0.4642 -0.7857  1.4620
 9102TIP3    H248798   4.881   3.935  17.000 -0.9077  0.9341  0.7369
 9103TIP3   OH248799   5.910   2.332  16.956  0.3127  0.0509  0.4820
 9103TIP3    H148800   5.913   2.236  16.956  0.4262 -0.1009 -3.4004
 9103TIP3    H248801   5.842   2.353  16.892  1.5075  2.5589 -0.0439
 9104TIP3   OH248802   5.464   4.316   0.323  0.1535  0.1968 -0.2305
 9104TIP3    H148803   5.537   4.273   0.280  0.9543  0.1220  1.1529
 9104TIP3    H248804   5.485   4.409   0.319 -1.2798  0.5158 -2.6705
 9105TIP3   OH248805   4.089   1.989   5.127 -0.8723 -0.0348 -0.4476
 9105TIP3    H148806   4.076   2.032   5.212 -1.2713 -0.0669 -0.4886
 9105TIP3    H248807   4.096   1.896   5.149  0.0806  0.0500 -0.3501
 9106TIP3   OH248808   5.067   6.346   0.808  0.5970 -0.6988  0.2854
 9106TIP3    H148809   5.142   6.299   0.770  0.6967 -0.0068 -0.3968
 9106TIP3    H248810   4.992   6.315   0.757  0.8559  0.9491 -1.2029
 9107TIP3   OH248811   4.665   0.913  11.880 -0.8682  0.1271  0.3027
 9107TIP3    H148812   4.630   0.847  11.939 -0.9861  1.0148  1.2547
 9107TIP3    H248813   4.606   0.988  11.890 -1.5206 -0.0424 -1.7508
 9108TIP3   OH248814   2.550   4.761   0.845 -0.3023 -0.1887 -0.5232
 9108TIP3    H148815   2.622   4.800   0.895 -1.5309  0.4963  0.7878
 9108TIP3    H248816   2.590   4.685   0.802  1.0402 -0.2991  0.8065
 9109TIP3   OH248817   5.381   0.217  10.663 -0.4870  0.3305 -0.4382
 9109TIP3    H148818   5.455   0.158  10.653 -0.9403 -0.2881 -0.2578
 9109TIP3    H248819   5.356   0.209  10.756  0.6743  2.3272  0.1078
 9110TIP3   OH248820   1.345   5.025  10.918 -0.1994 -0.4878  0.0115
 9110TIP3    H148821   1.390   4.959  10.866  0.1059 -0.7416  0.5896
 9110TIP3    H248822   1.308   4.976  10.992 -0.9569 -0.1964 -0.1629
 9111TIP3   OH248823   5.128   6.352  14.758 -0.3668 -0.2980  0.0274
 9111TIP3    H148824   5.148   6.446  14.756 -0.1650 -0.3138  0.9993
 9111TIP3    H248825   5.078   6.337  14.678  0.0177  0.5431 -0.3852
 9112TIP3   OH248826   3.492   3.991  14.994  0.0893 -0.3294 -0.4371
 9112TIP3    H148827   3.443   4.073  14.986 -1.6675 -0.9105  2.9145
 9112TIP3    H248828   3.539   3.998  15.077  2.3897 -1.5762 -1.5162
 9113TIP3   OH248829   3.412   1.602   1.767  0.0672 -0.1521  0.4521
 9113TIP3    H148830   3.321   1.576   1.778  0.1796 -0.8326 -0.2055
 9113TIP3    H248831   3.412   1.660   1.691  0.2788 -0.7169  0.0120
 9114TIP3   OH248832   6.322   4.572  13.183 -0.1467  0.5682 -0.2276
 9114TIP3    H148833   6.337   4.628  13.107  1.6050  0.4804  0.0224
 9114TIP3    H248834   6.368   4.615  13.255  1.6253 -1.3369 -0.1273
 9115TIP3   OH248835   2.801   2.920   4.232 -0.2908  0.9459  0.7323
 9115TIP3    H148836   2.714   2.886   4.253 -0.4532  1.7711  1.4575
 9115TIP3    H248837   2.788   2.977   4.157  0.0239 -0.7171 -0.6596
 9116TIP3   OH248838   5.846   0.995   5.856  0.1404  0.2216  0.5448
 9116TIP3    H148839   5.785   1.061   5.822 -0.1826  0.3098  1.2929
 9116TIP3    H248840   5.827   0.990   5.949  0.0095 -1.0954  0.4563
 9117TIP3   OH248841   6.590   0.499  12.299 -0.7384  0.1276 -0.1245
 9117TIP3    H148842   6.672   0.465  12.264  1.4326  1.9763  2.7223
 9117TIP3    H248843   6.554   0.552  12.228  1.5484  0.8186 -0.8501
 9118TIP3   OH248844   4.899   5.087  16.754 -0.4597  0.4182  0.0972
 9118TIP3    H148845   4.980   5.135  16.740 -0.3779  0.0970 -0.5454
 9118TIP3    H248846   4.926   4.996  16.765 -0.8721 -0.0919 -2.5005
 9119TIP3   OH248847   5.928   3.616  15.788 -0.0147  0.2453  0.2107
 9119TIP3    H148848   5.877   3.557  15.843 -1.3619 -0.2594 -1.5013
 9119TIP3    H248849   5.981   3.558  15.733  1.5209  0.7447  1.0989
 9120TIP3   OH248850   1.107   3.810   4.285 -0.2342  0.0256 -0.1518
 9120TIP3    H148851   1.134   3.765   4.205 -1.1153  2.7731 -2.1183
 9120TIP3    H248852   1.042   3.751   4.324  0.9038 -1.8099 -0.8766
 9121TIP3   OH248853   3.346   2.717   1.816  0.0223 -0.2398  0.0748
 9121TIP3    H148854   3.302   2.724   1.901  2.5486 -0.0278  1.4696
 9121TIP3    H248855   3.350   2.623   1.799 -0.0581 -0.3051  0.4133
 9122TIP3   OH248856   4.833   5.843   1.813 -0.3147 -0.5561  0.7961
 9122TIP3    H148857   4.751   5.829   1.767  0.7531  0.5687 -1.6597
 9122TIP3    H248858   4.831   5.936   1.838  0.9205 -0.0155 -0.9516
 9123TIP3   OH248859   3.981   6.157   0.620 -0.4070 -0.6251  0.1962
 9123TIP3    H148860   4.061   6.161   0.674 -0.0278  2.6174 -0.3996
 9123TIP3    H248861   3.910   6.167   0.683 -0.3296 -2.1712  0.5809
 9124TIP3   OH248862   1.260   3.109   4.032  0.3857 -0.6241 -0.4191
 9124TIP3    H148863   1.271   3.166   4.109 -2.3394  1.4727 -1.4305
 9124TIP3    H248864   1.254   3.021   4.068  0.5791  0.1481  1.6414
 9125TIP3   OH248865   1.632   4.462  13.980  0.0954 -0.9087  0.0527
 9125TIP3    H148866   1.597   4.503  13.901  0.2502 -2.3769 -0.8223
 9125TIP3    H248867   1.647   4.534  14.040 -0.0564  0.2458 -1.2467
 9126TIP3   OH248868   3.317   3.117   1.538  0.2002  0.5353 -0.0931
 9126TIP3    H148869   3.237   3.156   1.503  0.0933 -0.7421 -1.3580
 9126TIP3    H248870   3.287   3.047   1.596  0.3774 -0.2528 -0.9313
 9127TIP3   OH248871   4.895   6.351  14.901  0.0733  0.6467 -0.2635
 9127TIP3    H148872   4.989   6.343  14.881 -0.1379  1.5803 -1.8133
 9127TIP3    H248873   4.857   6.387  14.821 -1.8340 -0.8871 -0.0979
 9128TIP3   OH248874   2.418   1.874   0.007 -0.4363  0.0979 -0.2748
 9128TIP3    H148875   2.399   1.781  -0.008 -0.3326  0.4023 -2.8588
 9128TIP3    H248876   2.340   1.908   0.050 -0.9061 -0.9916 -0.2409
 9129TIP3   OH248877   4.865   6.770  16.395  0.2561  0.3975  0.2450
 9129TIP3    H148878   4.927   6.843  16.389 -1.2844  1.6888 -0.6602
 9129TIP3    H248879   4.834   6.772  16.486  1.1172  0.0774  0.5556
 9130TIP3   OH248880   0.251   0.269  12.306 -0.6001 -0.0370 -0.1034
 9130TIP3    H148881   0.211   0.202  12.250 -2.4879  1.4512 -0.6369
 9130TIP3    H248882   0.197   0.269  12.385  0.9658 -0.8810  1.0069
 9131TIP3   OH248883   3.362   5.844  16.106 -0.3304 -0.1370  0.0441
 9131TIP3    H148884   3.398   5.868  16.020 -2.8614 -0.9049 -1.3314
 9131TIP3    H248885   3.398   5.757  16.123  2.0245  0.9356  0.9427
 9132TIP3   OH248886   1.028   5.245  15.317 -0.4049 -0.5407 -0.0681
 9132TIP3    H148887   1.106   5.259  15.371 -0.5605 -1.2808  0.3576
 9132TIP3    H248888   0.961   5.301  15.358  0.0155  0.4725 -0.7230
 9133TIP3   OH248889   6.571   5.481   6.243 -0.6488 -0.5166 -0.5691
 9133TIP3    H148890   6.610   5.473   6.330  0.3290 -0.0152 -0.9459
 9133TIP3    H248891   6.502   5.415   6.241 -1.0122 -0.1985  0.7588
 9134TIP3   OH248892   3.181   3.257  12.072  0.0310 -0.7949  0.3070
 9134TIP3    H148893   3.099   3.307  12.079 -0.2363 -1.2164  0.2525
 9134TIP3    H248894   3.175   3.214  11.987 -0.7046 -2.5711  1.2093
 9135TIP3   OH248895   0.546   5.945  11.344  0.0920 -0.1335  0.8084
 9135TIP3    H148896   0.514   5.979  11.428  0.5235 -1.0870  1.3797
 9135TIP3    H248897   0.608   6.011  11.313 -0.3893  0.4245  1.0357
 9136TIP3   OH248898   3.391   5.263   2.824  0.0948  0.0681 -0.1584
 9136TIP3    H148899   3.309   5.292   2.862 -0.7177  2.7528 -3.4491
 9136TIP3    H248900   3.371   5.248   2.732  3.1379  0.2990 -0.9935
 9137TIP3   OH248901   2.533   0.825  14.827 -0.1529 -0.3153  0.5828
 9137TIP3    H148902   2.448   0.858  14.799 -1.0157 -3.3053 -0.8025
 9137TIP3    H248903   2.554   0.874  14.906 -1.3732  3.0498 -1.0108
 9138TIP3   OH248904   2.980   6.698   5.308 -0.1498 -0.0421 -0.3565
 9138TIP3    H148905   2.894   6.728   5.338 -0.1092 -1.0726  0.8507
 9138TIP3    H248906   3.039   6.772   5.327 -0.6812  0.5170 -0.8325
 9139TIP3   OH248907   2.528   6.685   1.068  0.2007  0.1344  0.5920
 9139TIP3    H148908   2.504   6.618   1.004 -0.8451 -0.3248  1.4375
 9139TIP3    H248909   2.623   6.677   1.077  0.2168 -0.5292 -0.0875
 9140TIP3   OH248910   0.627   2.669  12.543 -0.0305 -0.4640  0.1727
 9140TIP3    H148911   0.694   2.605  12.520  0.1341 -0.8779  1.6722
 9140TIP3    H248912   0.622   2.728  12.468  3.0547  0.4532  0.5810
 9141TIP3   OH248913   4.609   4.140  16.129  0.1849  0.4186 -0.6087
 9141TIP3    H148914   4.590   4.106  16.042  2.2649 -0.8428 -0.6315
 9141TIP3    H248915   4.555   4.219  16.136 -0.3976  0.2896 -2.8298
 9142TIP3   OH248916   1.338   6.171  12.045  0.6490 -0.7198 -0.5557
 9142TIP3    H148917   1.329   6.092  12.099 -0.9393 -0.0895  0.1693
 9142TIP3    H248918   1.371   6.238  12.106  1.2452 -0.6122 -0.9839
 9143TIP3   OH248919   1.956   1.681  16.346 -0.2820  0.2399 -0.2417
 9143TIP3    H148920   1.991   1.655  16.261  0.3568  0.9884 -0.2246
 9143TIP3    H248921   1.949   1.776  16.341 -2.0192  0.1534 -0.1074
 9144TIP3   OH248922   0.441   0.523   3.792  0.2395 -0.4610  0.0273
 9144TIP3    H148923   0.380   0.493   3.859 -1.1731 -1.1295 -1.4948
 9144TIP3    H248924   0.523   0.538   3.839 -1.1982  0.9797  2.2398
 9145TIP3   OH248925   3.841   2.044  14.465  0.1175  0.2136  0.4871
 9145TIP3    H148926   3.826   1.951  14.450 -0.4832  0.2516  0.8291
 9145TIP3    H248927   3.771   2.089  14.418 -0.5327  0.4165  1.6266
 9146TIP3   OH248928   2.716   0.354  10.754  0.0086  0.4307  0.1450
 9146TIP3    H148929   2.648   0.340  10.688 -0.9942 -0.6829  1.3350
 9146TIP3    H248930   2.705   0.446  10.780 -0.1657  0.6288 -0.6073
 9147TIP3   OH248931   2.973   5.399  12.821  0.3880  0.0235  0.3017
 9147TIP3    H148932   2.948   5.330  12.882 -0.2965 -0.7787 -0.8538
 9147TIP3    H248933   3.009   5.352  12.745 -2.2533  0.7247 -1.5418
 9148TIP3   OH248934   6.534   0.328  14.965  0.1370 -0.1783 -0.2095
 9148TIP3    H148935   6.546   0.422  14.946  2.0598 -0.0872  1.1549
 9148TIP3    H248936   6.619   0.300  14.999 -0.3868 -2.4655 -0.6770
 9149TIP3   OH248937   0.923   4.055   2.110 -0.0413  0.9847 -0.0869
 9149TIP3    H148938   0.945   4.144   2.138  1.5730  0.2257  1.2464
 9149TIP3    H248939   0.891   4.013   2.189  0.5598 -0.0046 -0.3526
 9150TIP3   OH248940   1.226   4.894   2.450  0.3742  0.2665  0.5098
 9150TIP3    H148941   1.153   4.839   2.420 -0.8380  1.8638  0.3533
 9150TIP3    H248942   1.298   4.872   2.391 -0.5738  0.0206 -0.6114
 9151TIP3   OH248943   5.628   6.130   5.463 -0.0242  0.4750 -0.1577
 9151TIP3    H148944   5.534   6.116   5.452 -0.1481  1.2297 -0.1156
 9151TIP3    H248945   5.668   6.049   5.432 -0.8258 -1.2198  2.8490
 9152TIP3   OH248946   3.066   0.363  14.211  0.0757 -0.3692  0.8608
 9152TIP3    H148947   3.136   0.330  14.154  0.1168  1.0700  0.0272
 9152TIP3    H248948   3.109   0.428  14.266 -0.5293  0.3340  0.5284
 9153TIP3   OH248949   2.927   5.169   1.256 -0.4954  0.0367  0.4912
 9153TIP3    H148950   2.856   5.199   1.314 -0.0963  0.1949  0.9028
 9153TIP3    H248951   2.911   5.216   1.174 -0.7611  0.2123  0.6391
 9154TIP3   OH248952   0.974   4.813  12.365 -0.0477 -0.4772  0.0639
 9154TIP3    H148953   0.881   4.837  12.368  0.2010  0.4922  1.0099
 9154TIP3    H248954   1.020   4.897  12.363  0.8183 -0.9396  0.2003
 9155TIP3   OH248955   4.711   1.269  13.602  0.2271 -0.1303  0.2453
 9155TIP3    H148956   4.736   1.308  13.686  0.7314  0.5158 -0.1909
 9155TIP3    H248957   4.792   1.265  13.552 -0.0997 -0.3386 -0.2795
 9156TIP3   OH248958   0.556   1.455   0.816 -0.5288  0.5556 -0.1422
 9156TIP3    H148959   0.499   1.503   0.756 -0.4444  0.2667 -0.4516
 9156TIP3    H248960   0.611   1.523   0.856  1.1058  0.5222 -2.1881
 9157TIP3   OH248961   2.978   0.807   4.027  0.1896 -0.0073 -0.1499
 9157TIP3    H148962   2.927   0.735   3.992 -1.5048  0.3061  1.5079
 9157TIP3    H248963   3.034   0.835   3.954 -0.1941 -1.9854 -1.2656
 9158TIP3   OH248964   1.353   6.193   0.726 -0.0124  0.6961  0.1074
 9158TIP3    H148965   1.426   6.141   0.758 -1.1830 -1.6990 -0.8610
 9158TIP3    H248966   1.285   6.184   0.793 -0.1213  1.2802  0.0863
 9159TIP3   OH248967   0.113   1.462  17.113 -0.4398  0.2648  0.3374
 9159TIP3    H148968   0.137   1.392  17.052 -0.5918 -1.1121  1.8019
 9159TIP3    H248969   0.026   1.490  17.085 -0.5590 -0.4351 -0.0044
 9160TIP3   OH248970   5.877   5.532   6.790 -0.4313 -0.0901  0.4346
 9160TIP3    H148971   5.840   5.581   6.863  2.0476 -0.0132  1.7250
 9160TIP3    H248972   5.851   5.441   6.806  1.0128 -0.2516  2.0958
 9161TIP3   OH248973   3.619   3.576   4.130 -0.1366  0.0382 -0.3384
 9161TIP3    H148974   3.626   3.612   4.219 -0.9223 -1.6871  0.4610
 9161TIP3    H248975   3.526   3.582   4.109 -0.1980 -1.0024 -0.3967
 9162TIP3   OH248976   2.619   6.079   4.800 -0.1706  0.3245  0.3287
 9162TIP3    H148977   2.692   6.067   4.739 -2.1068  0.9670 -2.2611
 9162TIP3    H248978   2.619   6.173   4.818  0.3137  0.1553  1.2560
 9163TIP3   OH248979   1.011   0.175  10.666  0.0438  0.1411 -0.5547
 9163TIP3    H148980   1.006   0.151  10.759 -0.8953  0.7192 -0.4501
 9163TIP3    H248981   1.075   0.114  10.629  0.2279 -0.2662  0.4160
 9164TIP3   OH248982   0.642   1.973  16.313 -0.3605  0.9867  0.5915
 9164TIP3    H148983   0.711   1.955  16.376 -0.3662  2.0353  0.9089
 9164TIP3    H248984   0.563   1.986  16.366 -1.1127 -1.3719  0.1838
 9165TIP3   OH248985   2.550   4.519   3.433  1.0368 -0.3387  0.5319
 9165TIP3    H148986   2.545   4.607   3.472  1.2163 -0.0804 -0.0109
 9165TIP3    H248987   2.526   4.533   3.342  1.4678 -0.7858  0.3465
 9166TIP3   OH248988   4.789   3.037   5.622 -0.2936  0.0236  0.0775
 9166TIP3    H148989   4.881   3.042   5.596  0.0551  0.8741  1.3610
 9166TIP3    H248990   4.746   3.108   5.575 -0.1380  0.0872  0.0309
 9167TIP3   OH248991   0.220   2.978  14.398  0.1851 -0.0763  0.3186
 9167TIP3    H148992   0.216   3.074  14.395 -0.2131 -0.0845  0.5075
 9167TIP3    H248993   0.221   2.957  14.491  2.3597 -0.1902  0.3308
 9168TIP3   OH248994   5.539   1.340  13.695  0.4022 -0.1180  0.0191
 9168TIP3    H148995   5.557   1.360  13.603  1.0234  0.7766  0.3250
 9168TIP3    H248996   5.575   1.253  13.708  2.2789  0.5959 -0.0573
 9169TIP3   OH248997   4.512   6.141  13.531  0.1145  0.5458 -0.2999
 9169TIP3    H148998   4.514   6.122  13.437  0.6802 -1.5110  0.0820
 9169TIP3    H248999   4.419   6.134  13.555 -0.0255  1.0303 -0.6928
 9170TIP3   OH249000   4.856   0.029  14.344  0.3050  0.5358  0.5422
 9170TIP3    H149001   4.835   0.029  14.251  1.8443  0.2404  0.1724
 9170TIP3    H249002   4.792  -0.031  14.383 -1.0677  1.5155 -0.1228
 9171TIP3   OH249003   4.402   2.970   2.239  0.4351  0.7450 -0.2153
 9171TIP3    H149004   4.397   2.982   2.334 -1.6518  0.8718 -0.3002
 9171TIP3    H249005   4.430   3.055   2.205  1.1719  0.7022  0.2597
 9172TIP3   OH249006   0.034   0.658  16.173 -0.3144 -0.3573 -0.2860
 9172TIP3    H149007   0.060   0.639  16.263  0.2892  1.5482  0.0025
 9172TIP3    H249008  -0.058   0.682  16.179 -0.3852 -0.6435 -0.2408
 9173TIP3   OH249009   1.158   2.661  12.250  0.1720 -0.5291  0.2554
 9173TIP3    H149010   1.169   2.576  12.207  0.1237 -0.6797  0.5417
 9173TIP3    H249011   1.136   2.640  12.341  2.5250 -0.2218  0.9600
 9174TIP3   OH249012   5.052   0.775   4.052  0.0563  0.1950  0.3230
 9174TIP3    H149013   5.078   0.737   4.136 -0.7781 -0.0799  0.4678
 9174TIP3    H249014   4.995   0.709   4.013  2.0205 -0.5980 -1.4106
 9175TIP3   OH249015   4.775   5.383   3.157  0.6132 -0.3189  0.5465
 9175TIP3    H149016   4.786   5.421   3.071 -0.0777  1.4127  1.1868
 9175TIP3    H249017   4.774   5.288   3.142  0.7490 -0.0514 -1.2856
 9176TIP3   OH249018   4.476   0.421  11.980 -0.0335  0.5109 -0.1193
 9176TIP3    H149019   4.463   0.356  12.050 -0.1711  0.2248 -0.4075
 9176TIP3    H249020   4.393   0.469  11.976 -0.2296  0.1444 -0.4743
 9177TIP3   OH249021   3.325   4.497  16.443 -0.4525  0.3122 -0.0556
 9177TIP3    H149022   3.287   4.486  16.356 -1.8360  1.3917  0.3925
 9177TIP3    H249023   3.298   4.418  16.491  0.3914 -0.3304 -0.5959
 9178TIP3   OH249024   5.834   5.932   1.601 -0.6181  0.5731  0.0938
 9178TIP3    H149025   5.839   5.893   1.688  0.1685 -0.8879 -0.5521
 9178TIP3    H249026   5.805   5.859   1.545  1.3553  0.7526 -1.2550
 9179TIP3   OH249027   0.838   6.760   5.287 -0.1666 -0.1179  0.3868
 9179TIP3    H149028   0.907   6.785   5.227  1.5362 -1.5767  1.6253
 9179TIP3    H249029   0.756   6.780   5.241  1.0583 -0.1944 -1.9171
 9180TIP3   OH249030   5.016   0.264  15.880  0.1112  0.0297  0.1291
 9180TIP3    H149031   4.958   0.233  15.810 -0.4984  1.1522  0.1026
 9180TIP3    H249032   5.005   0.359  15.880  0.6879  0.1204  1.2419
 9181TIP3   OH249033   1.784   6.798   3.586  0.2688  0.0502 -0.0456
 9181TIP3    H149034   1.715   6.791   3.652 -0.9674  2.7134 -0.9307
 9181TIP3    H249035   1.860   6.831   3.635  0.2327 -0.6829  0.5200
 9182TIP3   OH249036   1.449   6.697   2.934  0.6546  0.4879  0.8526
 9182TIP3    H149037   1.412   6.628   2.880  1.6274  0.5899  0.0180
 9182TIP3    H249038   1.376   6.756   2.952  0.1365  0.0044  0.3506
 9183TIP3   OH249039   1.397   6.555   2.208  0.5657  0.2569 -0.4555
 9183TIP3    H149040   1.303   6.536   2.206  0.8813 -1.7019  0.5625
 9183TIP3    H249041   1.403   6.645   2.238 -0.9908 -0.6828  3.2554
 9184TIP3   OH249042   2.136   5.592   6.016 -0.2537  0.1827  0.8591
 9184TIP3    H149043   2.148   5.540   6.095 -1.1007 -0.1244  0.7903
 9184TIP3    H249044   2.200   5.557   5.954 -0.9509 -0.9410  0.7419
 9185TIP3   OH249045   5.522   3.924   2.421 -0.0984 -0.0481  0.5138
 9185TIP3    H149046   5.475   3.890   2.345  2.3796  1.0295 -1.6095
 9185TIP3    H249047   5.518   4.019   2.411  2.3398  0.0872  0.2993
 9186TIP3   OH249048   5.924   2.841  13.912  0.2204  0.7359  0.1796
 9186TIP3    H149049   6.018   2.854  13.919  0.6517 -1.7795 -0.0148
 9186TIP3    H249050   5.904   2.773  13.977 -1.5503  1.5868  0.5715
 9187TIP3   OH249051   3.183   2.023  12.188 -0.1089 -0.2058 -0.0191
 9187TIP3    H149052   3.200   1.973  12.108 -0.0181  0.4611 -0.4307
 9187TIP3    H249053   3.228   1.974  12.257 -1.0399 -1.3459 -0.1855
 9188TIP3   OH249054   2.713   4.352  16.881  0.1785  0.6239  0.4956
 9188TIP3    H149055   2.642   4.303  16.922 -0.6085  0.9305 -0.4787
 9188TIP3    H249056   2.691   4.353  16.788  2.1598 -0.4753 -0.0498
 9189TIP3   OH249057   4.457   3.413  13.382 -0.2388  1.1883  0.9371
 9189TIP3    H149058   4.539   3.434  13.426  0.4267 -0.4595  0.5281
 9189TIP3    H249059   4.403   3.491  13.394  0.9578  1.8534  2.2123
 9190TIP3   OH249060   6.030   4.881  14.152  0.3068  0.5747  0.0393
 9190TIP3    H149061   5.990   4.944  14.092  0.3494  1.0415  0.4948
 9190TIP3    H249062   6.049   4.931  14.231 -1.9944 -0.5535  1.4127
 9191TIP3   OH249063   0.124   6.624  12.709  0.0305  0.0960 -0.3419
 9191TIP3    H149064   0.084   6.546  12.748 -1.2239  1.0093  0.2744
 9191TIP3    H249065   0.162   6.670  12.784 -1.6662  1.4479 -0.2631
 9192TIP3   OH249066   0.252   4.180   0.317 -0.5028  0.1459 -0.3066
 9192TIP3    H149067   0.253   4.145   0.406 -1.3028 -0.4229 -0.5080
 9192TIP3    H249068   0.281   4.270   0.327  1.4106 -0.4807  0.2605
 9193TIP3   OH249069   5.850   0.208  12.402  0.5152  0.5727  0.2488
 9193TIP3    H149070   5.865   0.126  12.355 -1.2144  0.9360 -1.0261
 9193TIP3    H249071   5.938   0.245  12.414  1.3834 -1.6719  1.3269
 9194TIP3   OH249072   3.819   4.139   2.059  0.0553 -0.5479 -0.1178
 9194TIP3    H149073   3.840   4.187   1.979 -1.8608 -0.4427 -0.6095
 9194TIP3    H249074   3.773   4.202   2.113  1.2715 -0.6425  1.0750
 9195TIP3   OH249075   3.663   2.228  13.624 -0.0823  0.7541 -0.4936
 9195TIP3    H149076   3.631   2.184  13.546  0.5921 -0.2385 -0.2350
 9195TIP3    H249077   3.668   2.321  13.599  1.2769  0.3156 -2.0501
 9196TIP3   OH249078   4.855   3.751   6.135 -0.8035 -0.1906 -0.0769
 9196TIP3    H149079   4.911   3.802   6.194 -3.1172  0.6726  1.4824
 9196TIP3    H249080   4.910   3.737   6.058  0.4674  3.4808 -0.0533
 9197TIP3   OH249081   3.948   2.977  11.837 -0.0158  0.5884 -0.0785
 9197TIP3    H149082   3.938   3.067  11.807  0.9176  0.7141 -0.0652
 9197TIP3    H249083   3.896   2.972  11.918  0.3718  1.2763  0.2211
 9198TIP3   OH249084   2.935   5.282   3.095  0.1967 -0.1568 -0.5368
 9198TIP3    H149085   2.947   5.188   3.109 -0.2057 -0.0207  0.8812
 9198TIP3    H249086   2.885   5.311   3.171 -0.4214  1.0625 -1.3766
 9199TIP3   OH249087   1.629   6.740  16.843  0.2235 -0.3280 -0.0937
 9199TIP3    H149088   1.542   6.780  16.850  1.3887  2.4753 -0.3010
 9199TIP3    H249089   1.689   6.807  16.877  2.1611 -3.2522  2.8437
 9200TIP3   OH249090   0.078   4.853  13.526 -0.0112 -0.1579  0.0404
 9200TIP3    H149091   0.037   4.881  13.443  0.0303 -0.0923  0.0413
 9200TIP3    H249092   0.054   4.761  13.534 -1.4952  0.2590  0.8292
 9201TIP3   OH249093   2.768   1.889   3.704  0.1584 -0.0910 -0.0215
 9201TIP3    H149094   2.682   1.858   3.731  0.5131 -0.0907  1.1743
 9201TIP3    H249095   2.806   1.927   3.784  1.4699 -0.5642 -0.3965
 9202TIP3   OH249096   1.665   4.412   4.352  0.9244 -0.4240  0.0152
 9202TIP3    H149097   1.638   4.497   4.317  0.3770 -0.4104  0.4518
 9202TIP3    H249098   1.584   4.374   4.387  1.3230 -0.7515  0.5995
 9203TIP3   OH249099   2.948   2.611  14.358 -0.1689  0.0167  0.6046
 9203TIP3    H149100   2.871   2.643  14.310  0.5172  1.0851  0.1779
 9203TIP3    H249101   3.001   2.689  14.372  2.0363 -0.9992 -1.3261
 9204TIP3   OH249102   3.193   4.785  13.628  0.3429 -0.1213  0.8065
 9204TIP3    H149103   3.227   4.873  13.613 -1.2817  0.4069 -0.0016
 9204TIP3    H249104   3.256   4.728  13.583  0.7048  0.7213  0.1993
 9205TIP3   OH249105   0.837   3.484  11.176 -0.1767 -0.1936  0.2682
 9205TIP3    H149106   0.920   3.437  11.183 -1.4156 -2.3793  1.3706
 9205TIP3    H249107   0.833   3.537  11.256  1.2116  1.9013 -0.9637
 9206TIP3   OH249108   1.382   4.925  11.163 -0.1845 -0.0152  0.4180
 9206TIP3    H149109   1.463   4.882  11.135 -1.1300 -1.4816 -0.2234
 9206TIP3    H249110   1.368   4.893  11.252 -0.3275 -0.2129  0.3274
 9207TIP3   OH249111   1.552   4.253  11.209 -0.0925  0.1180  0.0236
 9207TIP3    H149112   1.631   4.204  11.233  0.7368  1.8555  1.0443
 9207TIP3    H249113   1.573   4.293  11.124 -0.1369  0.0147 -0.0355
 9208TIP3   OH249114   4.468   4.585   2.225 -0.0514  0.0276 -0.2243
 9208TIP3    H149115   4.509   4.530   2.292 -0.7215  0.5828  0.6607
 9208TIP3    H249116   4.506   4.672   2.238 -1.3388  0.5120  0.4993
 9209TIP3   OH249117   6.690   0.930   1.542  0.0302 -0.1094 -0.6389
 9209TIP3    H149118   6.677   0.857   1.602  3.7785  0.0364  0.6153
 9209TIP3    H249119   6.679   0.893   1.455 -0.7710 -1.5015  0.0280
 9210TIP3   OH249120   4.307   3.100   5.508  0.2047 -0.0092  0.2492
 9210TIP3    H149121   4.230   3.102   5.564  0.4912 -1.3403  0.7264
 9210TIP3    H249122   4.344   3.013   5.521 -0.3728 -0.8649 -2.8915
 9211TIP3   OH249123   5.110   3.930  11.662  0.4540 -1.0286  0.3164
 9211TIP3    H149124   5.030   3.894  11.701 -0.2890  1.2965  1.1241
 9211TIP3    H249125   5.136   4.000  11.721  2.0102 -0.4811 -0.9541
 9212TIP3   OH249126   1.355   0.621  15.666 -0.1635 -0.2132  0.4808
 9212TIP3    H149127   1.431   0.611  15.608 -0.6270  0.6677 -0.3083
 9212TIP3    H249128   1.388   0.600  15.753  1.0731  0.4452  0.1944
 9213TIP3   OH249129   3.996   6.539   1.306  0.1707  0.1881 -0.5514
 9213TIP3    H149130   4.071   6.482   1.320 -0.1436 -0.1421 -0.1919
 9213TIP3    H249131   4.028   6.627   1.328  0.3191 -0.0168  0.0634
 9214TIP3   OH249132   6.705   6.577  13.691  0.0768  0.7538 -0.7970
 9214TIP3    H149133   6.698   6.605  13.599  5.0143  1.0414 -1.3291
 9214TIP3    H249134   6.750   6.649  13.735  0.4303 -0.5801  1.1687
 9215TIP3   OH249135   0.010   0.893  14.266  0.1934  0.6002  0.2363
 9215TIP3    H149136  -0.079   0.860  14.274  0.2793 -0.6579 -2.6282
 9215TIP3    H249137   0.065   0.815  14.268  0.7244  0.7404 -2.8023
 9216TIP3   OH249138   1.576   1.493  13.484  0.0318  0.9320  0.0872
 9216TIP3    H149139   1.588   1.470  13.392 -0.2345  1.1502 -0.0034
 9216TIP3    H249140   1.570   1.409  13.530 -0.8714  0.8099 -0.2304
 9217TIP3   OH249141   1.763   1.279   1.901  0.4240 -0.2617 -0.3361
 9217TIP3    H149142   1.670   1.300   1.913  0.6833  0.9173 -0.2176
 9217TIP3    H249143   1.767   1.184   1.905 -0.6258 -0.2856  0.8444
 9218TIP3   OH249144   2.416   0.227   4.267  0.5874 -0.2101  0.0987
 9218TIP3    H149145   2.442   0.306   4.221 -1.7153  1.3519  1.3108
 9218TIP3    H249146   2.482   0.216   4.336 -0.1673  1.9053  1.2285
 9219TIP3   OH249147   5.406   3.097  16.770 -0.3474 -0.1724 -0.2183
 9219TIP3    H149148   5.424   3.155  16.696 -1.2999  0.2272 -0.1552
 9219TIP3    H249149   5.311   3.088  16.771 -0.3691 -0.0019  1.0781
 9220TIP3   OH249150   6.467   0.204  10.329  0.1087 -0.1887 -0.0161
 9220TIP3    H149151   6.485   0.298  10.337  0.6056 -0.0336 -2.3192
 9220TIP3    H249152   6.522   0.163  10.397 -0.7864  1.2004  1.6168
 9221TIP3   OH249153   6.522   0.119   2.489  0.7654  0.0601  0.5698
 9221TIP3    H149154   6.613   0.107   2.513  0.7688 -0.3366  0.3662
 9221TIP3    H249155   6.508   0.058   2.416  0.2799 -0.0510  0.7495
 9222TIP3   OH249156   2.610   0.204   4.452  0.4346  0.0866 -0.6616
 9222TIP3    H149157   2.658   0.147   4.391  1.1492  1.7776 -1.7302
 9222TIP3    H249158   2.658   0.286   4.452 -0.4332  0.6458  1.0481
 9223TIP3   OH249159   2.629   1.845  15.721  0.4346  0.3494  0.1376
 9223TIP3    H149160   2.601   1.914  15.781 -1.1657  2.3265 -2.5930
 9223TIP3    H249161   2.547   1.800  15.698  0.7540  0.4807 -1.3976
 9224TIP3   OH249162   1.015   5.489   3.596  0.4096  0.2320 -0.1825
 9224TIP3    H149163   0.936   5.450   3.559  0.2284 -0.7164  1.1193
 9224TIP3    H249164   0.994   5.582   3.606 -0.1112  0.1994 -0.9244
 9225TIP3   OH249165   3.896   0.402  15.288 -0.3061 -0.3504  0.2591
 9225TIP3    H149166   3.843   0.350  15.348 -0.8424 -0.6502 -0.4667
 9225TIP3    H249167   3.871   0.371  15.201 -0.3607  0.8683 -0.1726
 9226TIP3   OH249168   1.559   2.442  16.355 -0.6187  0.3355 -0.0711
 9226TIP3    H149169   1.573   2.537  16.352 -1.9391  0.5414 -0.3627
 9226TIP3    H249170   1.535   2.425  16.447 -0.1267  0.2437  0.0413
 9227TIP3   OH249171   2.060   2.853  17.085  0.0802  0.1744 -0.0521
 9227TIP3    H149172   1.966   2.864  17.100 -0.3853 -3.0868  0.0030
 9227TIP3    H249173   2.077   2.901  17.004 -2.1450 -0.9779 -1.2890
 9228TIP3   OH249174   6.615   4.963   6.643 -0.0160  0.5498 -0.0386
 9228TIP3    H149175   6.553   4.894   6.667  0.3699  0.3508  0.3824
 9228TIP3    H249176   6.580   5.042   6.685 -0.1894  0.5146 -0.1149
 9229TIP3   OH249177   0.509   2.797   3.733  0.2300 -0.0547  0.3420
 9229TIP3    H149178   0.562   2.739   3.678  0.6900  0.8535 -0.2006
 9229TIP3    H249179   0.537   2.778   3.823  2.3325  1.1731  0.0234
 9230TIP3   OH249180   6.067   0.803   1.104  0.1505 -0.7340  0.3492
 9230TIP3    H149181   6.153   0.818   1.066  0.1281  0.0383  0.5908
 9230TIP3    H249182   6.065   0.709   1.121  1.1768 -0.6708  0.8971
 9231TIP3   OH249183   0.750   2.655  11.505 -0.4661  0.2088 -0.5132
 9231TIP3    H149184   0.756   2.565  11.536  1.0332  0.2017 -0.7896
 9231TIP3    H249185   0.666   2.687  11.540 -1.4348 -1.5395 -1.1169
 9232TIP3   OH249186   3.554   1.424  11.116 -0.5150  0.2510 -0.1088
 9232TIP3    H149187   3.643   1.416  11.083  0.0786  0.3770  1.3615
 9232TIP3    H249188   3.533   1.336  11.149 -1.0254  0.1615 -0.6639
 9233TIP3   OH249189   6.093   2.468   5.570 -0.0320 -0.3963 -0.1405
 9233TIP3    H149190   6.025   2.463   5.503 -1.0414 -2.1585  0.9294
 9233TIP3    H249191   6.124   2.378   5.579 -0.3869 -0.3453  2.1701
 9234TIP3   OH249192   2.805   2.496   5.932  0.2999 -0.0945 -0.2917
 9234TIP3    H149193   2.874   2.443   5.891 -0.8614 -1.2884 -0.7946
 9234TIP3    H249194   2.763   2.542   5.859  1.2578  1.5329  0.1353
 9235TIP3   OH249195   3.587   6.786   0.477  0.3021  0.2342  0.1686
 9235TIP3    H149196   3.661   6.747   0.524  0.3456  0.3540  0.2007
 9235TIP3    H249197   3.597   6.756   0.387  0.1746 -0.0591  0.2509
 9236TIP3   OH249198   1.565   2.516   0.192  0.1933  0.3079 -0.9532
 9236TIP3    H149199   1.616   2.436   0.179  0.4454  0.4863 -1.0683
 9236TIP3    H249200   1.630   2.582   0.219 -0.2568 -0.0088  1.1354
 9237TIP3   OH249201   1.844   4.902  13.619 -0.2349 -0.0441  0.4396
 9237TIP3    H149202   1.768   4.941  13.662 -1.0635 -1.6157  0.4465
 9237TIP3    H249203   1.828   4.808  13.620  0.6649 -0.2801 -1.5054
 9238TIP3   OH249204   1.324   0.701   1.596 -0.2344 -0.2697  0.5600
 9238TIP3    H149205   1.269   0.671   1.524 -3.1711 -0.4767  2.7024
 9238TIP3    H249206   1.397   0.639   1.598  0.5914  0.4340 -2.8352
 9239TIP3   OH249207   6.585   5.789  17.159 -0.0594  0.3438 -0.0351
 9239TIP3    H149208   6.638   5.787  17.079 -0.6039 -0.3882 -0.3889
 9239TIP3    H249209   6.607   5.709  17.205  2.2018  1.9352  1.8938
 9240TIP3   OH249210   3.279   0.559   3.519  0.4946 -0.1461 -0.0767
 9240TIP3    H149211   3.220   0.578   3.592  0.2558 -0.3943 -0.2047
 9240TIP3    H249212   3.288   0.464   3.520  1.1344 -0.0863  0.1297
 9241TIP3   OH249213   6.589   5.948  16.032 -0.4179 -0.6691 -0.3985
 9241TIP3    H149214   6.537   5.991  16.100  0.5493 -0.3766  0.1861
 9241TIP3    H249215   6.623   5.869  16.074  1.4736  0.2948  0.0336
 9242TIP3   OH249216   6.649   6.113   5.108  0.0441 -0.1880  0.6091
 9242TIP3    H149217   6.648   6.072   5.022 -0.8300 -0.3031  0.6612
 9242TIP3    H249218   6.699   6.053   5.163 -0.3522 -0.6797  0.4398
 9243TIP3   OH249219   2.002   3.641  11.809 -0.5290  0.2703  0.0590
 9243TIP3    H149220   1.976   3.594  11.888 -0.8034 -0.8038 -0.6417
 9243TIP3    H249221   2.060   3.580  11.762 -1.5589  0.2696 -1.2803
 9244TIP3   OH249222   3.276   5.547   1.341 -0.0681 -0.3274 -0.3813
 9244TIP3    H149223   3.240   5.459   1.329 -2.1034  0.1902  1.2768
 9244TIP3    H249224   3.243   5.597   1.267  0.8557 -0.8508 -1.1720
 9245TIP3   OH249225   5.975   2.386  11.733  0.3543  0.0546 -0.6700
 9245TIP3    H149226   5.988   2.410  11.824 -0.4172  0.3430 -0.6221
 9245TIP3    H249227   5.970   2.290  11.734 -0.2114  0.0794 -0.3189
 9246TIP3   OH249228   4.173   5.290  12.405 -0.2600  0.1850 -0.3997
 9246TIP3    H149229   4.082   5.311  12.423 -0.5688 -1.0143 -0.4665
 9246TIP3    H249230   4.175   5.269  12.311  0.0034 -0.1528 -0.3218
 9247TIP3   OH249231   1.743   4.447   6.016 -0.7546  0.8480  0.8293
 9247TIP3    H149232   1.795   4.367   6.019  0.5605  1.3499 -3.0059
 9247TIP3    H249233   1.800   4.515   6.051 -0.8716  0.5388  1.6245
 9248TIP3   OH249234   5.274   1.374   1.251  0.5594  0.2809  0.5344
 9248TIP3    H149235   5.251   1.329   1.170  1.2249 -0.9702  1.0160
 9248TIP3    H249236   5.221   1.332   1.319  0.3698  0.9805  0.8289
 9249TIP3   OH249237   6.735   3.078  16.721 -0.4977 -0.1972  0.3072
 9249TIP3    H149238   6.738   3.069  16.626 -1.0922  1.5217  0.0930
 9249TIP3    H249239   6.816   3.124  16.743  0.7322 -2.5014  0.9384
 9250TIP3   OH249240   2.181   5.292   3.639  0.2628 -0.7684 -0.3280
 9250TIP3    H149241   2.241   5.282   3.713  0.7104 -1.5392 -0.7822
 9250TIP3    H249242   2.199   5.380   3.606  1.3816 -1.0982 -0.6445
 9251TIP3   OH249243   1.379   5.246  13.942  0.0827 -0.4988  0.3215
 9251TIP3    H149244   1.357   5.154  13.957 -0.5934 -0.4114 -0.0962
 9251TIP3    H249245   1.364   5.288  14.027 -4.2477  0.0897 -0.4966
 9252TIP3   OH249246   5.365   4.108  11.387 -0.1942 -0.7241  0.0838
 9252TIP3    H149247   5.286   4.154  11.415  0.4278 -0.6180  1.7878
 9252TIP3    H249248   5.384   4.047  11.458  3.0048  1.4740  1.3735
 9253TIP3   OH249249   3.345   0.495   3.090  0.5342 -0.1133 -0.4649
 9253TIP3    H149250   3.384   0.416   3.127 -0.2987 -0.6430 -0.6717
 9253TIP3    H249251   3.292   0.463   3.016  0.0643  0.6136 -0.4550
 9254TIP3   OH249252   6.203   5.791   0.553  0.0074 -0.3175 -0.0890
 9254TIP3    H149253   6.294   5.804   0.526  0.4065 -1.8719  0.4348
 9254TIP3    H249254   6.171   5.719   0.499 -0.3622 -0.9356  0.9168
 9255TIP3   OH249255   6.733   4.363   0.507  0.1550  0.1011  0.1782
 9255TIP3    H149256   6.757   4.422   0.579  0.0429  0.8038 -0.3458
 9255TIP3    H249257   6.751   4.275   0.540 -1.6729  0.2661  1.7442
 9256TIP3   OH249258   6.468   1.722  12.524  0.1916 -0.1388  0.0207
 9256TIP3    H149259   6.473   1.811  12.489  0.0292  0.1523  0.7275
 9256TIP3    H249260   6.546   1.679  12.489  0.4734  0.3939 -0.0242
 9257TIP3   OH249261   3.044   2.799   1.783 -0.0085  0.0733  0.7129
 9257TIP3    H149262   3.069   2.891   1.780 -1.1877  0.3913 -0.3908
 9257TIP3    H249263   3.114   2.753   1.736  0.2859  0.4757  0.7530
 9258TIP3   OH249264   5.253   3.068   0.789  0.2839 -0.2046  0.2010
 9258TIP3    H149265   5.331   3.054   0.736  0.1528  1.1118 -0.4027
 9258TIP3    H249266   5.192   3.112   0.730  0.1639  1.4084  1.4508
 9259TIP3   OH249267   0.210   4.390   0.941 -0.0213  0.1567  0.0517
 9259TIP3    H149268   0.186   4.369   1.031 -0.7702 -1.0328 -0.3979
 9259TIP3    H249269   0.271   4.463   0.949  2.4312 -1.8950  1.7575
 9260TIP3   OH249270   3.162   5.073   5.746  0.4896 -0.1615 -0.0188
 9260TIP3    H149271   3.197   5.104   5.662  0.4137  0.9009  0.3204
 9260TIP3    H249272   3.096   5.139   5.769 -2.0401 -2.2188 -0.8001
 9261TIP3   OH249273   1.849   3.357   2.536  0.7438  0.0079  0.4326
 9261TIP3    H149274   1.825   3.287   2.475 -0.6118  2.4213 -2.0311
 9261TIP3    H249275   1.859   3.313   2.621 -0.6688 -3.0203 -0.8317
 9262TIP3   OH249276   5.731   3.300   3.434 -0.3327  0.4854  0.2932
 9262TIP3    H149277   5.667   3.301   3.505 -0.7663  1.1572 -0.0956
 9262TIP3    H249278   5.816   3.309   3.478 -0.7218  3.3874  0.6360
 9263TIP3   OH249279   0.306   2.006  12.967  0.8136 -0.8277  0.0846
 9263TIP3    H149280   0.376   2.039  13.023  0.3584 -0.0613  0.2155
 9263TIP3    H249281   0.228   2.051  12.998  0.5852 -0.2675 -1.2769
 9264TIP3   OH249282   2.112   0.719   4.117  0.1120 -0.5376  0.3649
 9264TIP3    H149283   2.148   0.766   4.041  1.5233 -1.3513  0.4969
 9264TIP3    H249284   2.052   0.782   4.158 -0.9631 -0.1998 -1.6067
 9265TIP3   OH249285   5.686   2.052   0.762 -0.3931 -0.1145  0.1615
 9265TIP3    H149286   5.634   2.130   0.743  0.8772  1.0463  1.2918
 9265TIP3    H249287   5.777   2.080   0.752  0.0961 -1.9059 -1.0673
 9266TIP3   OH249288   5.080   4.677  11.491 -0.2691  0.1467 -0.2558
 9266TIP3    H149289   5.130   4.758  11.484  1.0200 -0.6690 -0.8678
 9266TIP3    H249290   5.007   4.698  11.549  0.6401  1.4532  0.4464
 9267TIP3   OH249291   1.473   0.054  10.610  0.6613 -0.5946 -0.3210
 9267TIP3    H149292   1.535   0.006  10.555  0.4210 -0.6424 -0.5515
 9267TIP3    H249293   1.460   0.137  10.564  1.0699 -0.3098  0.0740
 9268TIP3   OH249294   1.973   5.444  15.463 -0.0910  0.0550  0.1019
 9268TIP3    H149295   1.900   5.392  15.430  2.4474 -2.1583 -2.6593
 9268TIP3    H249296   2.004   5.395  15.540 -1.4383  1.0470  1.3333
 9269TIP3   OH249297   1.301   3.854  14.278  0.1054  0.0921 -0.8318
 9269TIP3    H149298   1.215   3.895  14.277 -0.1711 -0.4856 -1.1862
 9269TIP3    H249299   1.362   3.927  14.289 -0.3939  0.5697 -1.1594
 9270TIP3   OH249300   4.262   6.009   1.189 -0.0400  0.0411 -0.0927
 9270TIP3    H149301   4.173   5.985   1.163 -0.8399 -1.3078  3.3460
 9270TIP3    H249302   4.315   5.935   1.162 -0.4634 -0.3560  0.1386
 9271TIP3   OH249303   0.412   6.213   3.470  0.5721  0.1862 -0.5722
 9271TIP3    H149304   0.350   6.140   3.471  1.3230 -0.4631  0.2211
 9271TIP3    H249305   0.391   6.261   3.390 -1.1663  0.1830 -0.1547
 9272TIP3   OH249306   6.481   1.086   1.213 -0.3629 -0.1881 -0.0627
 9272TIP3    H149307   6.562   1.043   1.241 -2.2245 -1.9896  3.3024
 9272TIP3    H249308   6.455   1.039   1.134  1.0247 -0.7208 -0.2228
 9273TIP3   OH249309   3.770   6.110  13.251  0.2793 -0.2631 -0.7678
 9273TIP3    H149310   3.760   6.205  13.260  0.4317 -0.1724 -1.4701
 9273TIP3    H249311   3.763   6.094  13.157  1.5457 -0.7976 -0.7901
 9274TIP3   OH249312   3.081   5.449  13.622 -0.2900 -0.5218  0.1574
 9274TIP3    H149313   3.057   5.450  13.530 -1.2928 -0.3381  0.4041
 9274TIP3    H249314   3.172   5.420  13.623  0.1546  0.7534 -0.9733
 9275TIP3   OH249315   0.739   6.513   2.761  0.2211  0.0168  0.0129
 9275TIP3    H149316   0.696   6.431   2.735  0.7500 -0.5587  0.8992
 9275TIP3    H249317   0.713   6.576   2.694 -1.2330 -0.5474  0.0060
 9276TIP3   OH249318   6.731   6.769   4.761 -0.3186 -0.1102 -0.2999
 9276TIP3    H149319   6.796   6.712   4.802 -0.9680  0.1583  1.1771
 9276TIP3    H249320   6.766   6.857   4.775  0.5330 -0.0876 -2.3067
 9277TIP3   OH249321   3.700   4.461  15.703  0.1619 -0.8344 -0.1124
 9277TIP3    H149322   3.752   4.461  15.622 -0.0923 -3.3026 -0.3588
 9277TIP3    H249323   3.741   4.394  15.757  0.3993  0.8539  1.9324
 9278TIP3   OH249324   0.702   1.426   3.517 -0.1628 -0.4366  0.0633
 9278TIP3    H149325   0.670   1.491   3.455  3.0384  1.5647  0.2631
 9278TIP3    H249326   0.634   1.422   3.585 -1.3734  1.2205 -0.9658
 9279TIP3   OH249327   3.660   0.733  14.066 -0.6919 -0.3636  0.5417
 9279TIP3    H149328   3.598   0.673  14.027 -0.0474 -0.6312 -0.0978
 9279TIP3    H249329   3.705   0.774  13.992 -0.9330  0.7162  0.9681
 9280TIP3   OH249330   3.068   3.982  12.081 -0.4064  0.0856 -0.1901
 9280TIP3    H149331   3.116   3.911  12.125  0.9422  0.8904 -0.2993
 9280TIP3    H249332   2.977   3.953  12.080  0.1733 -1.8288 -0.6137
 9281TIP3   OH249333   6.812   1.168   5.748 -0.2908  0.1861 -0.2930
 9281TIP3    H149334   6.868   1.193   5.822  2.5057 -0.8511 -1.8930
 9281TIP3    H249335   6.784   1.079   5.768 -1.7471  0.8290  0.6742
 9282TIP3   OH249336   5.513   3.250   6.300  0.3303 -0.6765  0.6633
 9282TIP3    H149337   5.436   3.266   6.247 -0.1629  0.5559  1.6783
 9282TIP3    H249338   5.580   3.223   6.238 -0.8980 -1.7598 -0.2423
 9283TIP3   OH249339   6.131   2.013  14.114  0.3451 -0.0209 -0.3996
 9283TIP3    H149340   6.149   1.955  14.040  0.1308 -0.7158  0.0839
 9283TIP3    H249341   6.036   2.027  14.112  0.4427  0.6620 -0.7575
 9284TIP3   OH249342   1.288   5.370   0.914 -0.4353  0.0586 -0.1559
 9284TIP3    H149343   1.242   5.450   0.941 -2.0553 -0.1602 -2.0334
 9284TIP3    H249344   1.311   5.386   0.822  3.0891  0.0179  0.5729
 9285TIP3   OH249345   6.073   3.209  13.043  0.1764 -0.2215 -0.0108
 9285TIP3    H149346   6.093   3.300  13.022 -0.0319 -0.2264 -0.2358
 9285TIP3    H249347   6.012   3.181  12.974 -0.7913 -0.1302  0.7820
 9286TIP3   OH249348   0.338   5.609  16.439  0.0935 -0.1900  0.2271
 9286TIP3    H149349   0.432   5.622  16.426  0.1365 -0.7077 -0.0058
 9286TIP3    H249350   0.330   5.590  16.532  0.4160 -1.6821 -0.0203
 9287TIP3   OH249351   6.284   1.198   0.863  0.1525  0.0410 -0.3566
 9287TIP3    H149352   6.244   1.206   0.950  1.0131  1.6567 -0.0661
 9287TIP3    H249353   6.210   1.190   0.803 -0.5498  1.1338  0.3276
 9288TIP3   OH249354   3.901   3.030  14.501  0.2930  0.5595  0.4623
 9288TIP3    H149355   3.981   3.080  14.487  2.0454 -1.5108  2.2710
 9288TIP3    H249356   3.870   3.010  14.413  2.0502  1.0036 -0.3137
 9289TIP3   OH249357   6.412   0.911  16.762 -0.4132  0.2794  0.1806
 9289TIP3    H149358   6.396   0.935  16.853  0.8195 -1.7449  0.9904
 9289TIP3    H249359   6.501   0.944  16.744 -1.2422  2.1053 -0.8706
 9290TIP3   OH249360   6.203   0.477  15.459 -0.0346 -0.0128  0.4780
 9290TIP3    H149361   6.250   0.393  15.453 -0.3833 -0.1005 -2.4563
 9290TIP3    H249362   6.242   0.531  15.391 -1.5424  1.2975  0.6064
 9291TIP3   OH249363   3.216   6.152  11.484 -0.6594 -0.0056 -0.0945
 9291TIP3    H149364   3.293   6.208  11.498 -0.8110  0.0168  0.6596
 9291TIP3    H249365   3.253   6.068  11.455 -0.3030 -0.2353  1.0078
 9292TIP3   OH249366   6.055   6.164  17.029  0.1399 -0.8155 -0.1172
 9292TIP3    H149367   6.014   6.136  16.947 -0.5728  0.7925 -0.3461
 9292TIP3    H249368   5.985   6.207  17.078  1.0807  0.2530  0.3329
 9293TIP3   OH249369   6.222   0.470   4.651 -0.1202 -0.0284  0.1215
 9293TIP3    H149370   6.146   0.461   4.594 -0.8456  2.1435  0.6434
 9293TIP3    H249371   6.284   0.523   4.600 -0.6646  1.6935  1.1624
 9294TIP3   OH249372   3.822   4.072  10.361  0.4673  0.1929 -0.0532
 9294TIP3    H149373   3.908   4.032  10.349  0.6795  0.7422 -0.4246
 9294TIP3    H249374   3.760   4.007  10.328  0.7000 -0.3895  0.6289
 9295TIP3   OH249375   3.907   6.766  15.564 -0.6060  0.5707 -0.3650
 9295TIP3    H149376   3.943   6.704  15.627 -0.6959  0.8188 -0.0700
 9295TIP3    H249377   3.888   6.713  15.487 -1.1497  0.1405  0.0590
 9296TIP3   OH249378   6.430   2.726  10.715  0.1788  0.0759 -0.3409
 9296TIP3    H149379   6.339   2.755  10.712 -0.2658 -1.2174  0.3797
 9296TIP3    H249380   6.426   2.632  10.730  1.6342 -0.0916 -0.8026
 9297TIP3   OH249381   0.546   5.486  11.431  0.8880 -0.0858 -0.1302
 9297TIP3    H149382   0.558   5.417  11.365 -2.1532  0.6986 -1.6867
 9297TIP3    H249383   0.541   5.567  11.380 -0.9997  0.6084  1.0802
 9298TIP3   OH249384   4.880   5.084   0.938 -0.9327  0.4097  0.4589
 9298TIP3    H149385   4.828   5.161   0.915  1.4209  1.0641 -3.6056
 9298TIP3    H249386   4.880   5.030   0.859  0.4019 -2.0550  2.0044
 9299TIP3   OH249387   6.397   1.803  12.247 -0.1306 -0.0180 -0.4251
 9299TIP3    H149388   6.486   1.837  12.258 -0.0202 -0.4913  0.1708
 9299TIP3    H249389   6.346   1.880  12.222  0.3731  0.3321 -0.3989
 9300TIP3   OH249390   5.507   5.125  16.625  0.2434  0.3262  0.1084
 9300TIP3    H149391   5.530   5.129  16.717  0.1410  3.4423  0.1185
 9300TIP3    H249392   5.590   5.136  16.578  0.1625 -0.0848 -0.1336
 9301TIP3   OH249393   2.287   0.269   5.582  0.2578  0.2807 -0.6168
 9301TIP3    H149394   2.368   0.232   5.617  1.8795  2.6393 -1.6274
 9301TIP3    H249395   2.235   0.291   5.659  0.5231 -1.2441  0.0451
 9302TIP3   OH249396   4.763   1.401  10.846  0.1000  0.0161 -0.1508
 9302TIP3    H149397   4.804   1.486  10.831 -0.3552  0.2076 -0.3346
 9302TIP3    H249398   4.752   1.364  10.758 -0.6104  0.2057 -0.1492
 9303TIP3   OH249399   4.914   2.334  14.666  0.0739  0.3040  0.8239
 9303TIP3    H149400   4.916   2.314  14.573  1.5780 -2.7862  1.3709
 9303TIP3    H249401   4.840   2.283  14.700 -0.3698  1.2796  1.3408
 9304TIP3   OH249402   4.459   3.876  16.010  0.1395 -0.4230  0.0355
 9304TIP3    H149403   4.431   3.786  15.995  0.9354 -0.4059 -1.8505
 9304TIP3    H249404   4.466   3.914  15.922  0.3942  1.2983  0.7594
 9305TIP3   OH249405   4.353   3.178   1.786  0.0750 -0.2122 -0.2743
 9305TIP3    H149406   4.276   3.207   1.737  0.3078 -0.2278 -0.6514
 9305TIP3    H249407   4.319   3.156   1.873 -0.1630  0.8691 -0.0813
 9306TIP3   OH249408   1.051   2.652  12.616 -0.1505  0.2079  0.3328
 9306TIP3    H149409   1.123   2.597  12.587 -1.4267 -0.7749 -1.0662
 9306TIP3    H249410   1.080   2.742  12.597  0.0729 -0.2601 -1.7821
 9307TIP3   OH249411   4.588   0.212   5.702  0.9550 -0.7153 -0.0229
 9307TIP3    H149412   4.596   0.128   5.657  0.8069 -0.4806 -0.4940
 9307TIP3    H249413   4.499   0.212   5.736  1.1124 -0.9528  0.4042
 9308TIP3   OH249414   1.438   3.478  16.988  0.0900 -0.0143  0.1958
 9308TIP3    H149415   1.359   3.483  16.934 -0.8668  1.3776  1.6485
 9308TIP3    H249416   1.433   3.392  17.030  0.6924 -0.9937 -1.6319
 9309TIP3   OH249417   2.734   0.665   2.186 -0.9406  0.2378 -0.2778
 9309TIP3    H149418   2.779   0.588   2.152  0.3391  1.0232 -0.4124
 9309TIP3    H249419   2.700   0.709   2.108  0.7571  1.2738 -0.4828
 9310TIP3   OH249420   4.724   2.792  17.167 -0.3233  0.3552  0.4649
 9310TIP3    H149421   4.683   2.783  17.081  0.9656  0.5492 -0.1929
 9310TIP3    H249422   4.670   2.738  17.225  0.4456 -2.2001 -1.0240
 9311TIP3   OH249423   4.092   3.985   6.208 -0.4888 -0.6017 -0.6337
 9311TIP3    H149424   4.101   3.965   6.115 -1.6454  1.6758 -1.3101
 9311TIP3    H249425   4.111   3.902   6.252  0.7439 -1.5815 -2.8400
 9312TIP3   OH249426   6.341   2.333  11.168 -0.5854 -0.0811 -0.8531
 9312TIP3    H149427   6.296   2.416  11.151 -0.7109 -0.1326 -0.7695
 9312TIP3    H249428   6.430   2.346  11.134 -0.1684  0.5753  0.4261
 9313TIP3   OH249429   2.963   5.510   0.049  1.0286 -0.4406  0.2350
 9313TIP3    H149430   2.972   5.416   0.069  1.3224 -0.7643 -1.2883
 9313TIP3    H249431   2.931   5.548   0.131 -1.3480 -2.2275  0.2495
 9314TIP3   OH249432   3.510   5.576   4.474 -0.0368 -0.2928  0.1976
 9314TIP3    H149433   3.435   5.525   4.506 -0.1469 -0.8815 -0.9751
 9314TIP3    H249434   3.585   5.539   4.519  0.1485 -2.7661 -1.9281
 9315TIP3   OH249435   6.046   1.950  13.149 -0.4401  0.2088 -0.2335
 9315TIP3    H149436   5.952   1.960  13.135 -0.1048  0.4083 -2.9512
 9315TIP3    H249437   6.057   1.857  13.171 -1.2963  0.2628  0.4611
 9316TIP3   OH249438   5.507   3.962   2.738  0.1309  0.2176  0.0135
 9316TIP3    H149439   5.512   3.917   2.653 -0.5373 -0.0914  0.1283
 9316TIP3    H249440   5.548   3.901   2.800  2.1562  1.1550 -0.3352
 9317TIP3   OH249441   5.063   1.499  16.652 -0.4013  0.3360 -0.2551
 9317TIP3    H149442   5.131   1.500  16.585 -0.1960  0.1105 -0.0547
 9317TIP3    H249443   5.013   1.420  16.634  0.6215 -0.5977  0.7960
 9318TIP3   OH249444   3.533   5.543   0.647 -0.1397  0.0248 -0.0580
 9318TIP3    H149445   3.607   5.580   0.599 -0.9834  1.0304 -0.6063
 9318TIP3    H249446   3.573   5.499   0.722  1.0220  0.3942 -0.4426
 9319TIP3   OH249447   5.233   5.102  14.143 -0.6663 -0.0956 -0.8359
 9319TIP3    H149448   5.197   5.015  14.159  0.2990 -0.4476 -0.5117
 9319TIP3    H249449   5.243   5.140  14.230  0.9361 -0.5128 -0.8033
 9320TIP3   OH249450   2.884   4.624  15.544 -0.4026 -0.8387  0.2287
 9320TIP3    H149451   2.831   4.604  15.621  1.8532 -0.8416  1.8815
 9320TIP3    H249452   2.901   4.717  15.549  0.4475 -0.9869  0.1914
 9321TIP3   OH249453   4.212   1.571  11.370  0.8458 -0.5783  0.1247
 9321TIP3    H149454   4.270   1.544  11.299 -0.0883 -1.4566 -0.3282
 9321TIP3    H249455   4.172   1.490  11.401 -0.4517  0.0342  0.1367
 9322TIP3   OH249456   0.534   4.488  10.832 -0.3092 -0.4425  0.0645
 9322TIP3    H149457   0.558   4.556  10.770 -0.3792 -0.6774 -0.2215
 9322TIP3    H249458   0.610   4.430  10.836 -0.2010 -0.2842  0.4019
 9323TIP3   OH249459   0.795   3.432   2.262  0.4466 -0.6879  0.5615
 9323TIP3    H149460   0.700   3.437   2.276  0.2074 -1.7436 -0.5471
 9323TIP3    H249461   0.828   3.387   2.340  0.3561  1.5373  1.9814
 9324TIP3   OH249462   3.377   3.454  12.116  0.2891  0.4676  0.3974
 9324TIP3    H149463   3.310   3.389  12.093 -1.0390  1.3692  1.5381
 9324TIP3    H249464   3.458   3.417  12.082 -0.9015 -0.1482 -2.0652
 9325TIP3   OH249465   6.280   4.185  16.991  0.4098  0.3572  0.5495
 9325TIP3    H149466   6.375   4.192  16.983  0.3775  0.0083 -0.2632
 9325TIP3    H249467   6.246   4.246  16.925  0.0735  0.3409  0.7090
 9326TIP3   OH249468   2.126   4.103   2.439 -0.3475 -0.2817 -0.0639
 9326TIP3    H149469   2.055   4.039   2.439  1.1771 -2.0663  0.7785
 9326TIP3    H249470   2.163   4.098   2.351  1.1801 -2.2972  0.6281
 9327TIP3   OH249471   6.095   3.660   3.386 -0.5087  1.0225 -0.6188
 9327TIP3    H149472   6.013   3.670   3.435 -0.8771 -0.3364 -0.9353
 9327TIP3    H249473   6.146   3.597   3.437 -0.7872 -0.2042 -1.8227
 9328TIP3   OH249474   4.922   6.033  15.688 -0.1316 -0.1087  0.8356
 9328TIP3    H149475   4.947   6.041  15.596 -1.4193 -0.5471  0.4271
 9328TIP3    H249476   4.996   5.990  15.730 -0.0608 -1.0779 -0.2568
 9329TIP3   OH249477   6.296   0.140   3.685 -0.1222 -0.0483  0.4059
 9329TIP3    H149478   6.213   0.133   3.733  0.0881 -0.5673  0.6974
 9329TIP3    H249479   6.350   0.070   3.720 -0.2294 -0.9338 -1.1043
 9330TIP3   OH249480   2.560   6.063   0.861  0.2856  0.4193 -0.1720
 9330TIP3    H149481   2.651   6.039   0.848  0.6173  1.4429  0.1926
 9330TIP3    H249482   2.544   6.049   0.954  0.3658  1.1859 -0.0359
 9331TIP3   OH249483   4.895   2.433   1.443 -0.0073  0.3888  0.3493
 9331TIP3    H149484   4.934   2.403   1.526 -0.4276  0.2589  0.4993
 9331TIP3    H249485   4.806   2.458   1.466  0.3204  1.7479  0.2320
 9332TIP3   OH249486   0.641   4.105   2.351 -0.5265  0.1214  0.0496
 9332TIP3    H149487   0.734   4.095   2.372  0.1420 -1.5540 -3.0294
 9332TIP3    H249488   0.597   4.041   2.406  0.2568  0.3108  0.9090
 9333TIP3   OH249489   3.660   5.908   4.459 -0.4116 -0.2373  0.0816
 9333TIP3    H149490   3.711   5.981   4.495 -2.4598  1.3656 -0.0716
 9333TIP3    H249491   3.648   5.849   4.532  1.0731 -0.3309  0.2802
 9334TIP3   OH249492   6.475   0.839  12.906  0.2219  0.0543 -0.1565
 9334TIP3    H149493   6.545   0.886  12.952 -0.6194 -0.3461  1.6024
 9334TIP3    H249494   6.521   0.788  12.838  1.5186  0.5605  0.3162
 9335TIP3   OH249495   4.485   4.719  10.833  0.1138 -0.3187  0.0856
 9335TIP3    H149496   4.415   4.708  10.898  2.4723  0.3843  2.9821
 9335TIP3    H249497   4.523   4.631  10.825 -0.2866 -0.4406 -0.5133
 9336TIP3   OH249498   6.028   1.535  13.884 -0.1544  0.5490  0.4066
 9336TIP3    H149499   6.116   1.516  13.917  0.4572  0.6038 -1.0924
 9336TIP3    H249500   5.994   1.450  13.857 -1.8333  0.0259  3.7477
 9337TIP3   OH249501   6.700   4.427   3.781  0.4367  0.0868  0.4829
 9337TIP3    H149502   6.719   4.485   3.707  0.4898 -2.4090 -1.6326
 9337TIP3    H249503   6.691   4.341   3.741 -0.7344 -1.2186  3.2982
 9338TIP3   OH249504   4.166   4.724  14.356  0.0945  0.4190  0.1423
 9338TIP3    H149505   4.096   4.787  14.339 -1.3942 -1.1012  0.3801
 9338TIP3    H249506   4.125   4.639  14.342  2.3335 -0.5074 -1.2641
 9339TIP3   OH249507   2.045   0.855   5.042 -0.1558  0.2886 -0.0131
 9339TIP3    H149508   2.082   0.860   5.130 -1.2914  2.7430  0.4066
 9339TIP3    H249509   2.120   0.833   4.986  0.6720 -0.8197  1.4813
 9340TIP3   OH249510   2.505   1.832   5.963  0.4435 -0.2029  0.1860
 9340TIP3    H149511   2.569   1.840   5.892  0.2529 -1.4055 -0.1593
 9340TIP3    H249512   2.421   1.853   5.922  0.6666  2.2527  0.8490
 9341TIP3   OH249513   0.561   4.849   4.536 -0.4566  0.4276  0.2510
 9341TIP3    H149514   0.547   4.850   4.441 -1.4910 -0.1471  0.3757
 9341TIP3    H249515   0.544   4.940   4.563 -0.0502  0.6196 -0.1205
 9342TIP3   OH249516   4.696   2.922  15.695  0.0824  0.4465  0.2289
 9342TIP3    H149517   4.676   2.845  15.747  0.2858  0.0376 -0.2889
 9342TIP3    H249518   4.700   2.994  15.758  0.8203 -0.1191  0.8431
 9343TIP3   OH249519   3.208   6.427   1.957 -0.2272 -0.2244  0.3575
 9343TIP3    H149520   3.248   6.458   1.876  0.3626  1.2626  1.1919
 9343TIP3    H249521   3.159   6.348   1.931  1.1539 -0.6249 -1.1518
 9344TIP3   OH249522   0.005   0.254   2.271  1.0586  0.5828  0.1135
 9344TIP3    H149523   0.027   0.185   2.208 -3.7914 -0.4750 -0.8602
 9344TIP3    H249524  -0.009   0.207   2.354 -0.0425  0.6802  0.0024
 9345TIP3   OH249525   1.137   6.653   0.998  0.4305 -0.1798  0.6358
 9345TIP3    H149526   1.194   6.597   0.946 -0.1188 -0.2208  0.0665
 9345TIP3    H249527   1.175   6.740   0.989  0.2212 -0.1515 -0.0082
 9346TIP3   OH249528   3.793   5.751   0.768 -0.2151  0.1051 -0.0688
 9346TIP3    H149529   3.834   5.664   0.776  4.0054  1.8142 -0.4259
 9346TIP3    H249530   3.735   5.757   0.844  0.7930 -2.3525  1.0109
 9347TIP3   OH249531   5.066   0.840   5.327  0.3259 -0.3488  0.3168
 9347TIP3    H149532   5.024   0.925   5.312 -1.8565 -1.2383  1.1187
 9347TIP3    H249533   5.123   0.855   5.403  1.0026  0.7041 -0.3703
 9348TIP3   OH249534   6.764   3.059   1.682 -0.7318  0.2988 -0.2223
 9348TIP3    H149535   6.675   3.038   1.711 -0.8358 -2.9909 -2.3657
 9348TIP3    H249536   6.751   3.114   1.605 -0.9115  0.2738 -0.2116
 9349TIP3   OH249537   5.774   5.953  12.054 -0.2746 -0.2526  0.0410
 9349TIP3    H149538   5.815   5.884  12.106  0.8123 -0.3643 -0.9250
 9349TIP3    H249539   5.734   5.906  11.981  0.8991  0.1620 -0.8883
 9350TIP3   OH249540   6.091   6.175  16.600 -0.9501  0.4993  0.1250
 9350TIP3    H149541   6.036   6.201  16.526 -1.7603  0.5556  0.7273
 9350TIP3    H249542   6.034   6.122  16.654 -0.6011  1.0757  1.0884
 9351TIP3   OH249543   5.617   5.422  12.575  0.7031  0.1627 -0.5272
 9351TIP3    H149544   5.584   5.508  12.548 -1.4101 -0.3412  0.2040
 9351TIP3    H249545   5.559   5.360  12.531  1.8035 -0.8898 -0.5409
 9352TIP3   OH249546   5.211   1.502  14.842 -0.2543  0.0919  0.3382
 9352TIP3    H149547   5.118   1.480  14.843 -0.3249  0.3658 -0.0232
 9352TIP3    H249548   5.214   1.591  14.877 -0.0909 -0.0354  0.6588
 9353TIP3   OH249549   2.733   1.648   1.746  0.0279  0.5059  0.1300
 9353TIP3    H149550   2.736   1.740   1.721 -0.9634  1.2598  2.4655
 9353TIP3    H249551   2.754   1.600   1.666  1.3218  2.7600 -0.9727
 9354TIP3   OH249552   6.119   0.296  13.186 -0.5398  0.0295  0.2110
 9354TIP3    H149553   6.136   0.285  13.092  1.2975  2.1536  0.1929
 9354TIP3    H249554   6.106   0.207  13.219 -1.7578 -0.7334 -2.1126
 9355TIP3   OH249555   6.224   3.788   2.193 -0.4011  0.5233 -0.0901
 9355TIP3    H149556   6.269   3.872   2.196 -0.9143  0.7785  2.0841
 9355TIP3    H249557   6.287   3.726   2.231 -1.2474  0.6124  1.5640
 9356TIP3   OH249558   0.266   1.083  14.715 -0.5657  0.1474 -0.5532
 9356TIP3    H149559   0.188   1.127  14.681 -0.8414 -0.5520 -0.8492
 9356TIP3    H249560   0.232   1.019  14.777 -0.2125 -0.0467 -0.5576
 9357TIP3   OH249561   3.551   2.394   5.785  0.0542 -0.4195  0.2746
 9357TIP3    H149562   3.583   2.324   5.728  0.9157 -0.1099  0.3516
 9357TIP3    H249563   3.625   2.455   5.790 -0.2270 -0.1472  1.2360
 9358TIP3   OH249564   1.570   5.771   3.378  0.3055  0.4800  0.2009
 9358TIP3    H149565   1.562   5.754   3.471 -0.2071  1.6095  0.3855
 9358TIP3    H249566   1.533   5.859   3.366 -0.3897  0.0431 -1.1834
 9359TIP3   OH249567   5.039   0.581  13.169 -0.4704 -0.2261 -0.5609
 9359TIP3    H149568   5.116   0.525  13.179 -1.2190 -1.5612 -1.7440
 9359TIP3    H249569   4.980   0.553  13.239 -0.0551  0.5246  0.1035
 9360TIP3   OH249570   1.380   6.736  16.960  0.1008  0.1699  0.1696
 9360TIP3    H149571   1.369   6.650  16.920 -2.2760  0.5276 -0.1186
 9360TIP3    H249572   1.333   6.730  17.043  0.0747  1.1098  0.2340
 9361TIP3   OH249573   4.498   6.584  11.918  0.0124  0.0010  0.3600
 9361TIP3    H149574   4.556   6.528  11.867  0.5913  0.3267  0.6558
 9361TIP3    H249575   4.536   6.672  11.911  0.4942 -0.0543  1.8948
 9362TIP3   OH249576   4.822   0.825   2.112  0.1084  0.5126 -0.6419
 9362TIP3    H149577   4.727   0.838   2.106  0.0643 -0.2181 -1.8641
 9362TIP3    H249578   4.852   0.894   2.172 -1.1836  0.7588 -0.2460
 9363TIP3   OH249579   5.445   1.425  11.681 -0.3265  0.1655  0.1778
 9363TIP3    H149580   5.501   1.371  11.625  0.8187  0.4078  1.0573
 9363TIP3    H249581   5.409   1.492  11.623 -1.3895 -1.2238 -0.8314
 9364TIP3   OH249582   1.483   0.903   2.309 -0.0447 -1.0936  0.3592
 9364TIP3    H149583   1.399   0.859   2.300  0.9337 -3.1001  0.2042
 9364TIP3    H249584   1.472   0.961   2.385 -2.5229  1.3196 -1.6645
 9365TIP3   OH249585   1.535   2.422  15.621 -0.7318  0.1810 -0.6515
 9365TIP3    H149586   1.447   2.410  15.658  0.1970 -0.7121  1.4308
 9365TIP3    H249587   1.573   2.334  15.621  0.4412  0.6724 -0.7756
 9366TIP3   OH249588   0.269   5.457  15.759  0.5252 -0.5687  0.4552
 9366TIP3    H149589   0.198   5.501  15.806  0.2945 -1.8439  1.3358
 9366TIP3    H249590   0.332   5.433  15.828  2.1475  1.0763 -0.3588
 9367TIP3   OH249591   1.512   6.735   0.705 -0.0829 -0.3736  0.0561
 9367TIP3    H149592   1.596   6.727   0.659 -0.0592 -2.1842  0.3166
 9367TIP3    H249593   1.486   6.644   0.722 -1.8900  0.1610  0.3655
 9368TIP3   OH249594   2.129   4.652  14.315  0.0526  0.2201  0.4239
 9368TIP3    H149595   2.092   4.702  14.242  0.6611  1.1092  0.6992
 9368TIP3    H249596   2.201   4.707  14.346 -0.3640 -0.0192  1.8574
 9369TIP3   OH249597   2.477   2.174  12.707  0.0295 -0.0512  0.0530
 9369TIP3    H149598   2.517   2.087  12.706 -2.5072 -1.3078 -0.1692
 9369TIP3    H249599   2.534   2.227  12.651  0.6207 -2.0673 -1.3779
 9370TIP3   OH249600   0.437   3.141  11.917  0.1715  0.2887 -0.1463
 9370TIP3    H149601   0.489   3.200  11.971  1.3317  0.3606 -1.2939
 9370TIP3    H249602   0.498   3.073  11.889  0.1194  1.1800 -2.7595
 9371TIP3   OH249603   6.494   1.253  10.876 -0.0922  0.3414  0.1116
 9371TIP3    H149604   6.497   1.169  10.829 -0.3831  0.2842  0.1980
 9371TIP3    H249605   6.413   1.294  10.848  0.7856  1.3021 -1.1404
 9372TIP3   OH249606   4.801   5.120   2.241  0.8018 -0.5113 -0.3649
 9372TIP3    H149607   4.834   5.151   2.326 -0.0911  0.2829 -0.2971
 9372TIP3    H249608   4.724   5.067   2.264  1.3366 -1.4184 -0.6006
 9373TIP3   OH249609   2.521   5.068   0.684  0.1358  0.1943 -0.0773
 9373TIP3    H149610   2.594   5.117   0.722  0.5068 -0.0938 -0.4114
 9373TIP3    H249611   2.490   5.123   0.612 -1.0024  1.0599  1.0344
 9374TIP3   OH249612   2.972   2.893   2.750 -0.5405  0.0207 -0.1819
 9374TIP3    H149613   2.909   2.945   2.700  1.0900  1.8499 -0.4385
 9374TIP3    H249614   3.022   2.846   2.684  0.6176  1.2779 -0.2483
 9375TIP3   OH249615   1.979   3.007  15.906  0.4172  0.1061 -0.2029
 9375TIP3    H149616   2.003   3.086  15.954 -1.5337 -1.0217  2.8773
 9375TIP3    H249617   2.053   2.947  15.920  0.5903  0.3601 -0.0251
 9376TIP3   OH249618   6.589   0.154  12.285  0.1109  0.1387  0.3337
 9376TIP3    H149619   6.494   0.167  12.285  0.1002  0.2499  1.5558
 9376TIP3    H249620   6.626   0.236  12.251 -0.2013  0.5397  0.9436
 9377TIP3   OH249621   4.986   2.568   4.426  0.3353 -0.0370 -0.3170
 9377TIP3    H149622   4.981   2.475   4.402  3.8904 -0.1163 -1.3009
 9377TIP3    H249623   5.009   2.567   4.519 -1.4254 -0.0003  0.1693
 9378TIP3   OH249624   1.576   2.633   1.049 -0.2629 -0.0430 -0.0767
 9378TIP3    H149625   1.631   2.692   1.100 -0.0397  0.9243 -1.3818
 9378TIP3    H249626   1.492   2.632   1.096  0.1555  0.2609  0.6883
 9379TIP3   OH249627   6.454   6.796   3.295  0.2040 -0.0978  0.5556
 9379TIP3    H149628   6.463   6.764   3.205  0.3099  0.9717  0.1813
 9379TIP3    H249629   6.406   6.726   3.339 -1.8431  0.2846 -0.8865
 9380TIP3   OH249630   5.122   3.800   4.746  0.1800 -0.0934 -0.1226
 9380TIP3    H149631   5.129   3.840   4.832  0.4023  1.3014 -0.7566
 9380TIP3    H249632   5.045   3.744   4.751  0.9735 -1.1327  1.3870
 9381TIP3   OH249633   0.783   5.101  15.219 -0.0734 -0.0052 -1.1520
 9381TIP3    H149634   0.874   5.134  15.221  0.2270 -0.8132  0.5467
 9381TIP3    H249635   0.743   5.147  15.146  0.2940  4.2553  1.0292
 9382TIP3   OH249636   1.253   4.457   0.441 -0.4869 -0.3123 -0.6987
 9382TIP3    H149637   1.299   4.390   0.390 -2.8540 -1.9440 -0.8847
 9382TIP3    H249638   1.174   4.474   0.390 -1.7768 -0.2285  1.2459
 9383TIP3   OH249639   0.343   5.447   4.710 -0.8787 -0.4573  0.6768
 9383TIP3    H149640   0.334   5.424   4.803 -0.0740 -1.0393  0.6282
 9383TIP3    H249641   0.388   5.372   4.672  0.4193  0.5240  0.1829
 9384TIP3   OH249642   4.357   3.758  13.690 -0.1621 -0.0121 -0.5115
 9384TIP3    H149643   4.418   3.820  13.731  0.3396 -1.2810  0.7127
 9384TIP3    H249644   4.384   3.756  13.598  0.4276  0.8476 -0.3742
 9385TIP3   OH249645   3.243   5.120  16.979  0.3762  0.0711 -0.5312
 9385TIP3    H149646   3.213   5.202  17.018 -3.4325 -1.1044 -0.5812
 9385TIP3    H249647   3.222   5.129  16.886  1.3490 -0.4168 -0.8082
 9386TIP3   OH249648   5.376   5.392  13.619 -0.2233 -0.5440 -0.0750
 9386TIP3    H149649   5.396   5.415  13.528  1.2617 -1.9532 -0.1522
 9386TIP3    H249650   5.336   5.305  13.613 -0.1256 -0.6384  0.6042
 9387TIP3   OH249651   3.065   3.334  13.815 -0.2270  0.2019  0.1454
 9387TIP3    H149652   3.045   3.347  13.907 -0.7736 -0.4062  0.1178
 9387TIP3    H249653   3.059   3.422  13.776 -0.5605  0.3715  0.5755
 9388TIP3   OH249654   1.478   1.779  14.500 -0.5097  0.0599  0.3999
 9388TIP3    H149655   1.395   1.730  14.496 -0.7595  0.4596  0.6579
 9388TIP3    H249656   1.452   1.871  14.503 -0.0234  0.4477 -2.9304
 9389TIP3   OH249657   4.497   4.507   6.017  0.4286  0.0289 -0.4613
 9389TIP3    H149658   4.459   4.427   6.051 -0.9741  0.4432 -0.9879
 9389TIP3    H249659   4.447   4.578   6.057  1.2832  0.6370 -0.4234
 9390TIP3   OH249660   3.512   2.059  14.514 -0.3297  0.0231  0.5202
 9390TIP3    H149661   3.460   2.102  14.446 -0.3167 -0.1636  0.3917
 9390TIP3    H249662   3.496   1.966  14.501 -1.7578  0.0414  1.9177
 9391TIP3   OH249663   0.871   2.812  11.277  0.2911  0.1208  0.5571
 9391TIP3    H149664   0.822   2.759  11.340 -3.3976  3.9761  1.4090
 9391TIP3    H249665   0.925   2.870  11.331  0.4892  0.5225 -0.0682
 9392TIP3   OH249666   1.523   2.519   3.328 -0.4662  0.5585  0.0338
 9392TIP3    H149667   1.565   2.483   3.250  0.1329 -0.0903  0.6446
 9392TIP3    H249668   1.494   2.606   3.302  0.7880  0.8107 -0.5546
 9393TIP3   OH249669   0.735   3.274   6.830  0.4191  0.0022  0.5640
 9393TIP3    H149670   0.760   3.186   6.858  0.3572 -0.5042 -0.8691
 9393TIP3    H249671   0.639   3.272   6.830  0.4205 -0.1277 -0.0379
 9394TIP3   OH249672   5.367   1.225  14.629  1.0425  0.6970 -0.5505
 9394TIP3    H149673   5.348   1.306  14.581 -0.1884 -0.5851 -2.3420
 9394TIP3    H249674   5.282   1.188  14.650  1.5846 -0.2638  0.0571
 9395TIP3   OH249675   5.841   4.085  16.348 -0.1617 -0.0799 -0.1621
 9395TIP3    H149676   5.808   3.995  16.357 -2.5395  0.7016 -0.4648
 9395TIP3    H249677   5.795   4.120  16.273 -0.3489  1.8494  0.7983
 9396TIP3   OH249678   1.036   4.204   2.795 -0.3007  0.3027  0.0999
 9396TIP3    H149679   1.071   4.276   2.847  1.3402 -1.0186  0.9712
 9396TIP3    H249680   1.058   4.126   2.846 -0.8140 -0.8981 -1.4362
 9397TIP3   OH249681   2.161   4.544   6.027 -0.2243  0.5278  0.1354
 9397TIP3    H149682   2.215   4.611   5.986  0.1494  0.8054  1.0449
 9397TIP3    H249683   2.215   4.465   6.024 -0.7143  0.2256 -1.0473
 9398TIP3   OH249684   1.022   6.637   0.279  0.5543  0.0253  0.0283
 9398TIP3    H149685   1.047   6.586   0.356  0.5039 -1.4792 -0.9203
 9398TIP3    H249686   1.063   6.592   0.206  1.1849  1.8299 -0.7931
 9399TIP3   OH249687   6.073   6.082  16.337 -0.2370 -0.1249  0.2245
 9399TIP3    H149688   6.037   6.158  16.290  1.0384  0.4520  0.1400
 9399TIP3    H249689   6.138   6.120  16.396 -0.6944 -1.0093  1.3202
 9400TIP3   OH249690   3.651   3.475   0.477 -0.7699 -0.2035 -0.1262
 9400TIP3    H149691   3.589   3.404   0.460 -1.0051 -0.1402  0.4312
 9400TIP3    H249692   3.724   3.458   0.418  1.0836 -3.2999  2.6643
 9401TIP3   OH249693   2.803   2.351  14.103 -0.2971 -0.1655 -0.3700
 9401TIP3    H149694   2.888   2.387  14.078 -0.3210  0.1709  0.0214
 9401TIP3    H249695   2.796   2.269  14.054  0.2915 -0.2421 -0.3293
 9402TIP3   OH249696   5.487   5.174  13.822 -0.3447 -0.3250  0.1885
 9402TIP3    H149697   5.479   5.258  13.776 -1.2845  0.5732  1.9175
 9402TIP3    H249698   5.400   5.136  13.820 -0.1020 -0.8993  0.1325
 9403TIP3   OH249699   3.447   2.367   5.363 -0.5833  0.3247  0.0776
 9403TIP3    H149700   3.463   2.283   5.320  1.5421 -0.0717  1.4938
 9403TIP3    H249701   3.351   2.373   5.368 -0.8053 -1.6721 -0.6865
 9404TIP3   OH249702   5.102   2.555  12.604  0.1323  0.5370 -0.0754
 9404TIP3    H149703   5.081   2.618  12.672  0.4846  0.1286  0.4227
 9404TIP3    H249704   5.128   2.476  12.652  1.0012  0.4463 -0.6688
 9405TIP3   OH249705   2.203   6.702   1.925  0.1196 -0.1047  0.6082
 9405TIP3    H149706   2.271   6.709   1.858  0.5664  0.8819  1.1504
 9405TIP3    H249707   2.250   6.706   2.008 -0.6960  2.6560  1.0403
 9406TIP3   OH249708   4.692   4.316   3.811 -0.0426  0.5249  0.7968
 9406TIP3    H149709   4.704   4.230   3.771  2.0110  1.0179  0.2001
 9406TIP3    H249710   4.690   4.298   3.905 -1.2473 -0.3030  0.6348
 9407TIP3   OH249711   3.855   2.486   1.327  0.6018 -0.2222  0.0163
 9407TIP3    H149712   3.790   2.477   1.258 -1.2486 -2.6413  1.9054
 9407TIP3    H249713   3.937   2.457   1.286  0.0162  0.3854 -1.6824
 9408TIP3   OH249714   3.738   4.623  11.949 -0.1357  0.3469  0.2962
 9408TIP3    H149715   3.692   4.550  11.992 -0.9034  0.9670  0.5510
 9408TIP3    H249716   3.673   4.693  11.946  0.6543  1.0843  0.2256
 9409TIP3   OH249717   5.447   2.068  16.215  0.4223 -0.5779  0.3183
 9409TIP3    H149718   5.473   2.000  16.152  4.6623  1.1585 -0.1415
 9409TIP3    H249719   5.486   2.041  16.297  1.5168  0.8656  0.3068
 9410TIP3   OH249720   6.449   3.948   6.382 -0.0789 -0.6719  0.3402
 9410TIP3    H149721   6.482   3.931   6.470  1.3041 -0.6648 -0.1456
 9410TIP3    H249722   6.420   3.863   6.349 -0.3904 -0.7121  0.7233
 9411TIP3   OH249723   6.457   0.037   1.764  0.5178  0.1456 -0.4987
 9411TIP3    H149724   6.450   0.099   1.691  2.5682  1.2327  0.1350
 9411TIP3    H249725   6.475  -0.047   1.723  0.7775  0.5743 -1.2850
 9412TIP3   OH249726   5.722   2.579  12.220  0.5386 -0.0076  0.0016
 9412TIP3    H149727   5.745   2.671  12.203  1.4675  0.0767  1.4677
 9412TIP3    H249728   5.737   2.569  12.314  1.7141 -2.0028 -0.3521
 9413TIP3   OH249729   0.188   3.425  16.994  0.0913  0.7598  0.2533
 9413TIP3    H149730   0.243   3.355  16.960 -1.3549  0.6098 -2.0427
 9413TIP3    H249731   0.124   3.380  17.050 -0.4754  0.2881 -0.7501
 9414TIP3   OH249732   4.229   3.406  13.955  0.2542  0.1083 -0.3567
 9414TIP3    H149733   4.273   3.405  13.870 -0.3390 -3.7900 -0.7892
 9414TIP3    H249734   4.153   3.349  13.944 -1.6256  1.9166  2.0129
 9415TIP3   OH249735   0.829   4.811   3.801  0.5389  0.7437  0.0895
 9415TIP3    H149736   0.763   4.772   3.859  1.1900 -0.0489  0.3266
 9415TIP3    H249737   0.780   4.870   3.744 -0.6288 -0.9924 -0.7860
 9416TIP3   OH249738   5.054   6.511   2.012 -0.1821  0.7594 -0.2545
 9416TIP3    H149739   5.016   6.548   1.932 -0.5223  0.9299 -0.0117
 9416TIP3    H249740   5.103   6.583   2.051  1.4059  0.2347 -1.1877
 9417TIP3   OH249741   3.248   2.500   2.485 -0.0686  0.1649 -0.4087
 9417TIP3    H149742   3.211   2.546   2.410  1.0387  0.5655 -0.7319
 9417TIP3    H249743   3.238   2.407   2.464 -0.4484  0.2729 -0.7026
 9418TIP3   OH249744   0.450   0.041  17.176 -0.1508  0.1368 -0.2187
 9418TIP3    H149745   0.448  -0.030  17.240  1.8773  1.9034  1.9799
 9418TIP3    H249746   0.378   0.098  17.202  0.7124  0.8871  0.5739
 9419TIP3   OH249747   5.422   3.022   5.014  1.2368  0.0779  0.5914
 9419TIP3    H149748   5.461   3.109   5.014  1.2745  0.1189 -1.6723
 9419TIP3    H249749   5.334   3.035   5.049  1.2243  1.0293  0.2175
 9420TIP3   OH249750   0.800   4.155   4.350 -0.6191  0.2840  0.0959
 9420TIP3    H149751   0.863   4.094   4.312  0.6630  1.7237 -0.1664
 9420TIP3    H249752   0.718   4.106   4.352 -0.4926 -0.2782 -3.4270
 9421TIP3   OH249753   5.710   6.052   5.126 -0.1397  0.2677 -0.0405
 9421TIP3    H149754   5.750   6.059   5.040 -1.3315 -0.0731 -0.6423
 9421TIP3    H249755   5.756   5.979   5.168  0.1510  0.1540 -0.5511
 9422TIP3   OH249756   2.414   6.493  13.195 -0.2703  0.3651 -0.1480
 9422TIP3    H149757   2.429   6.411  13.243 -0.3389  0.9802  0.9517
 9422TIP3    H249758   2.371   6.465  13.114  1.3676 -0.8519 -0.6405
 9423TIP3   OH249759   5.442   4.712  15.664 -0.0458  0.4319 -0.0554
 9423TIP3    H149760   5.428   4.764  15.742 -0.7142  0.9268 -0.4998
 9423TIP3    H249761   5.511   4.758  15.616  1.6701 -0.8352  1.0810
 9424TIP3   OH249762   4.532   2.831  16.339 -0.0212 -0.2439 -0.1814
 9424TIP3    H149763   4.525   2.815  16.433 -0.6412  0.8966 -0.0097
 9424TIP3    H249764   4.456   2.786  16.302 -0.0935 -0.2198 -0.0643
 9425TIP3   OH249765   5.601   0.748   5.516 -0.2406  0.2260  0.1568
 9425TIP3    H149766   5.690   0.734   5.485 -0.3198  1.5830 -0.7738
 9425TIP3    H249767   5.548   0.749   5.437 -0.8197  1.2186  0.5437
 9426TIP3   OH249768   2.729   3.697  14.269  0.2839 -0.0800  0.2307
 9426TIP3    H149769   2.634   3.696  14.267  0.2725  0.0243  0.6375
 9426TIP3    H249770   2.752   3.771  14.326  0.6699  2.6387 -3.1536
 9427TIP3   OH249771   5.774   3.134   3.689  0.0577 -0.2782 -0.5847
 9427TIP3    H149772   5.868   3.148   3.700  0.6897 -2.3576 -2.5210
 9427TIP3    H249773   5.734   3.217   3.713  2.3743  0.6186  0.4211
 9428TIP3   OH249774   3.260   3.914   0.081 -0.1539 -0.4254  0.0629
 9428TIP3    H149775   3.349   3.880   0.090 -0.1312 -0.6772 -0.9715
 9428TIP3    H249776   3.220   3.901   0.167  0.2695 -1.8754  0.0647
 9429TIP3   OH249777   2.792   3.604   5.244 -0.2470 -0.0060  0.1860
 9429TIP3    H149778   2.700   3.583   5.258  0.3146 -2.2282  0.9655
 9429TIP3    H249779   2.835   3.584   5.327  1.4763 -2.7677 -1.2008
 9430TIP3   OH249780   6.030   0.289  16.595 -0.6464 -0.2990 -0.4284
 9430TIP3    H149781   5.994   0.372  16.563 -0.0787  0.0046 -0.2942
 9430TIP3    H249782   5.975   0.266  16.670 -0.8339 -0.0690 -0.4923
 9431TIP3   OH249783   5.741   6.017   0.558  0.2432 -0.3599  0.0996
 9431TIP3    H149784   5.704   6.073   0.627  0.8537  0.7144 -0.4199
 9431TIP3    H249785   5.833   6.008   0.581  0.2403 -0.8231 -0.0546
 9432TIP3   OH249786   5.593   3.592   5.067  0.0803  0.4526  0.0576
 9432TIP3    H149787   5.613   3.685   5.077  1.1838  0.2274  0.1057
 9432TIP3    H249788   5.669   3.556   5.020  0.1101 -0.5887  0.8512
 9433TIP3   OH249789   4.825   6.414  12.457 -0.0119 -0.2967  0.4818
 9433TIP3    H149790   4.762   6.436  12.526  1.3753  0.5539  1.5262
 9433TIP3    H249791   4.828   6.492  12.402  1.2156  0.2664  1.3087
 9434TIP3   OH249792   6.091   1.126  12.188  0.0828 -0.4739  0.4132
 9434TIP3    H149793   6.153   1.077  12.242  0.7953 -0.5108 -0.4132
 9434TIP3    H249794   6.132   1.212  12.176  0.0228 -0.5251 -0.2023
 9435TIP3   OH249795   6.158   3.034   6.573 -0.2099 -0.6666 -0.1867
 9435TIP3    H149796   6.067   3.027   6.545 -1.9570  1.1107  4.1753
 9435TIP3    H249797   6.179   3.127   6.563 -0.2285 -0.3596  2.1008
 9436TIP3   OH249798   0.967   1.240  11.978 -0.3344 -0.3644  0.4829
 9436TIP3    H149799   1.040   1.245  12.040 -0.4830  1.8909  0.5593
 9436TIP3    H249800   0.893   1.276  12.027 -1.1882 -1.3787 -0.0441
 9437TIP3   OH249801   6.106   2.968  11.726  0.4871  0.4175 -0.1121
 9437TIP3    H149802   6.185   3.008  11.764  0.5159  1.7344 -1.4512
 9437TIP3    H249803   6.048   3.042  11.708 -1.2075 -0.5546  1.1149
 9438TIP3   OH249804   2.230   2.526   3.395 -0.2738  0.5481 -0.0647
 9438TIP3    H149805   2.156   2.586   3.388 -0.0971  0.9318  1.0555
 9438TIP3    H249806   2.218   2.463   3.324 -2.0235  0.2210  0.4804
 9439TIP3   OH249807   5.948   5.819   1.231  0.3862 -0.0022  0.2246
 9439TIP3    H149808   5.872   5.810   1.289  1.2513 -1.2782  1.2059
 9439TIP3    H249809   5.961   5.731   1.196  0.7998  0.4358 -0.7449
 9440TIP3   OH249810   1.692   2.636  14.148 -0.2468 -0.2272  0.2323
 9440TIP3    H149811   1.741   2.558  14.175 -0.1705  0.1234  1.1620
 9440TIP3    H249812   1.614   2.601  14.106  1.0941 -0.7954 -1.9227
 9441TIP3   OH249813   3.330   3.420  11.667  0.2412 -0.2723 -0.8070
 9441TIP3    H149814   3.403   3.470  11.629  2.0683 -0.6216  1.9715
 9441TIP3    H249815   3.300   3.474  11.740 -2.0512 -0.3687 -1.6194
 9442TIP3   OH249816   4.415   0.361   4.059  0.2188 -0.3377  0.5770
 9442TIP3    H149817   4.328   0.384   4.091  0.3426  1.0179  0.0450
 9442TIP3    H249818   4.405   0.357   3.964  0.4279 -1.6712  0.5929
 9443TIP3   OH249819   4.892   6.284  11.279 -0.1969 -0.2355  0.0875
 9443TIP3    H149820   4.902   6.273  11.184  0.7005  2.9740 -0.3160
 9443TIP3    H249821   4.982   6.297  11.311 -0.5795 -0.3523  1.2509
 9444TIP3   OH249822   4.801   6.112   0.268  0.2960 -0.7146 -0.5064
 9444TIP3    H149823   4.789   6.147   0.180  0.1716  1.8805  0.4497
 9444TIP3    H249824   4.716   6.077   0.292 -0.7213  1.7122 -0.2254
 9445TIP3   OH249825   0.058   1.652  15.540  0.1857 -0.0859  0.0224
 9445TIP3    H149826   0.123   1.698  15.593  0.9377 -0.3418 -0.6547
 9445TIP3    H249827  -0.023   1.702  15.552  0.2443 -0.3406  1.6796
 9446TIP3   OH249828   0.057   1.494   5.164 -0.5170 -0.8365  0.0969
 9446TIP3    H149829  -0.035   1.468   5.159 -1.0162  0.8454  0.2060
 9446TIP3    H249830   0.062   1.550   5.241  0.1811  0.6716 -1.0003
 9447TIP3   OH249831   6.450   2.251  15.650 -0.1853 -0.4529  0.2525
 9447TIP3    H149832   6.457   2.338  15.612  0.5937 -0.2130  0.9006
 9447TIP3    H249833   6.358   2.227  15.641 -0.7685  1.1253  1.5123
 9448TIP3   OH249834   2.483   5.194   5.703  0.3052  0.3607  0.1282
 9448TIP3    H149835   2.535   5.114   5.716  1.7288  1.4050  1.2670
 9448TIP3    H249836   2.537   5.264   5.739 -0.3895  2.0453 -1.8702
 9449TIP3   OH249837   1.899   0.511   2.456  0.2861  0.2093  0.2616
 9449TIP3    H149838   1.931   0.447   2.519 -1.8636 -0.8668  0.3854
 9449TIP3    H249839   1.956   0.587   2.467  2.1495 -1.2190  0.9915
 9450TIP3   OH249840   1.547   2.939   2.408 -0.5277  0.3411 -0.0387
 9450TIP3    H149841   1.568   2.977   2.494 -0.2909 -1.7991  0.9303
 9450TIP3    H249842   1.629   2.946   2.359  0.1296 -0.7011  0.8539
 9451TIP3   OH249843   1.577   4.114  13.460 -0.2525  0.0760 -0.9017
 9451TIP3    H149844   1.494   4.090  13.501 -0.8571  0.1908 -2.0083
 9451TIP3    H249845   1.559   4.108  13.366  1.1282 -0.3296 -1.1532
 9452TIP3   OH249846   0.843   0.716   5.332 -0.2619 -0.3522 -0.6483
 9452TIP3    H149847   0.873   0.754   5.415 -0.1102 -1.8448  0.0194
 9452TIP3    H249848   0.749   0.703   5.344 -0.4913  0.6955 -1.2442
 9453TIP3   OH249849   5.863   4.056   4.267  0.1223 -1.0775 -0.0941
 9453TIP3    H149850   5.803   4.073   4.340  1.7365 -0.7108  1.1908
 9453TIP3    H249851   5.866   4.139   4.219  0.4560 -0.7482  0.4865
 9454TIP3   OH249852   1.986   2.277  15.095  0.0648  0.0350  0.3198
 9454TIP3    H149853   2.049   2.338  15.056 -0.3084  0.4196  0.3133
 9454TIP3    H249854   1.951   2.323  15.172 -1.3941  0.5030 -0.5762
 9455TIP3   OH249855   6.294   6.420   2.107  0.2044 -0.0866  0.1027
 9455TIP3    H149856   6.313   6.500   2.059  0.1538  1.2016  2.0959
 9455TIP3    H249857   6.298   6.351   2.042 -2.4370  1.7724 -2.3071
 9456TIP3   OH249858   0.630   4.103  17.142 -0.1576 -0.0843  0.4335
 9456TIP3    H149859   0.550   4.135  17.100  0.8419 -0.7638 -2.1953
 9456TIP3    H249860   0.603   4.023  17.187 -0.9256 -0.4326 -0.6184
 9457TIP3   OH249861   4.177   2.022  10.473  0.0937 -0.4480 -0.4883
 9457TIP3    H149862   4.089   2.054  10.496  0.8831  0.9408  0.7664
 9457TIP3    H249863   4.221   2.098  10.435  1.3754 -0.5730  0.6953
 9458TIP3   OH249864   4.858   3.472  11.611  0.3293 -0.3772  0.1466
 9458TIP3    H149865   4.802   3.399  11.584 -0.7760  0.5349 -0.0841
 9458TIP3    H249866   4.926   3.475  11.544 -1.1412  0.4676 -1.3624
 9459TIP3   OH249867   3.547   3.506   2.780  0.7419  0.3328  0.0480
 9459TIP3    H149868   3.588   3.583   2.742  1.7800  1.0321  2.3731
 9459TIP3    H249869   3.564   3.514   2.874 -0.9948 -1.6413  0.6032
 9460TIP3   OH249870   5.373   4.795   2.408  0.5902 -0.2291 -0.1686
 9460TIP3    H149871   5.434   4.721   2.405  0.3580 -0.4299  0.0349
 9460TIP3    H249872   5.352   4.813   2.317 -1.5915 -2.2687 -0.1449
 9461TIP3   OH249873   5.483   0.530   3.443  0.3252 -0.5192  0.0910
 9461TIP3    H149874   5.530   0.521   3.361  0.4367  0.6097  0.0144
 9461TIP3    H249875   5.532   0.596   3.492 -0.4249 -0.2921  0.5509
 9462TIP3   OH249876   5.923   1.491   3.914  0.1586 -0.2635  0.0497
 9462TIP3    H149877   5.899   1.399   3.925 -0.6619  0.0695  1.3253
 9462TIP3    H249878   5.859   1.539   3.967  1.5703  0.9196  0.7588
 9463TIP3   OH249879   6.088   2.456   2.505  0.2472  0.2561  0.1712
 9463TIP3    H149880   6.123   2.404   2.432 -2.0065  0.3437 -1.0689
 9463TIP3    H249881   5.993   2.452   2.494 -0.1176  1.4169  2.3441
 9464TIP3   OH249882   2.576   5.068   3.959  0.2549 -0.2183 -0.9002
 9464TIP3    H149883   2.600   5.050   4.050  3.7184  2.0010 -1.2015
 9464TIP3    H249884   2.586   5.163   3.950 -2.3426 -0.0215 -3.0808
 9465TIP3   OH249885   0.914   0.148  11.308 -0.3310  0.6143  0.6095
 9465TIP3    H149886   0.950   0.081  11.250  1.2960 -0.1175  2.3708
 9465TIP3    H249887   0.867   0.208  11.249 -0.2405 -1.0158 -1.2201
 9466TIP3   OH249888   3.993   0.523   0.186 -0.2002  0.3780 -0.1680
 9466TIP3    H149889   4.051   0.447   0.198  0.6820  0.7774 -1.5720
 9466TIP3    H249890   3.968   0.549   0.274  0.4478 -0.8204  0.3943
 9467TIP3   OH249891   1.214   5.414   5.935 -0.9885 -0.8688 -0.9857
 9467TIP3    H149892   1.166   5.456   6.007 -0.6775  0.4796 -1.5323
 9467TIP3    H249893   1.161   5.337   5.914 -0.6258 -1.8327  1.2539
 9468TIP3   OH249894   1.673   6.521   4.763 -0.3539  0.2624 -0.1339
 9468TIP3    H149895   1.697   6.592   4.822  1.3369 -0.8475  0.5978
 9468TIP3    H249896   1.650   6.448   4.820  0.3045 -0.5213 -0.8351
 9469TIP3   OH249897   4.938   1.278  12.601  0.2822  0.6933 -0.4472
 9469TIP3    H149898   4.864   1.229  12.637  3.0430 -2.8792  0.8912
 9469TIP3    H249899   4.973   1.326  12.676 -0.5218  2.3464 -1.0713
 9470TIP3   OH249900   4.451   2.500   4.102  0.3734  0.1712 -0.2172
 9470TIP3    H149901   4.442   2.578   4.048 -0.0096  0.1207 -0.2332
 9470TIP3    H249902   4.428   2.427   4.043  0.3631  0.0807 -0.1020
 9471TIP3   OH249903   4.817   1.652  11.771  0.4662 -0.3852  0.4726
 9471TIP3    H149904   4.823   1.655  11.867  0.8807  1.4617  0.4257
 9471TIP3    H249905   4.753   1.719  11.749  0.5800 -0.6094 -0.5517
 9472TIP3   OH249906   4.340   1.645  16.380  0.2454 -0.1820  0.3784
 9472TIP3    H149907   4.327   1.580  16.449 -1.1716  0.0308  0.3356
 9472TIP3    H249908   4.360   1.593  16.302 -1.2771 -0.6320  0.2499
 9473TIP3   OH249909   2.476   1.300   0.819 -0.0774  0.0617 -0.0177
 9473TIP3    H149910   2.484   1.318   0.912 -1.9500 -1.2915  0.4666
 9473TIP3    H249911   2.491   1.205   0.812  1.8135  0.4029 -1.3692
 9474TIP3   OH249912   0.287   6.618   2.995  0.1737  0.2423 -0.2082
 9474TIP3    H149913   0.251   6.683   2.935  0.7979  2.0616  1.2776
 9474TIP3    H249914   0.377   6.604   2.964 -0.2043 -0.5248 -0.9846
 9475TIP3   OH249915   3.407   2.504  13.580  0.0183  0.2839 -0.2212
 9475TIP3    H149916   3.450   2.504  13.666 -1.2782 -0.4254  0.4528
 9475TIP3    H249917   3.332   2.562  13.592 -0.5548 -0.3554 -0.6724
 9476TIP3   OH249918   5.775   5.496   4.133  0.2952  0.1774  0.0505
 9476TIP3    H149919   5.850   5.438   4.149  1.1064  0.5519 -2.1330
 9476TIP3    H249920   5.798   5.578   4.176 -0.5504 -0.7984  2.5565
 9477TIP3   OH249921   0.281   0.206   2.890 -0.0845  0.0293  0.1545
 9477TIP3    H149922   0.243   0.250   2.966  1.7509  1.0361  0.5608
 9477TIP3    H249923   0.358   0.161   2.924  0.2452 -0.2882 -0.9518
 9478TIP3   OH249924   2.258   5.082   1.878  0.2891  0.2355 -0.5617
 9478TIP3    H149925   2.214   5.027   1.942  2.9891 -1.4589  0.0208
 9478TIP3    H249926   2.255   5.032   1.796  0.2809  0.5376 -0.7466
 9479TIP3   OH249927   0.296   1.872  13.954  0.0837 -0.4231  0.3197
 9479TIP3    H149928   0.306   1.878  14.049  0.6614  1.9011  0.1683
 9479TIP3    H249929   0.205   1.897  13.937  0.2890  0.2694  0.2049
 9480TIP3   OH249930   3.324   4.036  13.991  0.6258 -0.5840  0.1065
 9480TIP3    H149931   3.374   4.033  13.909  2.3434  0.5052  1.0563
 9480TIP3    H249932   3.345   3.954  14.034  0.2927 -0.8395 -0.2099
 9481TIP3   OH249933   3.970   3.682   4.026 -0.1364 -0.7048 -0.5191
 9481TIP3    H149934   3.994   3.592   4.048  3.2197 -0.7873 -3.5255
 9481TIP3    H249935   3.901   3.674   3.961 -2.9210 -0.7748  2.2184
 9482TIP3   OH249936   6.155   0.864  15.341 -0.6182  0.2702  0.6415
 9482TIP3    H149937   6.091   0.856  15.411  1.0383  1.4093  2.3842
 9482TIP3    H249938   6.166   0.958  15.329  2.6682  0.2724  2.4178
 9483TIP3   OH249939   5.351   1.985   2.521 -0.0183  0.2546 -0.7207
 9483TIP3    H149940   5.406   2.007   2.445  2.5578 -1.0667  0.6404
 9483TIP3    H249941   5.379   2.045   2.590 -0.1112 -0.5910  0.0720
 9484TIP3   OH249942   3.314   4.314  13.976 -0.3796  0.3024 -0.0589
 9484TIP3    H149943   3.403   4.279  13.973 -0.1619  0.5508  1.9446
 9484TIP3    H249944   3.258   4.237  13.980 -0.2119  0.1561 -0.4443
 9485TIP3   OH249945   4.811   0.254  14.841 -0.1942  0.6376 -0.9199
 9485TIP3    H149946   4.884   0.196  14.857  1.0917  2.3301 -0.3789
 9485TIP3    H249947   4.801   0.255  14.746  0.5720  0.4793 -1.0064
 9486TIP3   OH249948   2.984   4.112  11.462  0.2057 -0.5524  0.5922
 9486TIP3    H149949   3.001   4.057  11.386 -1.4210 -3.1490  1.9443
 9486TIP3    H249950   2.936   4.187  11.428 -0.7029 -1.7828 -0.9517
 9487TIP3   OH249951   2.388   4.354   5.698 -0.1512 -0.3989 -0.4962
 9487TIP3    H149952   2.362   4.378   5.786 -0.9701  0.7065 -1.0177
 9487TIP3    H249953   2.475   4.316   5.708 -0.0945  0.0270  0.7406
 9488TIP3   OH249954   5.751   4.875  15.757 -0.4561  0.4036 -0.0665
 9488TIP3    H149955   5.734   4.802  15.816  0.1284 -1.7097 -2.3609
 9488TIP3    H249956   5.677   4.935  15.771 -2.6257 -2.0702 -0.1958
 9489TIP3   OH249957   1.397   1.410   5.645  0.6749  0.3084  0.0440
 9489TIP3    H149958   1.490   1.432   5.644  0.2568  2.2710 -0.8515
 9489TIP3    H249959   1.355   1.485   5.687 -0.5378 -0.4610  0.2688
 9490TIP3   OH249960   4.632   1.737   5.856  0.5011  0.0570 -0.4228
 9490TIP3    H149961   4.676   1.820   5.841  1.6461 -0.4185  0.1549
 9490TIP3    H249962   4.672   1.677   5.794  0.8075 -0.4230  0.2212
 9491TIP3   OH249963   3.362   2.679  16.909  0.3382  0.1988  0.4521
 9491TIP3    H149964   3.285   2.733  16.887  0.3806  0.0835 -0.0021
 9491TIP3    H249965   3.423   2.696  16.838  0.5972  0.0234  0.6336
 9492TIP3   OH249966   5.949   6.503  12.393 -0.7154 -0.0270 -0.1742
 9492TIP3    H149967   5.898   6.564  12.446 -0.0756  0.8812 -0.5834
 9492TIP3    H249968   5.884   6.447  12.350 -1.2835  0.0702  0.5579
 9493TIP3   OH249969   4.481   1.716   2.135 -0.6552 -0.0689 -0.1684
 9493TIP3    H149970   4.466   1.642   2.194  0.4345  1.2156  1.8371
 9493TIP3    H249971   4.490   1.792   2.193  2.5084  0.9835 -1.7860
 9494TIP3   OH249972   5.081   5.597   6.383 -0.2589  0.3060  0.0407
 9494TIP3    H149973   4.999   5.641   6.407 -0.4685 -0.3809  0.6184
 9494TIP3    H249974   5.091   5.528   6.449  0.9017  0.5188  0.1068
 9495TIP3   OH249975   2.145   5.707  17.025  0.3990  0.2596 -0.1432
 9495TIP3    H149976   2.139   5.799  16.998 -0.0215  0.0389 -0.8365
 9495TIP3    H249977   2.073   5.664  16.978 -1.5409  0.1651  2.6849
 9496TIP3   OH249978   0.007   3.319  12.216  0.8100  0.3667 -0.2712
 9496TIP3    H149979   0.049   3.397  12.179 -0.5982  1.0318 -0.5731
 9496TIP3    H249980  -0.081   3.349  12.239  0.8326 -0.6848  1.3251
 9497TIP3   OH249981   1.626   3.936  11.552  0.0651 -0.0925 -0.2169
 9497TIP3    H149982   1.636   3.923  11.458 -0.1942  2.4022 -0.6677
 9497TIP3    H249983   1.704   3.896  11.590  1.4750  1.0227 -1.7726
 9498TIP3   OH249984   3.401   3.544   3.629  0.4000 -0.1755 -0.1714
 9498TIP3    H149985   3.333   3.477   3.637 -0.0000  0.3000  0.4541
 9498TIP3    H249986   3.412   3.578   3.717  1.1818  0.0213 -0.3405
 9499TIP3   OH249987   1.657   6.480  15.701 -0.3389  0.1022 -0.0816
 9499TIP3    H149988   1.741   6.526  15.706 -0.3225  0.1297 -0.5988
 9499TIP3    H249989   1.597   6.535  15.750  0.1750 -0.4518  1.2381
 9500TIP3   OH249990   0.250   4.361   6.089  0.2883  0.0681  0.3944
 9500TIP3    H149991   0.323   4.392   6.034 -1.0470  1.4078 -0.7080
 9500TIP3    H249992   0.216   4.441   6.130  0.0156 -0.6661  1.6265
 9501TIP3   OH249993   4.573   3.300  14.511  0.1037 -0.5669 -0.6591
 9501TIP3    H149994   4.539   3.239  14.445  2.4226 -1.6855 -0.9200
 9501TIP3    H249995   4.574   3.249  14.592 -1.8998  0.5311  0.1263
 9502TIP3   OH249996   5.741   1.707  15.709  0.4047 -0.4158 -0.8124
 9502TIP3    H149997   5.655   1.741  15.734  1.4415  0.7424  1.3824
 9502TIP3    H249998   5.722   1.620  15.672 -1.6690 -0.3643  0.0092
 9503TIP3   OH249999   3.087   4.855  13.888 -0.1825 -0.3266 -0.2572
 9503TIP3    H150000   3.120   4.846  13.798 -1.4874 -0.3740 -0.7456
 9503TIP3    H250001   3.036   4.936  13.887 -0.4797 -0.5001  0.3626
 9504TIP3   OH250002   3.079   6.571   2.156  0.1640  0.2627  0.6361
 9504TIP3    H150003   2.996   6.579   2.110 -0.1133 -3.2971  0.2323
 9504TIP3    H250004   3.142   6.544   2.088  1.5623  2.1966  1.0662
 9505TIP3   OH250005   6.543   5.764   2.468 -0.4272 -0.3132  0.3561
 9505TIP3    H150006   6.552   5.670   2.454 -1.0410 -0.1615 -1.2933
 9505TIP3    H250007   6.462   5.788   2.423 -0.0046  1.0865  0.2663
 9506TIP3   OH250008   3.603   2.636  11.948  0.8158  0.0610 -0.0652
 9506TIP3    H150009   3.632   2.708  11.892  2.5088 -1.6574 -1.5453
 9506TIP3    H250010   3.616   2.557  11.894 -0.3428 -1.4274  1.7017
 9507TIP3   OH250011   4.449   0.302  16.546 -0.6447 -0.1045  0.1451
 9507TIP3    H150012   4.535   0.332  16.517 -0.9791  3.5331  2.2720
 9507TIP3    H250013   4.393   0.311  16.468  0.4160 -0.2841 -0.6614
 9508TIP3   OH250014   5.306   1.737  13.441 -0.4063  0.8318 -0.2467
 9508TIP3    H150015   5.337   1.827  13.430 -0.3068  0.9220  0.7429
 9508TIP3    H250016   5.356   1.687  13.376 -0.4050  1.4686 -0.7496
 9509TIP3   OH250017   1.788   0.606  13.675  0.2724  0.2431 -0.4404
 9509TIP3    H150018   1.709   0.586  13.625  0.3490 -0.4755 -0.2855
 9509TIP3    H250019   1.757   0.612  13.766  0.4188 -0.2045 -0.3580
 9510TIP3   OH250020   1.076   6.758  15.709 -0.8793 -0.5447  0.0269
 9510TIP3    H150021   1.061   6.695  15.779  0.5099 -1.1331 -0.1814
 9510TIP3    H250022   1.108   6.706  15.636 -1.2008  0.2122 -0.6684
 9511TIP3   OH250023   3.256   5.663  10.477 -0.1476  0.2026  0.0770
 9511TIP3    H150024   3.342   5.620  10.476  0.4662  1.2520  2.1050
 9511TIP3    H250025   3.201   5.605  10.529 -0.3153  0.1620 -0.1444
 9512TIP3   OH250026   3.533   1.446  16.484  0.2485 -0.2736  0.7843
 9512TIP3    H150027   3.518   1.460  16.578 -0.3044  0.2537  0.6271
 9512TIP3    H250028   3.577   1.526  16.456 -0.1053 -0.1839  0.4836
 9513TIP3   OH250029   2.190   0.946   0.254  0.2084 -0.2341 -0.2919
 9513TIP3    H150030   2.173   1.038   0.234  0.8795 -0.3949 -1.6881
 9513TIP3    H250031   2.144   0.897   0.186 -1.4776 -1.0323  1.3439
 9514TIP3   OH250032   3.859   2.763   5.467 -0.2002 -0.3926  0.4770
 9514TIP3    H150033   3.770   2.797   5.475 -0.7478 -1.4659 -0.6668
 9514TIP3    H250034   3.861   2.722   5.380  1.1331 -1.2136  0.8661
 9515TIP3   OH250035   2.756   0.362   4.850  0.0152  0.5743 -0.2617
 9515TIP3    H150036   2.672   0.336   4.886 -0.5099  0.3246 -1.6157
 9515TIP3    H250037   2.784   0.435   4.906 -0.9358  0.4616  0.3894
 9516TIP3   OH250038   5.065   3.664   2.149  0.0608  0.1096 -0.7013
 9516TIP3    H150039   5.055   3.616   2.067  2.1236  0.4536 -1.2056
 9516TIP3    H250040   5.116   3.606   2.205 -1.4231 -0.1686  0.4226
 9517TIP3   OH250041   3.882   1.642   4.774 -0.0472 -0.2276 -0.1121
 9517TIP3    H150042   3.891   1.562   4.722 -0.8985 -1.2856  1.2629
 9517TIP3    H250043   3.858   1.710   4.712 -0.6882 -1.3570 -1.1355
 9518TIP3   OH250044   3.152   5.978  15.992  0.1549 -0.3425 -0.6586
 9518TIP3    H150045   3.181   6.068  15.982  1.0703 -0.5656 -0.1142
 9518TIP3    H250046   3.222   5.935  16.041 -0.3001 -1.3308 -0.8407
 9519TIP3   OH250047   0.643   2.830  15.713  0.0007 -0.2944 -0.5164
 9519TIP3    H150048   0.583   2.904  15.714  0.8218  0.3792  0.4057
 9519TIP3    H250049   0.643   2.797  15.803 -1.3464 -2.2713 -1.1632
 9520TIP3   OH250050   1.492   5.153   2.828 -0.5393  0.5248  0.7142
 9520TIP3    H150051   1.412   5.146   2.776 -0.7970 -0.6696  1.2416
 9520TIP3    H250052   1.547   5.080   2.798  0.0628  0.9188  0.8398
 9521TIP3   OH250053   0.487   6.534  13.010  0.5497 -0.5940  0.1931
 9521TIP3    H150054   0.550   6.530  13.083 -0.6597  1.1692  1.3987
 9521TIP3    H250055   0.471   6.627  12.996 -1.7682 -0.9661 -0.0846
 9522TIP3   OH250056   5.670   6.690  15.506  0.8237  0.4306 -0.2378
 9522TIP3    H150057   5.606   6.621  15.526  2.7851 -0.6848  2.7605
 9522TIP3    H250058   5.618   6.756  15.460 -2.2168 -0.9390  0.9008
 9523TIP3   OH250059   0.243   5.602   5.087 -0.3675  0.2963 -0.8155
 9523TIP3    H150060   0.236   5.509   5.111 -0.7913  0.2883 -0.9598
 9523TIP3    H250061   0.308   5.638   5.147 -0.3612 -0.0471 -0.6149
 9524TIP3   OH250062   2.541   4.763  13.018 -0.2151  0.0996 -0.1514
 9524TIP3    H150063   2.624   4.809  13.032 -0.7320  0.9634  0.1786
 9524TIP3    H250064   2.561   4.699  12.950  1.0268 -0.5570  0.7837
 9525TIP3   OH250065   2.366   5.875   3.715  0.0426  0.4092  0.3990
 9525TIP3    H150066   2.376   5.785   3.747 -1.2258  0.3361  0.6469
 9525TIP3    H250067   2.453   5.899   3.683  0.8265 -0.3174  1.8608
 9526TIP3   OH250068   5.155   0.028  11.179  0.3443 -0.4108  0.3336
 9526TIP3    H150069   5.112  -0.057  11.181 -0.7653  0.1303  0.1115
 9526TIP3    H250070   5.173   0.048  11.271 -4.7833  1.7143  1.1914
 9527TIP3   OH250071   4.144   2.675  11.053  0.0763  0.0263 -0.3238
 9527TIP3    H150072   4.163   2.604  11.114 -0.9266  0.0734  0.0639
 9527TIP3    H250073   4.051   2.663  11.031 -0.2364  1.4851  0.1186
 9528TIP3   OH250074   3.964   0.741  13.098 -0.0680  0.3812 -0.5480
 9528TIP3    H150075   3.930   0.771  13.182 -0.0246 -0.7646 -0.1121
 9528TIP3    H250076   4.049   0.704  13.118 -0.6879 -1.2869 -0.8281
 9529TIP3   OH250077   6.433   6.195  16.449 -0.2282  0.4886 -0.3189
 9529TIP3    H150078   6.465   6.263  16.507  0.5295 -1.2256  1.4080
 9529TIP3    H250079   6.346   6.224  16.422  0.4663  2.5476 -0.4596
 9530TIP3   OH250080   4.619   1.050  14.197 -1.0814  0.0128 -0.1118
 9530TIP3    H150081   4.600   0.959  14.220  0.1265 -0.1440  0.2944
 9530TIP3    H250082   4.626   1.095  14.281  0.3310  0.0546 -0.2329
 9531TIP3   OH250083   3.020   6.096  11.311  0.5372 -0.1449  0.0782
 9531TIP3    H150084   3.041   6.004  11.298 -0.6446 -0.4927  0.5591
 9531TIP3    H250085   3.081   6.125  11.380  0.3681 -0.7758  0.4981
 9532TIP3   OH250086   6.264   6.689  13.720  0.4724  0.3261 -0.3629
 9532TIP3    H150087   6.278   6.762  13.659 -1.0953 -0.1923 -1.4033
 9532TIP3    H250088   6.336   6.629  13.703  1.4800  1.3573  0.1214
 9533TIP3   OH250089   0.721   4.342  13.910 -0.2325  0.3263  0.6722
 9533TIP3    H150090   0.719   4.247  13.902 -0.0881  0.3653  0.0744
 9533TIP3    H250091   0.814   4.365  13.901 -0.3557  0.5806 -0.0998
 9534TIP3   OH250092   2.295   2.238  12.153  0.3664  0.1627 -0.2055
 9534TIP3    H150093   2.216   2.184  12.161 -0.2162  0.7349 -1.7234
 9534TIP3    H250094   2.306   2.277  12.240 -1.6860  0.9659 -0.2663
 9535TIP3   OH250095   6.725   4.876  14.320 -0.7731  0.0425 -0.2165
 9535TIP3    H150096   6.789   4.821  14.274  0.4606 -0.4607  1.9390
 9535TIP3    H250097   6.650   4.818  14.334  0.0018 -0.7334  0.8998
 9536TIP3   OH250098   3.673   2.511  14.276  0.3428  0.2442  0.3365
 9536TIP3    H150099   3.736   2.440  14.287  0.6190  0.3063 -0.6896
 9536TIP3    H250100   3.608   2.475  14.216 -0.6148  0.1834  1.3896
 9537TIP3   OH250101   3.666   2.854  15.312 -0.5622 -0.3703  0.3063
 9537TIP3    H150102   3.589   2.892  15.355  0.8709 -0.0161  2.7409
 9537TIP3    H250103   3.651   2.760  15.314 -2.5396 -0.2513 -2.6249
 9538TIP3   OH250104   0.815   3.254   0.156 -0.3392 -0.3598 -0.3222
 9538TIP3    H150105   0.768   3.332   0.127 -2.3546 -1.3405  0.1579
 9538TIP3    H250106   0.790   3.244   0.247  0.4836 -1.1772 -0.1787
 9539TIP3   OH250107   0.726   0.721   4.274  0.2620  0.4662  0.1433
 9539TIP3    H150108   0.790   0.681   4.216  0.8369  2.0291 -0.3483
 9539TIP3    H250109   0.745   0.683   4.360  1.5276  0.5253 -0.0899
 9540TIP3   OH250110   1.590   1.017  16.549 -0.6839 -0.6476  0.2025
 9540TIP3    H150111   1.510   0.970  16.572 -1.2638  0.5325  0.6761
 9540TIP3    H250112   1.625   1.048  16.632 -1.9427  2.2975 -0.2509
 9541TIP3   OH250113   4.345   2.208  12.978 -0.0772 -0.5656 -0.0831
 9541TIP3    H150114   4.407   2.161  13.035  1.5300  1.3514 -0.1214
 9541TIP3    H250115   4.336   2.152  12.901  2.3973 -0.5300 -0.4970
 9542TIP3   OH250116   3.485   5.437  10.681 -0.0061 -0.3404  0.1087
 9542TIP3    H150117   3.427   5.489  10.737 -0.2560 -1.0899  0.5495
 9542TIP3    H250118   3.463   5.466  10.592 -0.8263 -0.3733  0.2890
 9543TIP3   OH250119   2.808   2.592   0.419  0.1722 -0.6168  0.1094
 9543TIP3    H150120   2.786   2.684   0.407  0.0992 -0.5803  0.5202
 9543TIP3    H250121   2.837   2.585   0.510  0.5782 -0.9192 -0.0365
 9544TIP3   OH250122   3.988   0.805  12.704  0.1691 -0.5033  0.0552
 9544TIP3    H150123   3.926   0.732  12.705 -1.9778  1.2282 -0.1125
 9544TIP3    H250124   3.939   0.878  12.666  2.9516  0.4532 -2.0622
 9545TIP3   OH250125   4.290   3.697   6.172  0.3910  0.4775 -0.2518
 9545TIP3    H150126   4.200   3.664   6.169  0.3819  0.1524  2.0784
 9545TIP3    H250127   4.344   3.618   6.164  0.4917  0.6145 -1.0571
 9546TIP3   OH250128   1.576   5.450   1.532 -0.0589 -0.3968 -0.7543
 9546TIP3    H150129   1.567   5.517   1.600  0.9011 -0.3122 -0.6930
 9546TIP3    H250130   1.518   5.479   1.462 -0.5942 -0.1589 -0.2245
 9547TIP3   OH250131   6.737   2.743   1.780 -0.2559 -0.0644 -0.0829
 9547TIP3    H150132   6.720   2.811   1.845 -2.5200 -1.0173  0.4061
 9547TIP3    H250133   6.708   2.781   1.697 -0.7232 -0.1287  0.0503
 9548TIP3   OH250134   2.082   1.242  13.350  0.5135  0.4096  0.1882
 9548TIP3    H150135   2.093   1.245  13.445  0.2653 -0.1613  0.2417
 9548TIP3    H250136   2.086   1.148  13.329 -3.1048  0.1322  0.1199
 9549TIP3   OH250137   4.148   5.921   2.057 -0.6806  0.0117  0.1252
 9549TIP3    H150138   4.149   5.839   2.108  0.4294 -0.8582 -1.2306
 9549TIP3    H250139   4.234   5.959   2.072 -0.9034  0.5256  0.1024
 9550TIP3   OH250140   6.081   6.098  11.212  0.3562  0.7614 -0.2278
 9550TIP3    H150141   6.014   6.117  11.278  1.6522  0.2989  1.3080
 9550TIP3    H250142   6.057   6.012  11.178 -0.6013  1.2159 -0.7435
 9551TIP3   OH250143   2.853   6.060  13.232  0.5828 -0.0038 -0.4168
 9551TIP3    H150144   2.834   6.051  13.138  1.2265 -2.0785 -0.3934
 9551TIP3    H250145   2.939   6.018  13.242  0.2081 -0.4111  1.2203
 9552TIP3   OH250146   3.372   5.564   0.943  0.4025 -0.6634  0.0930
 9552TIP3    H150147   3.318   5.488   0.966 -1.2933  0.6524  0.6714
 9552TIP3    H250148   3.309   5.635   0.932  1.7073  0.1964 -2.6471
 9553TIP3   OH250149   3.985   0.073  16.044  0.3574 -0.4842 -0.2628
 9553TIP3    H150150   3.937   0.019  16.107  0.6095  0.7807  1.0833
 9553TIP3    H250151   4.050   0.013  16.007 -1.1385 -1.7863 -0.8884
 9554TIP3   OH250152   3.037   5.205  11.075 -0.1386 -0.1641  1.4085
 9554TIP3    H150153   3.082   5.289  11.060 -0.4764 -0.1878  0.1852
 9554TIP3    H250154   2.949   5.218  11.040  0.7158 -1.9945 -1.7878
 9555TIP3   OH250155   6.654   1.313  13.456 -0.2341  0.8154 -0.2914
 9555TIP3    H150156   6.667   1.275  13.543 -0.1762 -0.3427 -0.7773
 9555TIP3    H250157   6.740   1.345  13.431 -0.2952  1.3370  0.1577
 9556TIP3   OH250158   2.215   0.896  15.546 -0.0954  0.6582 -0.3910
 9556TIP3    H150159   2.287   0.863  15.600 -1.6885  0.1457  1.5286
 9556TIP3    H250160   2.170   0.818  15.515 -1.2736  0.9561  0.5010
 9557TIP3   OH250161   4.725   3.506  16.511  0.1065  0.4496  0.4748
 9557TIP3    H150162   4.677   3.566  16.455 -1.5291 -0.5514  0.7404
 9557TIP3    H250163   4.664   3.485  16.582  1.5979  0.5494  1.8501
 9558TIP3   OH250164   5.478   6.507  15.565  0.5350 -0.0317 -0.7098
 9558TIP3    H150165   5.421   6.435  15.537  2.6010 -2.3197  0.5949
 9558TIP3    H250166   5.438   6.539  15.646 -0.5729  0.5881 -1.4696
 9559TIP3   OH250167   5.516   5.598   4.419  0.5195  0.3952 -0.1112
 9559TIP3    H150168   5.472   5.556   4.492  0.4128  1.3050  0.3571
 9559TIP3    H250169   5.610   5.586   4.437  0.4890 -0.6081 -0.5616
 9560TIP3   OH250170   4.623   6.315   6.822  0.1304  0.1944 -0.1091
 9560TIP3    H150171   4.673   6.381   6.870 -0.6976  0.3927  0.5062
 9560TIP3    H250172   4.603   6.356   6.738 -0.8335  0.9513  0.4717
 9561TIP3   OH250173   5.476   1.710   0.639 -0.3949 -0.1822  0.0570
 9561TIP3    H150174   5.435   1.742   0.720 -0.6182 -0.4782  0.0642
 9561TIP3    H250175   5.561   1.754   0.636  0.5596 -1.7870  1.5804
 9562TIP3   OH250176   1.317   3.859   4.473  0.3830 -0.3425  0.5057
 9562TIP3    H150177   1.242   3.858   4.413 -0.6514 -0.1109  1.7555
 9562TIP3    H250178   1.333   3.766   4.492  1.2355 -0.4697 -0.7204
 9563TIP3   OH250179   1.296   4.873  13.703 -0.2042  0.3139  0.6026
 9563TIP3    H150180   1.256   4.798  13.659 -0.7861  0.2027  1.2948
 9563TIP3    H250181   1.380   4.886  13.659  0.4838 -1.5403  1.2870
 9564TIP3   OH250182   0.565   6.190   2.959  0.2769  0.5072 -0.8519
 9564TIP3    H150183   0.608   6.124   3.013  0.9576  2.8743  1.7402
 9564TIP3    H250184   0.632   6.217   2.897  0.9592  0.7234 -0.0435
 9565TIP3   OH250185   6.285   5.293  14.469  0.1498 -0.0302 -0.1161
 9565TIP3    H150186   6.344   5.365  14.446 -0.3096  0.0988 -0.9223
 9565TIP3    H250187   6.217   5.335  14.522 -0.0072  0.1011 -0.4159
 9566TIP3   OH250188   1.753   6.158   2.454 -0.6009  0.6271 -0.7247
 9566TIP3    H150189   1.805   6.220   2.506 -1.6347  0.1174  1.0111
 9566TIP3    H250190   1.666   6.198   2.449 -1.3344 -0.6812  0.5673
 9567TIP3   OH250191   5.463   0.388   4.315  0.0010  0.1087 -0.3964
 9567TIP3    H150192   5.481   0.305   4.360  0.9329  1.3978  1.7441
 9567TIP3    H250193   5.454   0.363   4.222  2.1263 -2.1289 -0.1118
 9568TIP3   OH250194   3.892   4.395  11.307  0.2456 -0.0617  0.1232
 9568TIP3    H150195   3.884   4.379  11.213 -0.0543 -0.9924  0.2919
 9568TIP3    H250196   3.838   4.473  11.322  0.2122  0.0369 -0.4612
 9569TIP3   OH250197   6.068   3.276   0.763  0.5169  0.4391  0.2082
 9569TIP3    H150198   6.056   3.322   0.680  0.8306 -2.2075 -1.4206
 9569TIP3    H250199   5.993   3.218   0.769  1.2582 -0.4620  1.0266
 9570TIP3   OH250200   0.927   0.182   4.269 -0.0780 -0.1745 -0.7286
 9570TIP3    H150201   0.913   0.178   4.175 -0.4897  2.4464 -0.8625
 9570TIP3    H250202   0.852   0.231   4.303  0.6257 -0.0786  0.7912
 9571TIP3   OH250203   4.039   3.290  16.146  0.0908  0.2336  0.1115
 9571TIP3    H150204   4.052   3.290  16.051 -1.6378 -2.4256 -0.2011
 9571TIP3    H250205   4.085   3.212  16.177 -1.5525 -0.4224  1.0518
 9572TIP3   OH250206   1.263   3.518   4.288 -0.5564  0.6507  0.3332
 9572TIP3    H150207   1.308   3.600   4.266 -0.3805  0.7648  1.0885
 9572TIP3    H250208   1.170   3.539   4.281 -0.5697  1.4535  2.2862
 9573TIP3   OH250209   4.574   4.723  13.266  0.3365 -0.3886  0.4783
 9573TIP3    H150210   4.494   4.678  13.239 -0.7026  1.3164  0.6214
 9573TIP3    H250211   4.546   4.787  13.331  1.6703  0.9018 -0.1575
 9574TIP3   OH250212   5.650   2.886   5.495  0.3713 -0.0121  0.1606
 9574TIP3    H150213   5.643   2.795   5.523  2.7927 -0.1609  0.5141
 9574TIP3    H250214   5.701   2.882   5.414 -0.7751  0.9507 -0.6507
 9575TIP3   OH250215   2.796   0.368   3.757 -0.6144  0.0608  0.0961
 9575TIP3    H150216   2.706   0.338   3.744 -0.1843 -1.3478  0.2830
 9575TIP3    H250217   2.833   0.368   3.669 -0.3117 -0.9903  0.2112
 9576TIP3   OH250218   2.239   4.916   4.675 -0.1147  0.5150 -0.0535
 9576TIP3    H150219   2.264   4.823   4.682  0.0190  0.5721  0.2734
 9576TIP3    H250220   2.168   4.926   4.738 -0.3869  0.5465 -0.3697
 9577TIP3   OH250221   3.752   3.304  16.928 -0.0072  0.1410 -0.1219
 9577TIP3    H150222   3.731   3.396  16.911  1.3991  0.3512 -0.8355
 9577TIP3    H250223   3.840   3.292  16.893  0.1013 -1.3189  0.5631
 9578TIP3   OH250224   5.008   2.791   4.880  0.4503 -0.3553  0.1685
 9578TIP3    H150225   4.946   2.728   4.917 -0.1463  0.4852  0.6426
 9578TIP3    H250226   4.967   2.876   4.894  1.2695  0.1500 -0.4010
 9579TIP3   OH250227   2.386   3.933  12.185  0.3730 -0.0953 -0.2948
 9579TIP3    H150228   2.399   3.965  12.274 -1.8914  1.2442 -0.3771
 9579TIP3    H250229   2.475   3.921  12.151  1.2947  0.8277  1.6064
 9580TIP3   OH250230   2.845   0.961  15.991  0.4150  0.3195  0.2628
 9580TIP3    H150231   2.768   1.008  15.958 -1.1674 -1.9323  0.4284
 9580TIP3    H250232   2.912   0.976  15.925 -0.3426  1.8581 -0.2166
 9581TIP3   OH250233   3.234   5.111   0.998 -0.5544  0.0861  0.2709
 9581TIP3    H150234   3.158   5.065   1.036 -1.2464  0.0208 -1.1239
 9581TIP3    H250235   3.309   5.055   1.020 -1.0079 -0.2428  1.0238
 9582TIP3   OH250236   5.886   5.582   0.798  0.3885  1.0731 -0.3455
 9582TIP3    H150237   5.844   5.635   0.729  0.2484  2.0418  0.4530
 9582TIP3    H250238   5.817   5.570   0.863  0.3568 -0.3067 -0.6049
 9583TIP3   OH250239   5.509   1.925  16.424 -0.2947  0.0449 -0.1817
 9583TIP3    H150240   5.569   1.946  16.496 -0.1637  0.0876 -0.3024
 9583TIP3    H250241   5.564   1.881  16.359 -0.2110  0.8243 -0.6602
 9584TIP3   OH250242   1.277   0.893  14.001 -0.2316  0.0681  0.3413
 9584TIP3    H150243   1.277   0.807  13.959 -0.6074 -0.3331  1.1611
 9584TIP3    H250244   1.232   0.950  13.938 -0.5870 -0.4758  0.1013
 9585TIP3   OH250245   4.586   5.173   0.051 -0.3285  0.6530  0.8168
 9585TIP3    H150246   4.520   5.114   0.014  1.5442 -0.1614 -1.4903
 9585TIP3    H250247   4.553   5.195   0.138 -3.5264  0.1640 -0.1434
 9586TIP3   OH250248   5.951   1.899  17.093  0.0173  0.1775 -0.9370
 9586TIP3    H150249   5.899   1.978  17.107 -0.4727 -0.4059  0.7875
 9586TIP3    H250250   5.905   1.831  17.141  2.4069 -0.3487  0.7825
 9587TIP3   OH250251   0.907   5.144   3.619 -0.3738 -0.3643  0.3085
 9587TIP3    H150252   0.924   5.238   3.613  1.9181 -0.6847  0.7221
 9587TIP3    H250253   0.816   5.134   3.591 -0.3600  1.8473 -0.7528
 9588TIP3   OH250254   2.798   2.141  11.735 -0.1676  0.6124  0.6782
 9588TIP3    H150255   2.728   2.077  11.748 -0.7822  1.0917 -0.1758
 9588TIP3    H250256   2.802   2.189  11.817  1.0135 -1.1601  1.7428
 9589TIP3   OH250257   0.722   4.884   6.672 -0.1650  0.5347 -0.0301
 9589TIP3    H150258   0.816   4.890   6.692 -0.1706  0.0022  0.1790
 9589TIP3    H250259   0.708   4.950   6.605  0.2148  1.1246  0.4524
 9590TIP3   OH250260   1.232   4.593  16.330 -0.1492  0.6160 -0.8993
 9590TIP3    H150261   1.151   4.607  16.380  0.0480 -0.1388 -0.3546
 9590TIP3    H250262   1.221   4.647  16.252 -0.5382  1.7046 -0.1298
 9591TIP3   OH250263   3.736   1.170   0.832  0.3409  0.1348 -0.4736
 9591TIP3    H150264   3.753   1.260   0.858  0.6445 -0.3319  1.0134
 9591TIP3    H250265   3.805   1.118   0.874 -1.4870 -1.1239  1.1422
 9592TIP3   OH250266   1.745   2.396  11.295  0.0873  0.4186  0.2695
 9592TIP3    H150267   1.701   2.476  11.266  0.6921  0.4670 -0.5553
 9592TIP3    H250268   1.786   2.361  11.216  0.2789 -0.4221  0.7287
 9593TIP3   OH250269   2.910   4.504   1.889 -0.2709  0.2409  0.0151
 9593TIP3    H150270   2.953   4.422   1.863  0.1851  0.6231 -0.4528
 9593TIP3    H250271   2.946   4.570   1.829 -2.3215  0.3867 -1.1617
 9594TIP3   OH250272   3.984   3.766  16.220  0.1638  0.2063  0.1936
 9594TIP3    H150273   3.965   3.690  16.275 -3.1836  0.7867  0.0314
 9594TIP3    H250274   3.966   3.736  16.131  0.9168  0.6407 -0.1171
 9595TIP3   OH250275   6.518   5.361   3.497  0.1945 -0.3888  0.3959
 9595TIP3    H150276   6.548   5.451   3.509  0.7637 -0.7761  2.1054
 9595TIP3    H250277   6.490   5.332   3.584  2.0128 -2.5433  0.3724
 9596TIP3   OH250278   2.660   3.058   0.766 -0.1888 -0.1222  0.0906
 9596TIP3    H150279   2.708   3.067   0.849  0.1017 -0.8184 -0.0022
 9596TIP3    H250280   2.623   2.970   0.769 -0.1373 -0.1655 -0.5427
 9597TIP3   OH250281   2.977   1.575  11.543  0.1496  0.6012  0.1296
 9597TIP3    H150282   2.973   1.489  11.584 -0.3374  0.4866 -0.1503
 9597TIP3    H250283   3.063   1.576  11.499  0.0095  0.1153 -0.1707
 9598TIP3   OH250284   1.686   5.307  16.707 -0.1585 -0.4196 -0.6357
 9598TIP3    H150285   1.642   5.248  16.647 -0.3350 -0.1844 -0.7410
 9598TIP3    H250286   1.778   5.304  16.681 -0.3242  0.1588 -1.3344
 9599TIP3   OH250287   2.626   5.210  16.348  0.3878  0.2098 -0.4543
 9599TIP3    H150288   2.585   5.297  16.351 -1.4150 -0.6079  2.2265
 9599TIP3    H250289   2.554   5.150  16.330  0.9421 -1.0105  1.1486
 9600TIP3   OH250290   2.792   1.715   3.188 -0.1949  0.0803 -0.2459
 9600TIP3    H150291   2.718   1.665   3.154  0.1843 -0.8666  0.2711
 9600TIP3    H250292   2.795   1.693   3.281  0.6875  0.1697 -0.2407
 9601TIP3   OH250293   3.230   1.021  11.469  0.4737 -0.6094 -0.4496
 9601TIP3    H150294   3.222   0.935  11.510 -0.7217  0.1087  0.9223
 9601TIP3    H250295   3.144   1.061  11.480  1.4061  1.3141  0.2663
 9602TIP3   OH250296   6.503   0.830  13.965  0.4266  0.2498  0.5237
 9602TIP3    H150297   6.529   0.745  13.930  0.0562  0.3606 -0.0311
 9602TIP3    H250298   6.538   0.831  14.054  0.9508 -0.2363  0.3285
 9603TIP3   OH250299   1.083   1.358  13.791 -0.2381  0.0405  0.5493
 9603TIP3    H150300   1.151   1.417  13.759  1.4308 -1.5129  1.1021
 9603TIP3    H250301   1.004   1.384  13.743  0.7153  1.9078 -0.0797
 9604TIP3   OH250302   5.825   3.113  15.541  0.2967 -0.5179  0.5635
 9604TIP3    H150303   5.912   3.072  15.538  0.1119 -0.8770 -0.0682
 9604TIP3    H250304   5.841   3.202  15.569  0.7914 -0.8096  1.2225
 9605TIP3   OH250305   4.290   4.630   1.483  0.1952  0.3276  0.3066
 9605TIP3    H150306   4.288   4.690   1.409  0.2384 -0.7304 -0.5805
 9605TIP3    H250307   4.380   4.599   1.487 -0.2228 -1.0690 -0.4279
 9606TIP3   OH250308   4.163   5.226  16.217 -0.3628 -0.7556  1.0674
 9606TIP3    H150309   4.244   5.222  16.268 -1.4355  0.3689  2.9924
 9606TIP3    H250310   4.184   5.284  16.144  0.6967 -0.8680  1.2654
 9607TIP3   OH250311   4.944   3.590  16.676  0.5238 -0.0868  0.0550
 9607TIP3    H150312   4.886   3.554  16.610  0.8195 -0.0283 -0.2397
 9607TIP3    H250313   5.026   3.607  16.630 -0.1124  2.5728 -0.2489
 9608TIP3   OH250314   2.130   0.670   2.910 -0.6794  0.1307 -0.4732
 9608TIP3    H150315   2.055   0.729   2.902 -0.8415 -0.1002 -0.6424
 9608TIP3    H250316   2.094   0.590   2.948 -0.3272  0.4064  0.4938
 9609TIP3   OH250317   6.403   4.095   2.431 -0.0087 -0.4623 -0.6784
 9609TIP3    H150318   6.403   4.011   2.385  0.8436 -0.5071 -0.6095
 9609TIP3    H250319   6.493   4.106   2.461 -0.2130  0.2761 -0.3126
 9610TIP3   OH250320   0.033   0.387   1.144 -0.2381  0.0288  0.1792
 9610TIP3    H150321   0.064   0.301   1.172  0.5962 -0.0287 -0.8696
 9610TIP3    H250322   0.112   0.431   1.111 -1.1582  0.0018 -2.2507
 9611TIP3   OH250323   2.330   0.352   3.098 -0.4826 -0.3722 -0.5779
 9611TIP3    H150324   2.350   0.303   3.178 -0.1236 -1.3599 -1.2516
 9611TIP3    H250325   2.395   0.423   3.097  0.4179 -1.1671 -0.6776
 9612TIP3   OH250326   5.501   5.942  11.115  0.1791 -0.0416  0.6688
 9612TIP3    H150327   5.538   5.942  11.204  0.5825 -0.6961  0.5028
 9612TIP3    H250328   5.515   6.031  11.083 -0.8944  0.5081  1.6390
 9613TIP3   OH250329   5.009   6.010  12.674 -0.8800  0.5684  0.1855
 9613TIP3    H150330   5.028   6.080  12.736 -0.3565  1.1840 -0.6582
 9613TIP3    H250331   4.926   5.972  12.706 -1.3388  1.7667  0.4710
 9614TIP3   OH250332   4.558   6.243  10.561 -0.3856  0.0432  0.4570
 9614TIP3    H150333   4.542   6.149  10.576 -0.0341 -0.6389 -2.7397
 9614TIP3    H250334   4.471   6.283  10.567 -0.9256 -0.9224 -0.4924
 9615TIP3   OH250335   2.827   0.920   6.121 -0.4365 -0.0555 -0.6634
 9615TIP3    H150336   2.775   0.931   6.041 -1.0422  0.9690 -0.1495
 9615TIP3    H250337   2.847   0.826   6.123 -0.7811 -0.1782 -1.7856
 9616TIP3   OH250338   2.485   6.111   1.162  0.5353  0.6427  0.2324
 9616TIP3    H150339   2.423   6.160   1.216  1.5067  2.2284 -0.0316
 9616TIP3    H250340   2.568   6.118   1.208  1.0790  0.8292 -0.7620
 9617TIP3   OH250341   2.889   3.515  14.444 -0.4306  0.0893 -1.0032
 9617TIP3    H150342   2.835   3.578  14.397  0.7898  0.6526 -1.6953
 9617TIP3    H250343   2.943   3.474  14.377 -0.0217 -0.4902 -0.3391
 9618TIP3   OH250344   2.432   2.329  12.917 -0.3531 -0.6308 -0.0160
 9618TIP3    H150345   2.457   2.254  12.863 -2.6096 -0.2499 -1.7590
 9618TIP3    H250346   2.372   2.294  12.982 -1.7744 -0.3068 -1.1240
 9619TIP3   OH250347   4.983   2.842   4.499 -0.1365  0.4552  0.3889
 9619TIP3    H150348   4.981   2.748   4.481 -0.1990  0.8438 -1.9801
 9619TIP3    H250349   5.075   2.859   4.522  0.5726  0.1748 -1.9021
 9620TIP3   OH250350   0.232   0.649  14.723  0.2527  0.0120 -0.1207
 9620TIP3    H150351   0.196   0.730  14.686  1.3324  0.7775  0.4478
 9620TIP3    H250352   0.159   0.611  14.772 -0.6846 -0.1194 -1.5517
 9621TIP3   OH250353   4.577   6.117   1.733 -0.1560 -0.1874 -0.1004
 9621TIP3    H150354   4.624   6.079   1.807 -1.0635  0.9588  1.0894
 9621TIP3    H250355   4.550   6.204   1.763 -0.6412  0.2604 -1.7371
 9622TIP3   OH250356   6.648   6.548   4.197  0.0162 -0.0843 -0.3836
 9622TIP3    H150357   6.615   6.458   4.198 -0.0870 -0.0460  0.3794
 9622TIP3    H250358   6.690   6.559   4.282 -0.2764  0.7064 -0.3351
 9623TIP3   OH250359   4.906   6.735  12.620  0.8746 -0.4984  0.2584
 9623TIP3    H150360   4.930   6.647  12.651 -0.9401 -0.2031  2.8329
 9623TIP3    H250361   4.989   6.775  12.595  2.3352 -1.5522  3.0035
 9624TIP3   OH250362   1.959   2.810  13.713  0.2585 -0.1157  0.2423
 9624TIP3    H150363   1.934   2.718  13.699  0.2626 -0.2989  1.3292
 9624TIP3    H250364   2.002   2.810  13.799 -1.6329  1.2529  1.2493
 9625TIP3   OH250365   2.228   4.576   0.730  0.3794 -0.3780 -0.2339
 9625TIP3    H150366   2.284   4.501   0.708  0.2187 -0.2285 -1.2001
 9625TIP3    H250367   2.264   4.648   0.678  0.5816  0.2459  0.7452
 9626TIP3   OH250368   3.448   1.685  15.195 -0.1477 -0.0746 -0.1301
 9626TIP3    H150369   3.412   1.748  15.132 -0.0421  0.5256  0.4043
 9626TIP3    H250370   3.507   1.631  15.143 -0.9285 -0.3225 -0.7830
 9627TIP3   OH250371   0.566   2.095   6.531  0.3246 -0.5945  0.4301
 9627TIP3    H150372   0.508   2.148   6.476  2.0969 -1.4585 -2.5008
 9627TIP3    H250373   0.612   2.158   6.586 -1.5252  0.3140  0.9970
 9628TIP3   OH250374   5.819   4.820   4.259  0.0553  0.4418 -0.6050
 9628TIP3    H150375   5.771   4.743   4.292 -1.3303  1.1301 -0.9317
 9628TIP3    H250376   5.889   4.783   4.206  1.5452 -0.6653  1.9356
 9629TIP3   OH250377   6.614   5.642   1.948 -0.0699 -0.2596 -0.0720
 9629TIP3    H150378   6.675   5.575   1.979  0.0217 -0.0493  0.2078
 9629TIP3    H250379   6.635   5.652   1.855 -1.0373 -1.6358 -0.4788
 9630TIP3   OH250380   6.559   1.988   1.476  0.1039  0.3270 -0.3676
 9630TIP3    H150381   6.466   2.011   1.481 -0.2963 -1.1519 -0.4875
 9630TIP3    H250382   6.588   2.023   1.392 -0.1485  1.4366 -0.0054
 9631TIP3   OH250383   0.432   0.058  15.462  0.2905 -0.3249 -0.1198
 9631TIP3    H150384   0.469   0.142  15.435  0.0010 -0.5884 -1.4116
 9631TIP3    H250385   0.459  -0.003  15.393 -0.9911 -0.9134 -0.1272
 9632TIP3   OH250386   2.602   1.424  15.588  0.6869  0.3653 -0.7433
 9632TIP3    H150387   2.593   1.406  15.494 -1.1070  0.5972 -0.6473
 9632TIP3    H250388   2.514   1.445  15.617  1.3550  1.1418  0.8436
 9633TIP3   OH250389   3.626   2.530  17.076  0.6987 -0.2623  0.4647
 9633TIP3    H150390   3.607   2.528  16.982  0.6517 -0.6308  0.4803
 9633TIP3    H250391   3.635   2.438  17.100 -0.0552 -0.2154  0.9756
 9634TIP3   OH250392   5.935   6.170   2.728 -0.1694  0.1116  0.4604
 9634TIP3    H150393   5.890   6.101   2.679  0.4972  0.3687 -0.5653
 9634TIP3    H250394   6.020   6.131   2.751 -0.8572 -0.3545  2.3226
 9635TIP3   OH250395   3.716   2.019   5.377  0.2677  0.1395  0.3124
 9635TIP3    H150396   3.800   2.049   5.412  0.3503  1.5293 -0.9739
 9635TIP3    H250397   3.652   2.043   5.445  0.6236  1.2330  0.2742
 9636TIP3   OH250398   4.033   4.998  12.350  0.0102 -0.5828 -0.0920
 9636TIP3    H150399   4.074   5.060  12.290 -0.7721 -0.1090 -0.1508
 9636TIP3    H250400   4.077   5.011  12.434  0.1613 -0.2691 -0.2216
 9637TIP3   OH250401   1.375   2.498  12.701 -0.3616  0.1152 -0.3872
 9637TIP3    H150402   1.399   2.425  12.759 -1.5024 -0.4023 -0.5212
 9637TIP3    H250403   1.343   2.566  12.761 -0.2337  0.1123 -0.3165
 9638TIP3   OH250404   4.256   2.386  15.642  0.2190  0.7384 -0.1543
 9638TIP3    H150405   4.334   2.372  15.694  0.3191 -1.1139 -0.7140
 9638TIP3    H250406   4.210   2.458  15.685  0.3396 -0.6099  2.4292
 9639TIP3   OH250407   1.553   3.301  12.347  0.6274  0.4109 -0.0586
 9639TIP3    H150408   1.458   3.290  12.344  0.7565 -0.8305  0.0879
 9639TIP3    H250409   1.566   3.391  12.376 -0.5077  0.9204 -1.0779
 9640TIP3   OH250410   4.496   5.841   4.017 -0.4435  0.5226 -0.1418
 9640TIP3    H150411   4.432   5.770   4.021 -0.1032  0.2814  1.4705
 9640TIP3    H250412   4.557   5.815   3.948 -1.7293  0.4926 -1.3265
 9641TIP3   OH250413   3.750   0.106  10.583 -0.4434 -0.2577  0.6582
 9641TIP3    H150414   3.699   0.136  10.658 -0.2090  1.4056  0.1718
 9641TIP3    H250415   3.687   0.099  10.512 -0.1398  1.2306  0.2111
 9642TIP3   OH250416   2.997   4.235   0.828 -0.4838 -0.1659  0.4171
 9642TIP3    H150417   3.007   4.178   0.904 -0.1120 -0.8196 -0.1186
 9642TIP3    H250418   2.904   4.228   0.805 -0.4529 -0.5058  0.3930
 9643TIP3   OH250419   4.838   5.501   0.195 -0.5724  0.0583 -0.2593
 9643TIP3    H150420   4.892   5.508   0.116 -0.6964 -2.8153 -0.6937
 9643TIP3    H250421   4.748   5.496   0.162 -0.6946 -0.3045  0.1320
 9644TIP3   OH250422   2.099   5.867   5.927 -0.4606  0.1170  0.2011
 9644TIP3    H150423   2.145   5.890   6.008 -0.9024  0.2831  0.4021
 9644TIP3    H250424   2.103   5.771   5.924 -1.6799  0.0151  1.1492
 9645TIP3   OH250425   0.635   2.075  12.634 -0.0664  0.1856 -0.3553
 9645TIP3    H150426   0.585   2.083  12.552 -0.4696 -0.2702 -0.1608
 9645TIP3    H250427   0.655   1.981  12.640  1.6040  0.4689 -0.8806
 9646TIP3   OH250428   4.111   3.787  12.883  0.3347  0.2693  0.3136
 9646TIP3    H150429   4.066   3.852  12.938 -1.0797  0.9551 -1.5529
 9646TIP3    H250430   4.186   3.835  12.846  0.2149  0.3565  0.1855
 9647TIP3   OH250431   3.098   3.007   2.040  0.1953  0.3852  0.8225
 9647TIP3    H150432   3.107   3.033   2.132  4.1151  0.0511  0.7262
 9647TIP3    H250433   3.166   2.941   2.028 -1.7466 -1.3127 -1.8307
 9648TIP3   OH250434   0.517   2.977  12.667 -0.1493  0.4109  0.6594
 9648TIP3    H150435   0.424   2.996  12.658 -0.1492  0.9350  1.5960
 9648TIP3    H250436   0.520   2.894  12.716 -0.1262  0.2827  0.4401
 9649TIP3   OH250437   2.726   6.193   1.274 -0.3841  0.5338  0.1104
 9649TIP3    H150438   2.731   6.163   1.365 -0.5626 -1.9440 -0.6418
 9649TIP3    H250439   2.804   6.248   1.263  0.2832 -0.1082  1.4185
 9650TIP3   OH250440   0.832   2.243  17.106 -0.4045  0.0164  0.3721
 9650TIP3    H150441   0.793   2.217  17.189  1.3034  0.9031  1.5185
 9650TIP3    H250442   0.793   2.328  17.086 -1.7490 -0.7534 -0.4284
 9651TIP3   OH250443   4.985   0.586   0.752  0.2790  0.0490 -0.0051
 9651TIP3    H150444   4.902   0.604   0.707 -0.3067 -0.7466  0.7290
 9651TIP3    H250445   4.964   0.594   0.845  1.0605 -0.0510  0.1873
 9652TIP3   OH250446   6.062   3.357  14.800 -0.0217 -0.1488 -0.6310
 9652TIP3    H150447   6.056   3.423  14.869  2.5276  0.4837 -0.9326
 9652TIP3    H250448   6.154   3.330  14.800 -0.0752 -0.6032 -3.3375
 9653TIP3   OH250449   4.819   2.120  14.298 -0.2819  0.4093 -0.6328
 9653TIP3    H150450   4.779   2.068  14.229 -1.1595  0.6950 -0.3536
 9653TIP3    H250451   4.783   2.084  14.380  0.8114  0.0161 -0.3108
 9654TIP3   OH250452   3.147   0.947   1.961  0.3011  0.8346  0.3311
 9654TIP3    H150453   3.113   0.957   2.050  0.0627  0.7171  0.2566
 9654TIP3    H250454   3.151   0.852   1.948 -1.8880  0.8087 -0.5987
 9655TIP3   OH250455   2.065   5.229  13.749 -0.1633 -0.1092  0.4080
 9655TIP3    H150456   1.979   5.265  13.729 -0.1493 -1.2576 -2.1544
 9655TIP3    H250457   2.074   5.155  13.688  1.8222 -1.2700  2.0016
 9656TIP3   OH250458   6.082   5.091  17.159 -0.0864 -0.3306  0.1879
 9656TIP3    H150459   6.142   5.164  17.174  0.0293 -0.5049  0.5871
 9656TIP3    H250460   5.996   5.124  17.186 -0.3510  0.2408 -1.2823
 9657TIP3   OH250461   5.183   1.039   2.602 -0.3960 -0.0284  0.5842
 9657TIP3    H150462   5.142   1.105   2.658 -1.1800  0.1052 -0.1173
 9657TIP3    H250463   5.203   1.086   2.521  0.8238 -0.1894  0.7830
 9658TIP3   OH250464   6.759   4.611   3.300  0.0991 -0.5500 -0.5952
 9658TIP3    H150465   6.805   4.644   3.223  0.0208  0.7575 -0.1129
 9658TIP3    H250466   6.739   4.689   3.351  1.3370 -1.4538  1.4373
 9659TIP3   OH250467   2.553   3.453   3.741 -0.0978  0.1237 -0.0859
 9659TIP3    H150468   2.625   3.510   3.769 -0.2974  0.6501 -0.6391
 9659TIP3    H250469   2.596   3.384   3.690 -0.0179  0.6579 -0.7536
 9660TIP3   OH250470   3.237   6.443  10.734 -0.4505  0.1839 -0.2097
 9660TIP3    H150471   3.194   6.365  10.698 -0.0492  0.1351 -0.5846
 9660TIP3    H250472   3.263   6.416  10.823  3.6499 -1.7079 -1.7191
 9661TIP3   OH250473   5.199   5.713   3.108 -0.4012  0.2618 -0.0904
 9661TIP3    H150474   5.252   5.764   3.169 -2.5628  1.7351  0.6929
 9661TIP3    H250475   5.211   5.755   3.024  0.4495 -0.0793 -0.1529
 9662TIP3   OH250476   0.402   0.687   0.267  0.1887  0.6549 -0.3599
 9662TIP3    H150477   0.478   0.630   0.270 -0.8344 -0.8753 -1.7424
 9662TIP3    H250478   0.346   0.657   0.338  0.9784  2.0518  0.9276
 9663TIP3   OH250479   5.385   3.228  17.195  0.3441 -0.3590  0.3267
 9663TIP3    H150480   5.413   3.297  17.134  0.2076 -0.6311 -0.0486
 9663TIP3    H250481   5.369   3.152  17.139 -1.8350 -0.0336  0.4278
 9664TIP3   OH250482   6.175   3.209   5.197 -0.3297  0.3916  0.2452
 9664TIP3    H150483   6.106   3.205   5.130 -0.8729  1.4996  0.7046
 9664TIP3    H250484   6.242   3.266   5.160  1.0970 -1.8210 -0.8105
 9665TIP3   OH250485   1.780   3.317   4.025  0.7056 -0.2986 -0.0289
 9665TIP3    H150486   1.772   3.234   4.072  1.8268 -1.7621 -2.1957
 9665TIP3    H250487   1.691   3.352   4.023 -0.0281 -2.0298  0.0115
 9666TIP3   OH250488   3.562   6.032   4.262  0.4429  0.2057  0.0684
 9666TIP3    H150489   3.616   5.987   4.327  1.1441  1.3493  0.2912
 9666TIP3    H250490   3.472   6.013   4.289  0.6687 -1.8933 -0.4269
 9667TIP3   OH250491   5.464   3.124   3.071  0.1790 -0.3144 -0.2583
 9667TIP3    H150492   5.518   3.200   3.090  0.9666 -0.5661 -1.3727
 9667TIP3    H250493   5.510   3.051   3.113 -0.4841 -0.2149  0.6640
 9668TIP3   OH250494   2.461   3.598  16.207  0.1464 -0.4696 -0.1899
 9668TIP3    H150495   2.458   3.503  16.212 -0.8542 -0.4365  0.0389
 9668TIP3    H250496   2.428   3.628  16.292  1.3633  0.0933  0.1165
 9669TIP3   OH250497   4.982   5.149  16.030  0.3428  0.0674  0.3235
 9669TIP3    H150498   4.915   5.151  16.098  0.7536 -1.9842  0.8569
 9669TIP3    H250499   4.935   5.167  15.949 -0.5220  0.3882  0.8786
 9670TIP3   OH250500   2.924   1.629   3.406  0.1956  0.0552  0.2202
 9670TIP3    H150501   2.864   1.654   3.476  0.3734  0.1802  0.3294
 9670TIP3    H250502   3.005   1.676   3.427 -0.0348  0.8286 -0.5725
 9671TIP3   OH250503   5.428   2.709   5.874 -0.1735 -0.1579  0.2952
 9671TIP3    H150504   5.354   2.649   5.879 -1.0483  0.8773  0.2665
 9671TIP3    H250505   5.477   2.695   5.955 -0.2480 -1.0399  0.1917
 9672TIP3   OH250506   4.665   2.892  11.893  0.3252  0.4741  0.0469
 9672TIP3    H150507   4.749   2.861  11.926  0.4065  0.2041 -0.4100
 9672TIP3    H250508   4.652   2.844  11.812 -0.3650  0.3605  0.2174
 9673TIP3   OH250509   1.487   6.729  13.303  0.6072 -0.4916 -0.1839
 9673TIP3    H150510   1.531   6.716  13.387 -1.0861 -2.3594  0.4911
 9673TIP3    H250511   1.479   6.641  13.266 -1.7817 -0.1563 -0.6304
 9674TIP3   OH250512   0.123   5.025   1.651 -0.0620 -0.2101 -0.1934
 9674TIP3    H150513   0.113   4.950   1.709 -1.3402  0.2188  0.1817
 9674TIP3    H250514   0.053   5.014   1.586 -1.9494  1.9130  1.3244
 9675TIP3   OH250515   0.259   2.532   1.512 -0.1417 -0.5156 -0.3971
 9675TIP3    H150516   0.242   2.604   1.573  1.9131 -0.3771  0.0970
 9675TIP3    H250517   0.175   2.518   1.467 -0.9226  1.3500  0.3635
 9676TIP3   OH250518   5.792   1.883   2.751 -0.5053 -0.1487 -0.8220
 9676TIP3    H150519   5.872   1.871   2.699  0.3852  0.4099  0.3731
 9676TIP3    H250520   5.818   1.942   2.821 -1.2133 -2.1704  1.2507
 9677TIP3   OH250521   0.275   5.296  17.034  0.5044  0.4756  0.1963
 9677TIP3    H150522   0.251   5.224  17.091  0.4116  1.6209  1.6597
 9677TIP3    H250523   0.199   5.308  16.977  0.6341 -0.7397 -0.2584
 9678TIP3   OH250524   1.397   5.040  12.564  0.1688 -0.1136 -0.4188
 9678TIP3    H150525   1.373   5.121  12.519 -0.4723 -1.2850 -2.3092
 9678TIP3    H250526   1.475   5.009  12.518  1.3378  0.1642  1.2841
 9679TIP3   OH250527   3.647   4.804   0.164  0.0867 -0.1291 -0.8972
 9679TIP3    H150528   3.718   4.780   0.224 -0.0565  0.1698 -0.6058
 9679TIP3    H250529   3.599   4.872   0.209  0.7937  1.0937 -1.9219
 9680TIP3   OH250530   3.765   3.594  13.401 -0.5797  0.0241  0.0557
 9680TIP3    H150531   3.802   3.621  13.485  1.0549 -1.9593  0.0508
 9680TIP3    H250532   3.671   3.612  13.410 -0.0869  2.5075  1.1747
 9681TIP3   OH250533   3.893   6.708  14.238 -0.5209  0.5853  0.3597
 9681TIP3    H150534   3.826   6.776  14.235  0.0127  1.0867 -1.7833
 9681TIP3    H250535   3.945   6.721  14.158  1.7484 -0.1813  1.6055
 9682TIP3   OH250536   2.102   3.923  12.932  0.0513  0.2820 -0.2852
 9682TIP3    H150537   2.079   3.831  12.941  0.3109  0.3852  1.9390
 9682TIP3    H250538   2.140   3.929  12.844 -2.6002 -1.0928 -1.6681
 9683TIP3   OH250539   3.841   6.059  12.969  0.8596  0.1344  0.1053
 9683TIP3    H150540   3.864   6.144  12.933 -0.1839 -0.9089 -3.5438
 9683TIP3    H250541   3.910   6.000  12.938  1.5093 -0.4613  2.4741
 9684TIP3   OH250542   1.162   4.993  13.242  0.7882  0.4674  0.0667
 9684TIP3    H150543   1.084   5.049  13.242 -0.0759 -0.6780  1.5290
 9684TIP3    H250544   1.152   4.937  13.166  1.1972  1.6499 -0.8814
 9685TIP3   OH250545   5.535   3.262   2.018 -0.1854 -0.0293  0.3923
 9685TIP3    H150546   5.491   3.185   2.055  1.3078 -0.5324  1.1855
 9685TIP3    H250547   5.579   3.303   2.093  1.4967 -0.1044 -0.5013
 9686TIP3   OH250548   0.210   3.842   1.719  0.6341 -0.1807 -0.4271
 9686TIP3    H150549   0.241   3.855   1.629 -0.1844 -0.3284 -0.7409
 9686TIP3    H250550   0.258   3.907   1.770 -0.3522  1.3177 -1.3008
 9687TIP3   OH250551   5.083   1.374  10.888 -0.3265  0.2821 -0.1965
 9687TIP3    H150552   5.030   1.438  10.840  0.2689 -1.1114 -2.9034
 9687TIP3    H250553   5.074   1.293  10.838 -0.0926 -1.5061  2.4497
 9688TIP3   OH250554   0.297   1.661  10.735 -0.4629  0.1340  0.1796
 9688TIP3    H150555   0.287   1.755  10.752 -0.0958  0.1249  0.4604
 9688TIP3    H250556   0.347   1.657  10.653 -0.2753  0.1859  0.2908
 9689TIP3   OH250557   4.164   5.376  11.922 -0.2433  0.4649 -0.2318
 9689TIP3    H150558   4.151   5.470  11.909 -0.5949  0.1155 -2.9068
 9689TIP3    H250559   4.137   5.336  11.839 -0.3397 -2.0328  0.9176
 9690TIP3   OH250560   1.948   5.670  15.627  0.2025  0.2655 -0.3889
 9690TIP3    H150561   1.957   5.648  15.534 -1.7321 -0.5858 -0.4186
 9690TIP3    H250562   1.924   5.588  15.669 -0.7187  1.0093  0.5751
 9691TIP3   OH250563   3.394   0.470  14.159  0.6543 -0.1808 -0.0737
 9691TIP3    H150564   3.420   0.382  14.186 -0.6502 -0.1543  1.3979
 9691TIP3    H250565   3.428   0.479  14.070  2.7377 -1.3253  0.5534
 9692TIP3   OH250566   2.486   6.780  16.136  0.6671  0.1579  0.1191
 9692TIP3    H150567   2.456   6.787  16.227  0.9713  1.5423  0.1384
 9692TIP3    H250568   2.407   6.792  16.084  0.5708 -0.1439  0.1925
 9693TIP3   OH250569   3.453   6.448  16.745  0.0964  0.3867  0.2387
 9693TIP3    H150570   3.383   6.493  16.791  1.8116  0.3685  3.1580
 9693TIP3    H250571   3.479   6.508  16.675 -1.1872  1.4765  0.6678
 9694TIP3   OH250572   1.423   6.814  14.545 -0.3893 -0.6456 -0.2703
 9694TIP3    H150573   1.397   6.744  14.606 -0.5047  0.5284  1.0752
 9694TIP3    H250574   1.518   6.805  14.538 -0.5846 -2.1206 -1.6476
 9695TIP3   OH250575   2.806   1.526   1.979 -0.3200 -0.5340 -0.2298
 9695TIP3    H150576   2.766   1.572   1.905  0.0830  1.4379  0.7173
 9695TIP3    H250577   2.771   1.437   1.973 -1.6225  0.0184 -1.7835
 9696TIP3   OH250578   2.091   1.239   5.402  0.1322  0.7746 -0.5490
 9696TIP3    H150579   2.094   1.230   5.307 -1.7646 -0.7667 -0.5198
 9696TIP3    H250580   2.182   1.251   5.428  1.2510 -2.7862 -2.2281
 9697TIP3   OH250581   0.409   4.876   1.018 -0.0165 -0.2669 -0.9236
 9697TIP3    H150582   0.451   4.798   0.984  0.9734  0.0946 -0.5660
 9697TIP3    H250583   0.451   4.891   1.103  0.6974  1.3134 -1.5056
 9698TIP3   OH250584   3.488   0.920   4.448  0.0580 -0.2473  0.2983
 9698TIP3    H150585   3.408   0.971   4.465  0.5039  1.2276 -1.6747
 9698TIP3    H250586   3.515   0.889   4.534 -1.3391  1.2100  1.3231
 9699TIP3   OH250587   4.719   0.164  11.503  0.3196  0.0279 -0.2902
 9699TIP3    H150588   4.778   0.091  11.484 -0.0139  0.0401 -1.4710
 9699TIP3    H250589   4.724   0.220  11.425  1.3597  1.8354  0.9880
 9700TIP3   OH250590   0.003   1.029   2.089 -0.3225 -0.4808  0.2280
 9700TIP3    H150591  -0.090   1.009   2.087 -0.6853  1.0982  0.2433
 9700TIP3    H250592   0.019   1.063   2.177 -0.3762  1.9505 -0.6163
 9701TIP3   OH250593   4.105   1.183  14.608 -0.1218 -0.9495  0.3954
 9701TIP3    H150594   4.080   1.136  14.529  1.7656 -0.6566 -0.4287
 9701TIP3    H250595   4.196   1.156  14.624  0.5897  1.4105  0.6397
 9702TIP3   OH250596   0.134   0.169  12.078 -0.0669 -0.2193 -0.2420
 9702TIP3    H150597   0.141   0.074  12.070  0.0711 -0.2309 -0.0168
 9702TIP3    H250598   0.118   0.200  11.989  3.0773 -0.1842 -0.9157
 9703TIP3   OH250599   5.039   1.105  16.815 -0.1653 -0.1682 -0.7098
 9703TIP3    H150600   5.114   1.150  16.855 -1.8980  1.0367  1.3939
 9703TIP3    H250601   5.066   1.090  16.724  2.7975 -0.2944  0.0930
 9704TIP3   OH250602   3.715   5.042   0.473  0.2494  0.0959 -0.3703
 9704TIP3    H150603   3.736   5.135   0.469  1.2354 -0.0960  0.0170
 9704TIP3    H250604   3.783   5.000   0.421  0.0502 -0.4472 -0.2036
 9705TIP3   OH250605   3.804   1.478  10.301  0.4123  0.4266  0.3341
 9705TIP3    H150606   3.869   1.483  10.230  0.4248  1.7660  0.4009
 9705TIP3    H250607   3.790   1.385  10.314 -0.1508  0.1162 -1.9541
 9706TIP3   OH250608   6.709   2.590  12.093  0.2114  0.1769  0.1467
 9706TIP3    H150609   6.804   2.577  12.096  0.0233 -1.2099  1.0330
 9706TIP3    H250610   6.688   2.633  12.175  0.1913  1.6424 -0.5888
 9707TIP3   OH250611   0.064   2.311  14.261 -0.3492  0.1072 -0.1877
 9707TIP3    H150612  -0.025   2.285  14.286 -0.6734  2.3039  1.1683
 9707TIP3    H250613   0.068   2.405  14.281  2.5437 -0.1014  0.5573
 9708TIP3   OH250614   5.456   0.411  11.167  0.5749 -0.0371 -0.6410
 9708TIP3    H150615   5.415   0.326  11.150 -2.2230  0.5899  2.1110
 9708TIP3    H250616   5.535   0.390  11.217  0.4293 -1.0317 -0.8010
 9709TIP3   OH250617   0.200   4.005   6.728  0.3287  0.0631 -0.6386
 9709TIP3    H150618   0.109   4.025   6.746 -0.3269 -1.5506 -1.8639
 9709TIP3    H250619   0.249   4.051   6.796 -1.2075  2.7428 -1.2330
 9710TIP3   OH250620   2.069   4.542  13.028  0.6723  0.7048  0.6987
 9710TIP3    H150621   2.047   4.457  13.067 -0.3800  0.4737 -0.3531
 9710TIP3    H250622   2.160   4.532  13.000  0.2661 -0.4585 -0.3295
 9711TIP3   OH250623   0.270   0.257  13.663  0.1805 -0.1434  0.2997
 9711TIP3    H150624   0.306   0.169  13.672  0.7059 -0.0835 -1.0841
 9711TIP3    H250625   0.308   0.306  13.736  1.5520 -0.5286 -0.1252
 9712TIP3   OH250626   4.807   5.383  16.803 -0.3584  0.1808  0.4955
 9712TIP3    H150627   4.754   5.322  16.854 -1.2440  1.2320  0.8756
 9712TIP3    H250628   4.897   5.367  16.832 -0.7541  0.1482  1.7545
 9713TIP3   OH250629   6.379   5.629   0.125  0.2567 -0.3019 -0.2474
 9713TIP3    H150630   6.390   5.552   0.070 -2.1861  0.1349 -1.4846
 9713TIP3    H250631   6.469   5.657   0.145  1.2525 -1.4306 -2.6604
 9714TIP3   OH250632   4.241   4.723  16.157  0.3198  0.7729 -0.3264
 9714TIP3    H150633   4.201   4.807  16.137  1.6583  1.3748 -0.5799
 9714TIP3    H250634   4.333   4.743  16.174 -0.0811 -0.0607  3.7552
 9715TIP3   OH250635   3.799   0.908   3.357  0.0284  0.0454  0.1678
 9715TIP3    H150636   3.816   0.997   3.389  2.1717 -0.7484  1.4009
 9715TIP3    H250637   3.723   0.918   3.299 -1.6390  2.2111  2.5025
 9716TIP3   OH250638   1.842   3.839  11.097 -0.0423 -0.7299  0.5225
 9716TIP3    H150639   1.872   3.840  11.187  0.6088  0.3546  0.3128
 9716TIP3    H250640   1.747   3.849  11.103  0.1067  0.5836  1.0727
 9717TIP3   OH250641   5.764   5.366   5.316 -0.6654 -0.3074  0.0566
 9717TIP3    H150642   5.702   5.403   5.254  0.4909  0.8275 -0.4665
 9717TIP3    H250643   5.710   5.326   5.384 -1.9526  1.0477 -0.1415
 9718TIP3   OH250644   5.599   3.061   4.499  0.0061  0.1481  0.0688
 9718TIP3    H150645   5.641   3.093   4.579  0.2681  0.0264 -0.0184
 9718TIP3    H250646   5.557   3.138   4.462 -1.4686 -0.1092  1.1404
 9719TIP3   OH250647   5.194   5.794   4.951  0.3144 -0.0363 -0.0097
 9719TIP3    H150648   5.257   5.864   4.965 -1.6350  1.4111  2.3209
 9719TIP3    H250649   5.236   5.736   4.888  4.0318  0.6877  1.5474
 9720TIP3   OH250650   0.380   0.076   5.898 -0.4534 -0.3889  0.4337
 9720TIP3    H150651   0.398   0.080   5.804  1.8119  1.7260  0.8693
 9720TIP3    H250652   0.453   0.122   5.939 -1.5252 -0.9722  3.2539
 9721TIP3   OH250653   0.107   2.566  14.323  0.2700  0.3154 -0.4317
 9721TIP3    H150654   0.078   2.598  14.408 -0.0858  0.2052 -0.5094
 9721TIP3    H250655   0.102   2.642  14.265  0.4110  0.3655 -0.3764
 9722TIP3   OH250656   6.033   6.323  13.250 -0.6055  0.3346 -0.5149
 9722TIP3    H150657   6.063   6.264  13.319  1.0888 -0.1469 -1.5952
 9722TIP3    H250658   6.062   6.410  13.279 -0.3878  0.2113 -0.3574
 9723TIP3   OH250659   4.289   4.793   2.363  0.1382  0.5844  0.2303
 9723TIP3    H150660   4.332   4.865   2.409  1.2407  0.1278 -0.0496
 9723TIP3    H250661   4.303   4.717   2.420  1.8133 -0.0563 -0.9484
 9724TIP3   OH250662   3.732   0.618  17.043  0.5813 -0.3631 -0.2880
 9724TIP3    H150663   3.824   0.643  17.058  0.4868 -0.1755 -0.0151
 9724TIP3    H250664   3.682   0.696  17.066  0.3243 -0.6019 -0.0283
 9725TIP3   OH250665   6.392   0.648   3.026 -0.1821 -0.0932 -0.7475
 9725TIP3    H150666   6.410   0.572   2.971  0.3233 -1.1254  0.7693
 9725TIP3    H250667   6.472   0.699   3.022  0.2858 -0.7553 -0.0793
 9726TIP3   OH250668   0.826   0.961  17.045 -0.1616  0.1430 -0.1104
 9726TIP3    H150669   0.894   1.026  17.026  2.0306 -2.2027 -0.7643
 9726TIP3    H250670   0.868   0.899  17.105 -2.2047 -0.6904  0.5488
 9727TIP3   OH250671   2.078   1.198   5.999  0.0093  0.2367  0.2957
 9727TIP3    H150672   2.055   1.254   5.925  0.7545  0.5661  0.3124
 9727TIP3    H250673   2.148   1.245   6.044  0.8783 -0.8699  0.1196
 9728TIP3   OH250674   5.639   1.372   2.315  0.1982 -0.0427  0.2703
 9728TIP3    H150675   5.564   1.415   2.356  0.5844  1.2577 -0.3269
 9728TIP3    H250676   5.701   1.443   2.299  1.4324 -1.0450  0.4646
 9729TIP3   OH250677   1.597   1.543   3.850 -0.6945 -0.2591 -0.3847
 9729TIP3    H150678   1.582   1.477   3.917 -0.8073 -0.8656 -0.9920
 9729TIP3    H250679   1.510   1.562   3.815 -0.7108  0.5020  0.0457
 9730TIP3   OH250680   1.999   3.625   1.169 -0.2152 -0.4188 -0.1755
 9730TIP3    H150681   2.072   3.563   1.171 -1.0780 -1.4607  0.6343
 9730TIP3    H250682   2.017   3.686   1.240  0.2447 -0.2219 -0.4619
 9731TIP3   OH250683   2.313   5.328  16.128 -0.7038  0.5751 -0.2261
 9731TIP3    H150684   2.338   5.392  16.194 -1.4640 -0.9416  1.6536
 9731TIP3    H250685   2.386   5.266  16.127 -2.2880 -1.5626  2.2164
 9732TIP3   OH250686   0.545   5.574  11.862 -0.3923 -0.1789  0.5638
 9732TIP3    H150687   0.530   5.483  11.886 -1.6317 -0.2192 -0.3226
 9732TIP3    H250688   0.502   5.625  11.932 -3.2765 -0.3017 -0.9700
 9733TIP3   OH250689   1.453   3.425  14.408 -0.7098 -0.2353  0.7208
 9733TIP3    H150690   1.358   3.440  14.403 -0.2009  3.2660 -0.7160
 9733TIP3    H250691   1.475   3.387  14.323 -0.5824  0.5998  0.3814
 9734TIP3   OH250692   5.450   6.773  13.112  0.6289 -0.3278  0.0695
 9734TIP3    H150693   5.425   6.695  13.162 -1.3678  0.5414  0.5167
 9734TIP3    H250694   5.485   6.738  13.029 -2.2706 -1.7409 -0.6922
 9735TIP3   OH250695   3.380   1.791   4.787  0.4558 -0.4063 -0.5458
 9735TIP3    H150696   3.396   1.851   4.715 -1.1488  1.6697  0.7218
 9735TIP3    H250697   3.447   1.812   4.852 -0.4852  0.4808  0.1554
 9736TIP3   OH250698   5.822   5.034   6.064 -0.2995  0.6021 -0.7058
 9736TIP3    H150699   5.734   5.050   6.029 -0.8027 -0.1054  0.1758
 9736TIP3    H250700   5.813   4.954   6.115  0.1123  2.0893  1.9040
 9737TIP3   OH250701   1.147   0.250   1.879 -0.5908 -0.1618 -0.3226
 9737TIP3    H150702   1.171   0.217   1.966 -0.6046 -0.5890 -0.4838
 9737TIP3    H250703   1.056   0.278   1.889  0.5873  3.9046  1.0407
 9738TIP3   OH250704   1.691   4.198  16.977 -0.2330  0.2247  0.6809
 9738TIP3    H150705   1.648   4.274  17.014  0.6807  0.3510  1.5306
 9738TIP3    H250706   1.624   4.129  16.976 -1.3250  1.2386 -0.9106
 9739TIP3   OH250707   3.822   0.555   1.595  0.0348  0.2169 -0.2403
 9739TIP3    H150708   3.805   0.616   1.522  0.3320 -0.8960 -1.2661
 9739TIP3    H250709   3.895   0.595   1.642 -0.2747  1.0435 -0.4292
 9740TIP3   OH250710   6.307   4.401   4.180 -0.3596  0.0521  0.9096
 9740TIP3    H150711   6.363   4.419   4.256  1.7958  1.4709 -0.8926
 9740TIP3    H250712   6.367   4.367   4.114 -1.9951 -0.2016 -0.5145
 9741TIP3   OH250713   1.400   1.004  15.860 -0.3740 -0.2872  0.6998
 9741TIP3    H150714   1.342   0.991  15.785 -0.9040 -0.9705  1.1988
 9741TIP3    H250715   1.403   1.099  15.873 -2.4056 -0.2520  1.3945
 9742TIP3   OH250716   1.363   1.709   3.352 -0.3040  0.1187  0.5453
 9742TIP3    H150717   1.441   1.714   3.406  1.2611 -0.7632 -1.5060
 9742TIP3    H250718   1.349   1.615   3.339 -0.3951  0.2993 -0.8505
 9743TIP3   OH250719   3.522   5.924  15.823  0.4383  0.0603 -0.0218
 9743TIP3    H150720   3.493   6.007  15.786 -2.3855 -0.5226  0.6984
 9743TIP3    H250721   3.602   5.903  15.774 -0.6191  1.5287 -2.5846
 9744TIP3   OH250722   0.346   0.852   1.209 -0.8662  0.1081  0.0574
 9744TIP3    H150723   0.325   0.794   1.283 -1.2730 -1.6594 -1.3769
 9744TIP3    H250724   0.430   0.819   1.177 -1.8557 -0.8017 -1.7645
 9745TIP3   OH250725   5.971   3.603   2.551  0.1949 -0.1140  0.2375
 9745TIP3    H150726   5.931   3.655   2.481  1.3618 -1.2842 -1.3555
 9745TIP3    H250727   5.927   3.633   2.630 -0.8278  1.6129 -0.9110
 9746TIP3   OH250728   3.306   3.738  15.030  0.3278 -0.1261  0.2073
 9746TIP3    H150729   3.322   3.790  14.951  0.8754  1.2276  1.1838
 9746TIP3    H250730   3.218   3.701  15.017 -0.1239  1.1299 -0.4757
 9747TIP3   OH250731   0.994   6.574   1.256  0.3979 -0.0265 -0.7313
 9747TIP3    H150732   1.042   6.651   1.224  0.9236 -0.3351 -0.6977
 9747TIP3    H250733   1.050   6.500   1.235 -0.0902 -0.4022 -0.7302
 9748TIP3   OH250734   3.440   4.131   5.436 -0.4660  0.1614 -0.6640
 9748TIP3    H150735   3.532   4.120   5.459 -0.1994 -0.3181 -1.8578
 9748TIP3    H250736   3.392   4.078   5.501  0.1066  0.3046 -0.1234
 9749TIP3   OH250737   5.382   3.326   0.349  0.1389 -0.8462  0.3575
 9749TIP3    H150738   5.448   3.334   0.418  0.8289 -0.1917 -0.3698
 9749TIP3    H250739   5.357   3.416   0.328 -2.1280 -1.0906  1.6609
 9750TIP3   OH250740   6.785   0.765  15.425  0.2097 -0.1947  0.1186
 9750TIP3    H150741   6.822   0.737  15.509  1.8612 -0.4490 -0.6659
 9750TIP3    H250742   6.775   0.860  15.434  0.2786 -0.2308  0.6344
 9751TIP3   OH250743   5.208   1.705   5.333 -0.0389  0.1471 -0.3973
 9751TIP3    H150744   5.131   1.695   5.277  1.6455 -1.5063 -2.6035
 9751TIP3    H250745   5.279   1.724   5.272  1.2773  2.2747  1.6076
 9752TIP3   OH250746   3.687   2.279  13.233 -0.2873 -0.2009 -0.0283
 9752TIP3    H150747   3.632   2.321  13.299  0.7996  1.2168  0.0296
 9752TIP3    H250748   3.626   2.249  13.166 -1.1542  1.3491  0.0195
 9753TIP3   OH250749   6.477   2.747  12.990  0.4155  0.6680 -0.7386
 9753TIP3    H150750   6.533   2.669  12.987  0.8570  0.9889 -0.8236
 9753TIP3    H250751   6.395   2.716  13.030  1.3132  0.5935  1.1534
 9754TIP3   OH250752   2.365   5.048  11.299  0.1263  0.1387 -0.3307
 9754TIP3    H150753   2.326   5.103  11.231  2.4555  1.2509 -0.8728
 9754TIP3    H250754   2.355   5.099  11.380 -0.8414 -0.2701 -0.1801
 9755TIP3   OH250755   0.539   2.829  10.582  0.1309  0.9919  0.4523
 9755TIP3    H150756   0.574   2.794  10.500  2.8360  1.9915  1.0763
 9755TIP3    H250757   0.488   2.906  10.555 -0.7017  0.1581 -0.4182
 9756TIP3   OH250758   0.666   0.923   2.082  0.2045 -0.2013 -0.1406
 9756TIP3    H150759   0.616   0.879   2.013  2.3018  0.1191 -1.9690
 9756TIP3    H250760   0.738   0.863   2.101  1.6645  1.2699 -0.8470
 9757TIP3   OH250761   5.521   3.224  14.706 -0.1153  0.4719 -0.0659
 9757TIP3    H150762   5.502   3.145  14.758 -0.1333  0.9654  0.6885
 9757TIP3    H250763   5.504   3.197  14.616  1.5940 -0.9270 -0.0248
 9758TIP3   OH250764   4.362   4.857   1.274  0.0288 -0.8173  0.0179
 9758TIP3    H150765   4.337   4.943   1.239  1.0544 -0.6319 -0.2809
 9758TIP3    H250766   4.347   4.796   1.201  0.1463 -0.7531 -0.0605
 9759TIP3   OH250767   0.053   1.784  11.498  0.6758  0.2506 -0.0243
 9759TIP3    H150768   0.048   1.845  11.571  0.5244  0.0735  0.1135
 9759TIP3    H250769  -0.038   1.770  11.472  0.6996 -0.0406  0.0470
 9760TIP3   OH250770   3.002   4.816   3.342 -0.2336 -0.7510 -0.3633
 9760TIP3    H150771   2.938   4.824   3.412  0.5702 -1.1156  0.4275
 9760TIP3    H250772   3.018   4.722   3.333  1.6182 -0.5981  0.8003
 9761TIP3   OH250773   0.003   4.097   4.487 -0.2076  0.4196 -0.0097
 9761TIP3    H150774  -0.056   4.171   4.473 -0.1522  0.9887  2.3333
 9761TIP3    H250775   0.081   4.136   4.526 -0.1856 -0.8667  1.2935
 9762TIP3   OH250776   0.939   4.079   2.400  0.1853  0.5070  0.2270
 9762TIP3    H150777   1.019   4.043   2.362  0.4598  0.4358  0.8499
 9762TIP3    H250778   0.970   4.142   2.466 -0.2633  0.3403  0.6048
 9763TIP3   OH250779   0.600   6.248  14.833  0.2159  0.7854  0.7965
 9763TIP3    H150780   0.613   6.304  14.757 -0.3607 -1.1985 -0.8441
 9763TIP3    H250781   0.517   6.278  14.871  0.6454  1.9679  0.8375
 9764TIP3   OH250782   3.120   5.778  15.108 -0.5912 -0.1355  0.2038
 9764TIP3    H150783   3.191   5.815  15.056 -1.9447  1.6769 -0.4632
 9764TIP3    H250784   3.123   5.826  15.191 -0.0308 -1.2250  0.8338
 9765TIP3   OH250785   5.858   5.843  11.367  0.0221  0.6601 -0.2412
 9765TIP3    H150786   5.779   5.799  11.399  0.8827 -0.8661 -0.1499
 9765TIP3    H250787   5.919   5.837  11.440  0.6459  0.7506 -0.7530
 9766TIP3   OH250788   1.445   3.396   4.692  0.0130 -0.5677  0.3248
 9766TIP3    H150789   1.537   3.389   4.666 -0.7007  0.7905 -3.0093
 9766TIP3    H250790   1.398   3.338   4.632 -1.8096  3.0912 -2.1595
 9767TIP3   OH250791   2.812   6.806   3.822 -0.3166 -0.1933  0.0292
 9767TIP3    H150792   2.859   6.858   3.887 -0.2178 -0.7680  0.4313
 9767TIP3    H250793   2.852   6.829   3.738  0.3567 -0.3163  0.3084
 9768TIP3   OH250794   2.828   6.041   5.195  0.3808  0.0879  0.5418
 9768TIP3    H150795   2.849   5.969   5.136  0.1133 -0.2914  0.9033
 9768TIP3    H250796   2.733   6.047   5.194  0.4446  1.4640 -0.6884
 9769TIP3   OH250797   0.428   5.855  12.391 -0.3129  0.3126 -0.0762
 9769TIP3    H150798   0.358   5.916  12.417 -0.7500  0.9835 -2.5603
 9769TIP3    H250799   0.390   5.803  12.321  0.3119 -2.4099  1.4810
 9770TIP3   OH250800   1.202   0.642  12.909  0.6935  0.4261 -0.2523
 9770TIP3    H150801   1.285   0.672  12.873  1.5482 -1.0453  0.3948
 9770TIP3    H250802   1.163   0.589  12.840  0.5024  0.7462 -0.3916
 9771TIP3   OH250803   3.779   2.682   0.835  0.0486 -0.0690  0.3185
 9771TIP3    H150804   3.823   2.679   0.750 -0.2266  1.8256  0.0581
 9771TIP3    H250805   3.838   2.634   0.893  0.5390 -0.8810 -0.8093
 9772TIP3   OH250806   3.815   4.116   6.253 -0.1306  0.7379  0.2459
 9772TIP3    H150807   3.859   4.186   6.301 -0.6684  1.6626 -0.5643
 9772TIP3    H250808   3.873   4.040   6.263  0.9033  1.5228  0.4452
 9773TIP3   OH250809   1.516   5.834  16.407 -0.3858 -0.4699 -0.4816
 9773TIP3    H150810   1.482   5.863  16.491  1.0398 -0.0466 -0.0144
 9773TIP3    H250811   1.555   5.912  16.368 -0.2487 -0.8545 -1.1325
 9774TIP3   OH250812   5.953   4.703   3.165  0.2588 -0.1868 -0.2955
 9774TIP3    H150813   5.887   4.749   3.115 -0.1945 -0.5734 -0.0585
 9774TIP3    H250814   6.009   4.661   3.100 -0.7146 -1.2348 -0.4795
 9775TIP3   OH250815   3.962   5.832   4.968  0.1828  0.3473  1.1188
 9775TIP3    H150816   3.872   5.854   4.991 -0.4313 -0.0086 -0.7680
 9775TIP3    H250817   3.960   5.816   4.874  1.9085 -1.1974  1.2784
 9776TIP3   OH250818   4.000   4.317  17.243 -0.8433 -0.6488 -0.5697
 9776TIP3    H150819   4.087   4.316  17.203 -0.0945 -0.8252  1.0113
 9776TIP3    H250820   4.006   4.380  17.314 -2.5966  0.7924 -1.5921
 9777TIP3   OH250821   4.507   6.166   0.341  0.6360 -0.0629  0.5166
 9777TIP3    H150822   4.414   6.184   0.357  0.0178 -2.6229  0.2558
 9777TIP3    H250823   4.519   6.179   0.247  1.1698  2.4900  0.8610
 9778TIP3   OH250824   6.446   1.604   1.242 -0.2465 -0.6391  0.2120
 9778TIP3    H150825   6.465   1.510   1.249 -1.2913 -0.7843  1.3540
 9778TIP3    H250826   6.408   1.628   1.326 -0.1782  0.7764 -0.1343
 9779TIP3   OH250827   5.330   0.466  12.213 -0.1957 -0.4551 -0.6474
 9779TIP3    H150828   5.348   0.374  12.234 -0.8355 -0.3251  0.5714
 9779TIP3    H250829   5.380   0.516  12.277 -1.3990 -0.0056 -0.0293
 9780TIP3   OH250830   2.178   2.807  13.331  0.5375  0.3703 -0.0642
 9780TIP3    H150831   2.183   2.879  13.394  0.6188 -0.7457  1.2445
 9780TIP3    H250832   2.126   2.843  13.259 -2.0164  0.8756  1.8449
 9781TIP3   OH250833   2.618   3.591   2.943 -0.8497 -0.3346  0.7676
 9781TIP3    H150834   2.610   3.609   3.037  0.4197  1.2191  0.6359
 9781TIP3    H250835   2.647   3.675   2.906 -0.8546 -1.0578 -0.9455
 9782TIP3   OH250836   0.993   5.739   1.882 -0.2966  0.0114 -0.1250
 9782TIP3    H150837   0.979   5.734   1.977  0.2812 -0.9687 -0.0759
 9782TIP3    H250838   0.946   5.818   1.855  1.5438  1.7235  1.3460
 9783TIP3   OH250839   0.438   4.209  11.142 -0.3244 -0.5165 -0.0777
 9783TIP3    H150840   0.408   4.297  11.119  0.2849 -0.4498 -0.6590
 9783TIP3    H250841   0.415   4.155  11.066 -0.1609 -0.7334  0.0251
 9784TIP3   OH250842   4.170   2.435  11.242  0.0903  0.2816  0.0072
 9784TIP3    H150843   4.122   2.432  11.324  0.0448 -0.0631 -0.0337
 9784TIP3    H250844   4.117   2.383  11.181  0.5839 -0.2110 -0.0029
 9785TIP3   OH250845   4.335   3.941   5.766 -0.4680 -0.1220 -0.4559
 9785TIP3    H150846   4.370   3.901   5.687 -0.0805  0.6422 -0.6745
 9785TIP3    H250847   4.347   3.874   5.834  0.8383 -0.1222 -0.6632
 9786TIP3   OH250848   3.257   4.771   1.244  0.0183 -0.2390 -0.2458
 9786TIP3    H150849   3.309   4.774   1.324 -0.6628  1.0737  0.1706
 9786TIP3    H250850   3.318   4.795   1.174  0.0114  1.2820  0.2360
 9787TIP3   OH250851   6.158   3.613   3.980  0.5849  0.1415  0.0162
 9787TIP3    H150852   6.212   3.655   4.047  0.3462  2.7650 -1.2929
 9787TIP3    H250853   6.134   3.529   4.017  2.6368  0.3748  2.1036
 9788TIP3   OH250854   2.078   4.604  17.068  0.2245 -0.1392  0.4933
 9788TIP3    H150855   2.002   4.624  17.014 -0.2438 -2.4900  0.1672
 9788TIP3    H250856   2.129   4.685  17.069 -1.6961  1.1462 -0.2230
 9789TIP3   OH250857   5.980   2.512  15.146 -0.4758  0.5096 -0.8056
 9789TIP3    H150858   5.964   2.417  15.140  0.2013  0.2331  1.1522
 9789TIP3    H250859   6.059   2.520  15.199 -2.1809  2.2188  1.7139
 9790TIP3   OH250860   2.954   5.661  12.015 -0.5889 -0.4990  0.6462
 9790TIP3    H150861   2.999   5.743  12.038  0.3412 -0.6688 -0.4985
 9790TIP3    H250862   2.900   5.642  12.092 -0.1149  0.6975  1.3132
 9791TIP3   OH250863   3.352   3.248   1.133  0.0997 -0.1160 -0.2236
 9791TIP3    H150864   3.423   3.296   1.177  0.0024  0.2873 -0.5006
 9791TIP3    H250865   3.311   3.313   1.077  0.8192 -0.8337 -1.6443
 9792TIP3   OH250866   1.032   0.934  10.106 -0.2876  0.1206 -0.4574
 9792TIP3    H150867   1.028   1.029  10.098  0.7834  0.0341 -2.6840
 9792TIP3    H250868   1.058   0.919  10.196  2.1879  2.0572 -0.7366
 9793TIP3   OH250869   1.623   5.817   5.189  0.0667 -0.0467  0.2788
 9793TIP3    H150870   1.676   5.821   5.268  1.6894  1.9147 -0.8276
 9793TIP3    H250871   1.653   5.739   5.143 -0.0839 -0.5623  1.0531
 9794TIP3   OH250872   5.350   6.576  17.111  0.0441 -0.7093 -0.4150
 9794TIP3    H150873   5.384   6.570  17.200 -1.7689 -0.1867  0.3749
 9794TIP3    H250874   5.307   6.662  17.108  0.4737 -0.5249 -1.9464
 9795TIP3   OH250875   0.703   2.113  12.908 -0.1037 -0.0781  0.3269
 9795TIP3    H150876   0.775   2.167  12.875  1.9057 -1.0653  2.7917
 9795TIP3    H250877   0.716   2.028  12.865 -0.2923 -0.0360  0.1837
 9796TIP3   OH250878   5.046   3.557   3.297  0.2890 -0.5106  0.1587
 9796TIP3    H150879   4.978   3.575   3.362  0.5863 -1.0192  0.6218
 9796TIP3    H250880   5.086   3.642   3.281 -0.7722 -0.1149 -0.4909
 9797TIP3   OH250881   4.222   1.492   0.950  0.3071  0.2220 -0.0186
 9797TIP3    H150882   4.264   1.425   0.896 -1.4281  0.5385 -1.8604
 9797TIP3    H250883   4.195   1.560   0.888  0.3642  1.7773  1.5661
 9798TIP3   OH250884   4.620   1.351  15.712  0.0287  0.2202  0.7182
 9798TIP3    H150885   4.669   1.408  15.771  0.3822  1.8177 -0.9898
 9798TIP3    H250886   4.659   1.367  15.626 -3.2938  1.5093 -0.7449
 9799TIP3   OH250887   1.642   5.272   3.013  0.3604 -0.0789 -0.0466
 9799TIP3    H150888   1.585   5.223   2.954  0.1641  1.4729 -1.1943
 9799TIP3    H250889   1.616   5.363   3.001  1.5566  0.4374  1.1088
 9800TIP3   OH250890   3.831   6.533   5.582  0.2340 -0.7036 -0.3264
 9800TIP3    H150891   3.742   6.506   5.562 -0.5678 -0.1901  2.1569
 9800TIP3    H250892   3.826   6.629   5.589  1.4552 -0.4660 -2.1057
 9801TIP3   OH250893   1.726   6.425  16.184  0.4406  0.0532 -0.0597
 9801TIP3    H150894   1.750   6.334  16.163  1.4792  0.5231 -1.0377
 9801TIP3    H250895   1.752   6.474  16.107 -1.5037  1.0030 -0.1663
 9802TIP3   OH250896   4.398   4.035   4.363  0.4662  0.9262  0.5967
 9802TIP3    H150897   4.340   4.020   4.438 -1.0059  0.9130 -0.5116
 9802TIP3    H250898   4.466   4.094   4.397 -0.1491  0.8963  1.9413
 9803TIP3   OH250899   6.221   3.469  15.847 -0.6469  0.4625  0.0472
 9803TIP3    H150900   6.199   3.521  15.924  0.3110 -1.6556  1.8744
 9803TIP3    H250901   6.314   3.486  15.832 -0.5918  0.1256 -0.0135
 9804TIP3   OH250902   2.676   2.876   5.051 -0.5419  0.0699 -0.2716
 9804TIP3    H150903   2.689   2.834   4.966 -0.8914 -0.8906  0.1347
 9804TIP3    H250904   2.759   2.863   5.097 -0.6982 -0.3228 -0.0926
 9805TIP3   OH250905   3.279   1.196   1.080  0.2307 -0.2016  0.2855
 9805TIP3    H150906   3.272   1.289   1.060  2.6409 -0.1842 -0.8491
 9805TIP3    H250907   3.298   1.155   0.995 -0.2373 -1.6516  0.8567
 9806TIP3   OH250908   2.981   6.786   5.043 -0.2253  0.2638  1.1154
 9806TIP3    H150909   2.936   6.702   5.038  0.2851 -0.1139  2.4618
 9806TIP3    H250910   2.929   6.837   5.105  0.2103  0.4364  1.3482
 9807TIP3   OH250911   2.346   2.326   1.577  0.0785 -0.2723  0.1284
 9807TIP3    H150912   2.375   2.389   1.510  0.3531 -0.1495  0.3634
 9807TIP3    H250913   2.427   2.288   1.611 -0.0919 -0.9687 -0.2136
 9808TIP3   OH250914   6.425   4.642   0.451 -0.2537  0.0709  0.2113
 9808TIP3    H150915   6.480   4.694   0.392 -0.2192 -1.1817 -0.9180
 9808TIP3    H250916   6.343   4.630   0.402 -0.2382 -0.9506  0.4095
 9809TIP3   OH250917   1.953   0.113  11.518  0.2978 -0.0383 -0.3435
 9809TIP3    H150918   1.979   0.060  11.443 -1.2414  0.3013 -1.1582
 9809TIP3    H250919   1.994   0.198  11.503  1.9022 -0.6289  0.4310
 9810TIP3   OH250920   5.877   0.165   6.269 -0.5056  0.4996  0.7328
 9810TIP3    H150921   5.929   0.148   6.347 -2.1656  0.7393  1.9471
 9810TIP3    H250922   5.918   0.242   6.229  1.0757 -0.3344  0.6712
 9811TIP3   OH250923   2.299   5.455   5.387 -0.3069 -0.1383  0.4014
 9811TIP3    H150924   2.297   5.376   5.440 -2.4427 -0.8804 -0.6985
 9811TIP3    H250925   2.248   5.519   5.436 -3.2851 -1.1718 -1.1234
 9812TIP3   OH250926   5.062   5.398   6.559 -0.2301 -0.0940 -0.3678
 9812TIP3    H150927   5.000   5.355   6.617  0.8387  0.3763  1.1804
 9812TIP3    H250928   5.141   5.345   6.565 -0.3829 -0.5775 -2.1645
 9813TIP3   OH250929   5.008   1.446  15.664 -0.0302  0.3518  0.1925
 9813TIP3    H150930   5.087   1.444  15.612  0.2790  0.3100  0.6549
 9813TIP3    H250931   4.997   1.355  15.694 -1.4285 -0.1157 -1.5984
 9814TIP3   OH250932   5.871   5.729   4.248  0.4298  0.1505  0.0845
 9814TIP3    H150933   5.837   5.796   4.190  1.5182 -0.1379 -0.9129
 9814TIP3    H250934   5.962   5.753   4.263  0.4745 -0.3983  0.7600
 9815TIP3   OH250935   3.545   2.025  15.093  0.1711 -0.2588  0.1999
 9815TIP3    H150936   3.608   2.026  15.165  0.3553  0.0696  0.0385
 9815TIP3    H250937   3.460   2.033  15.136 -0.0796 -3.8555  0.6800
 9816TIP3   OH250938   4.793   4.976   4.816 -0.2342 -0.0337  0.2014
 9816TIP3    H150939   4.872   4.972   4.869 -0.7170 -1.4009  0.8699
 9816TIP3    H250940   4.824   4.970   4.725  0.3731 -2.6195  0.4995
 9817TIP3   OH250941   6.003   1.219  11.531  0.0641 -0.3848  0.1274
 9817TIP3    H150942   6.026   1.227  11.624  2.0614 -2.7567 -0.0479
 9817TIP3    H250943   5.908   1.232  11.528  0.1402  1.2741  2.2314
 9818TIP3   OH250944   4.729   5.863  13.219 -0.3205 -0.0963  0.0165
 9818TIP3    H150945   4.791   5.806  13.174 -1.2580 -0.5857 -0.7071
 9818TIP3    H250946   4.704   5.816  13.298  0.3132  0.1568  0.3698
 9819TIP3   OH250947   1.220   5.302  15.518  0.4244  0.0019 -0.5501
 9819TIP3    H150948   1.250   5.297  15.609  1.6221  0.9861 -0.8766
 9819TIP3    H250949   1.190   5.392  15.507 -1.4885 -0.5824 -0.6294
 9820TIP3   OH250950   2.899   5.665   5.503 -0.3444  0.3874  0.0018
 9820TIP3    H150951   2.936   5.743   5.460  1.9697  0.9717  2.7739
 9820TIP3    H250952   2.955   5.593   5.474  0.4059  0.5640  0.9854
 9821TIP3   OH250953   4.604   2.779  11.296  0.7983 -0.5194  0.4781
 9821TIP3    H150954   4.575   2.831  11.370  0.7751 -0.1031  0.1786
 9821TIP3    H250955   4.523   2.745  11.258  0.6543  0.8352 -0.5004
 9822TIP3   OH250956   1.350   6.785   5.548 -0.3158  0.0642  0.0504
 9822TIP3    H150957   1.270   6.748   5.512 -0.4654  0.4453 -0.0140
 9822TIP3    H250958   1.322   6.865   5.592  0.1578  0.7229 -0.8128
 9823TIP3   OH250959   3.682   0.629  12.624  0.8445 -0.4030  0.2070
 9823TIP3    H150960   3.717   0.602  12.708 -0.1568 -0.7079  0.5445
 9823TIP3    H250961   3.674   0.549  12.573  1.6452 -0.1943 -0.2724
 9824TIP3   OH250962   0.550   6.800   2.511  0.6538  0.2304 -0.6050
 9824TIP3    H150963   0.500   6.861   2.565  0.0650  0.0409 -0.9242
 9824TIP3    H250964   0.621   6.853   2.474  0.6439  0.5204 -0.2108
 9825TIP3   OH250965   2.331   0.864   2.570 -0.2076 -0.0161  0.1046
 9825TIP3    H150966   2.404   0.842   2.512 -0.1943 -1.1572  0.5167
 9825TIP3    H250967   2.343   0.956   2.591  0.6403  0.0186 -0.4997
 9826TIP3   OH250968   1.982   6.035  13.411  0.1660  0.1584  0.0210
 9826TIP3    H150969   2.022   6.009  13.328  0.7205  0.6004  0.1444
 9826TIP3    H250970   2.052   6.024  13.476 -0.5187 -1.0525  0.5965
 9827TIP3   OH250971   0.829   5.336  12.077 -0.3821 -0.1068  0.2591
 9827TIP3    H150972   0.913   5.382  12.076 -0.8582  0.8083 -1.3299
 9827TIP3    H250973   0.850   5.247  12.048  0.1350 -0.0834  0.5483
 9828TIP3   OH250974   0.861   2.702   4.176  0.3351  0.7199 -0.3607
 9828TIP3    H150975   0.875   2.765   4.247  1.2663  1.4900 -1.2002
 9828TIP3    H250976   0.920   2.630   4.196 -2.2570 -1.0328  1.7908
 9829TIP3   OH250977   2.684   5.291  15.951 -0.3890 -0.4677  0.3990
 9829TIP3    H150978   2.722   5.377  15.970 -2.3924  0.8738 -1.3108
 9829TIP3    H250979   2.759   5.232  15.951  1.5065  1.7448 -1.1271
 9830TIP3   OH250980   2.540   5.162  15.507 -0.0568  0.1843 -0.4926
 9830TIP3    H150981   2.559   5.086  15.562  0.8509  1.9511  1.7606
 9830TIP3    H250982   2.601   5.154  15.434  0.0339 -1.2262 -0.2981
 9831TIP3   OH250983   0.923   2.021  13.448  0.5113 -0.3369  0.0415
 9831TIP3    H150984   0.857   2.089  13.458 -1.0374 -1.8501  0.6161
 9831TIP3    H250985   0.898   1.954  13.512  1.4058 -1.8917 -1.1698
 9832TIP3   OH250986   5.534   6.278  12.805  0.2399 -0.4523  0.4984
 9832TIP3    H150987   5.528   6.193  12.849 -1.4490 -0.3988  0.4361
 9832TIP3    H250988   5.571   6.257  12.719  1.8602 -0.7980  1.2338
 9833TIP3   OH250989   4.297   2.711   4.174  0.2133 -0.1588 -0.4722
 9833TIP3    H150990   4.335   2.623   4.172  0.0258 -0.2332 -0.6961
 9833TIP3    H250991   4.241   2.711   4.252  1.0582  0.1138  0.1582
 9834TIP3   OH250992   2.954   0.694   1.738  0.1822  0.3713 -0.2329
 9834TIP3    H150993   2.906   0.643   1.673 -1.8154  1.1017  0.5732
 9834TIP3    H250994   3.042   0.656   1.739 -0.6857 -1.8156 -0.9733
 9835TIP3   OH250995   5.188   0.606   0.258 -0.0403  0.2579  0.7956
 9835TIP3    H150996   5.108   0.605   0.311  0.1317 -0.2368  1.0544
 9835TIP3    H250997   5.174   0.537   0.192  0.6560 -0.6750  1.5881
 9836TIP3   OH250998   5.433   1.059  11.348  0.3461  0.2025 -0.0300
 9836TIP3    H150999   5.421   1.125  11.279 -0.6422  1.2099  1.0590
 9836TIP3    H251000   5.512   1.088  11.395  0.1989  0.3265  0.1408
 9837TIP3   OH251001   6.315   3.666   3.767  0.0810  0.4267  0.3388
 9837TIP3    H151002   6.312   3.599   3.698  1.9181 -2.0976  2.5119
 9837TIP3    H251003   6.238   3.648   3.821  0.0475  0.7187  0.3885
 9838TIP3   OH251004   2.734   2.485   1.247  0.3631  0.4873  0.0536
 9838TIP3    H151005   2.740   2.433   1.327  0.7252  2.0615  1.0959
 9838TIP3    H251006   2.658   2.449   1.201  0.0874 -0.3814  1.1420
 9839TIP3   OH251007   5.808   1.647  13.708 -0.7885  0.3975  0.1370
 9839TIP3    H151008   5.740   1.666  13.773 -0.9983  1.0934 -0.2742
 9839TIP3    H251009   5.889   1.641  13.760 -1.2286 -1.0614  0.7095
 9840TIP3   OH251010   5.830   0.432   1.405  0.0090  0.2588  0.0432
 9840TIP3    H151011   5.788   0.517   1.394  2.1594  1.1896 -2.1574
 9840TIP3    H251012   5.909   0.450   1.457  1.1446 -0.0627 -1.4818
 9841TIP3   OH251013   3.503   1.265   0.543  0.4897  0.5547 -0.2097
 9841TIP3    H151014   3.523   1.356   0.562  2.3814  0.0445  0.4034
 9841TIP3    H251015   3.588   1.224   0.528 -0.2564 -1.2910  0.3319
 9842TIP3   OH251016   0.251   5.294  12.967 -0.0481 -0.4680 -0.2563
 9842TIP3    H151017   0.223   5.268  12.880  0.8915  0.3392 -0.8231
 9842TIP3    H251018   0.325   5.237  12.987  0.2483 -0.1198 -0.3375
 9843TIP3   OH251019   0.110   3.178  17.122 -0.1679 -0.4464 -0.1760
 9843TIP3    H151020   0.108   3.160  17.216  1.2591 -1.4927 -0.3049
 9843TIP3    H251021   0.110   3.091  17.081  1.1443 -0.0665 -1.0532
 9844TIP3   OH251022   4.149   6.459  11.302  0.3118 -0.5319  0.1621
 9844TIP3    H151023   4.109   6.450  11.216 -2.0733 -1.6714  1.2909
 9844TIP3    H251024   4.110   6.538  11.339  1.8684  0.3633 -0.0289
 9845TIP3   OH251025   0.503   5.779   2.244  0.7404  0.2823 -0.4166
 9845TIP3    H151026   0.554   5.850   2.283  0.7644 -0.3126  0.6648
 9845TIP3    H251027   0.437   5.824   2.191 -0.4426  1.2158  1.7119
 9846TIP3   OH251028   2.622   4.886  15.275  0.6825  0.1895  0.2133
 9846TIP3    H151029   2.537   4.928  15.261  0.1688 -1.5520 -2.3431
 9846TIP3    H251030   2.608   4.830  15.352 -0.5663 -0.2204 -0.2803
 9847TIP3   OH251031   2.483   0.811  11.227 -0.1485 -0.1339 -0.4386
 9847TIP3    H151032   2.441   0.895  11.211 -0.9458 -0.6579 -1.1646
 9847TIP3    H251033   2.487   0.769  11.141  0.6481 -0.6586 -0.1607
 9848TIP3   OH251034   2.158   6.020  15.785 -0.2627  0.2196  0.2796
 9848TIP3    H151035   2.120   5.998  15.700  0.8433  0.5890 -0.3331
 9848TIP3    H251036   2.164   5.936  15.831  0.4056 -0.2066 -0.5568
 9849TIP3   OH251037   6.350   4.333   5.854  0.1916  0.6748  0.8473
 9849TIP3    H151038   6.426   4.390   5.860 -0.2831  1.4204  0.0056
 9849TIP3    H251039   6.280   4.381   5.899 -0.6038  1.4934 -1.1531
 9850TIP3   OH251040   0.458   4.140   2.131  0.2656 -0.0176  0.1821
 9850TIP3    H151041   0.548   4.121   2.160  0.6432  0.9637 -0.3042
 9850TIP3    H251042   0.403   4.085   2.187  1.1740 -0.7399  0.3963
 9851TIP3   OH251043   5.901   0.715  12.679 -0.1092 -0.8290  0.2884
 9851TIP3    H151044   5.868   0.805  12.679 -0.6144 -1.0141 -0.4083
 9851TIP3    H251045   5.992   0.723  12.650 -0.4342 -0.6415 -0.7078
 9852TIP3   OH251046   1.172   4.223  10.668 -0.0087  0.4814 -0.0803
 9852TIP3    H151047   1.088   4.177  10.670  0.3304 -0.2047 -0.8611
 9852TIP3    H251048   1.235   4.160  10.703  0.2678  0.8157  0.0350
 9853TIP3   OH251049   4.312   0.963   4.285  0.0644  0.7271 -0.2274
 9853TIP3    H151050   4.347   1.028   4.345  0.3638  0.9150 -0.6002
 9853TIP3    H251051   4.370   0.968   4.208 -0.2950  0.4715 -0.5157
 9854TIP3   OH251052   4.331   0.660   0.004  0.1690  0.3905 -0.5859
 9854TIP3    H151053   4.266   0.701   0.061  0.4951  1.7707 -1.1643
 9854TIP3    H251054   4.412   0.663   0.054  0.5312  1.9198 -1.2143
 9855TIP3   OH251055   4.977   5.794   2.779 -0.5195 -0.1848 -0.5101
 9855TIP3    H151056   4.955   5.774   2.688 -1.0817 -1.3225 -0.1473
 9855TIP3    H251057   5.035   5.724   2.806 -0.9747 -0.2904  0.2312
 9856TIP3   OH251058   6.476   0.050   0.751  0.5943 -0.2114  0.2132
 9856TIP3    H151059   6.474  -0.041   0.720 -2.9348  0.1351 -1.0382
 9856TIP3    H251060   6.533   0.094   0.689  1.1041 -1.2835 -0.1125
 9857TIP3   OH251061   4.028   0.276  13.982 -0.4275 -0.0205 -0.1611
 9857TIP3    H151062   4.007   0.277  13.889  1.0775  2.1311 -0.5693
 9857TIP3    H251063   3.988   0.357  14.016  2.7817  1.6500  0.0128
 9858TIP3   OH251064   0.021   1.297   3.543  0.0482  0.4879  0.0862
 9858TIP3    H151065   0.098   1.315   3.490 -0.4358  0.0168 -0.7913
 9858TIP3    H251066   0.039   1.212   3.583  1.0818  1.5184  1.9448
 9859TIP3   OH251067   1.089   5.552   2.682  0.1907 -0.2896 -0.2373
 9859TIP3    H151068   1.022   5.527   2.746  1.1902 -0.7958  0.6355
 9859TIP3    H251069   1.165   5.499   2.705  0.7169 -0.1673 -1.5880
 9860TIP3   OH251070   5.387   2.476  16.843 -0.0482 -0.0588  0.5557
 9860TIP3    H151071   5.457   2.531  16.808  0.1489  0.1367  1.2453
 9860TIP3    H251072   5.414   2.458  16.933  2.2545 -4.9365 -0.7357
 9861TIP3   OH251073   0.408   2.984  15.769 -0.2140  0.2686 -0.8058
 9861TIP3    H151074   0.420   3.034  15.850 -1.3872  0.9122 -1.0013
 9861TIP3    H251075   0.401   3.051  15.701  1.8263 -0.2910 -1.6205
 9862TIP3   OH251076   2.479   5.730  13.118 -0.4599 -0.3779 -0.7374
 9862TIP3    H151077   2.530   5.757  13.041  0.1924 -1.2571 -0.6280
 9862TIP3    H251078   2.544   5.693  13.178 -0.8347  0.9891  0.5882
 9863TIP3   OH251079   3.519   6.369   0.858  0.2103 -0.0911 -0.4147
 9863TIP3    H151080   3.462   6.425   0.910  0.1713 -0.1195 -0.4269
 9863TIP3    H251081   3.485   6.377   0.769  0.6667  0.4593 -0.5460
 9864TIP3   OH251082   5.214   2.905  17.250  0.1313 -0.6576  0.7232
 9864TIP3    H151083   5.125   2.887  17.221 -0.0721 -0.8690  1.4524
 9864TIP3    H251084   5.204   2.935  17.340  0.6994  0.4164  0.4458
 9865TIP3   OH251085   4.282   2.031   2.644  0.7132  0.1775  0.5542
 9865TIP3    H151086   4.219   2.065   2.581  0.0120  0.4958  1.4159
 9865TIP3    H251087   4.247   1.946   2.671  0.8349  0.1957  0.7763
 9866TIP3   OH251088   6.069   6.491  13.618 -0.0144  0.0601 -0.1740
 9866TIP3    H151089   6.142   6.460  13.564 -0.3208  0.6507 -0.9518
 9866TIP3    H251090   6.108   6.558  13.675  0.1936 -0.1330 -0.0894
 9867TIP3   OH251091   6.209   4.670   0.291 -0.1252  0.4543 -0.5639
 9867TIP3    H151092   6.142   4.602   0.282 -1.1354  0.9649  2.2621
 9867TIP3    H251093   6.240   4.684   0.201 -2.8352 -0.7480 -1.8062
 9868TIP3   OH251094   0.381   4.844  14.763 -0.4231 -0.3398  0.2458
 9868TIP3    H151095   0.375   4.939  14.777  0.7868 -0.2019 -0.1019
 9868TIP3    H251096   0.440   4.813  14.832 -0.3383 -0.7501 -0.0084
 9869TIP3   OH251097   0.450   3.491  12.205 -0.0120 -0.1755 -0.3126
 9869TIP3    H151098   0.507   3.436  12.150  0.2142  1.0308 -1.3446
 9869TIP3    H251099   0.376   3.513  12.148 -0.9015 -0.6885  0.6066
 9870TIP3   OH251100   4.122   4.409   2.512 -0.3687 -0.9710  0.1127
 9870TIP3    H151101   4.114   4.348   2.585  2.2118 -0.6174  0.7914
 9870TIP3    H251102   4.187   4.473   2.541 -1.7776  1.1929 -1.1991
 9871TIP3   OH251103   1.717   0.995   1.397  0.3199 -0.0953 -0.6208
 9871TIP3    H151104   1.793   0.937   1.405  1.8812  1.7996 -1.1254
 9871TIP3    H251105   1.680   0.998   1.486  1.5275 -0.1527 -0.0945
 9872TIP3   OH251106   6.646   3.432   1.961  0.0029  1.0207  0.1877
 9872TIP3    H151107   6.727   3.449   1.913  0.1837  0.3031  0.2254
 9872TIP3    H251108   6.660   3.470   2.048  0.6950  0.0219  0.5246
 9873TIP3   OH251109   5.259   2.477   0.775  0.5214  0.9212 -0.4746
 9873TIP3    H151110   5.299   2.562   0.794  0.2294  0.6959  1.2429
 9873TIP3    H251111   5.317   2.413   0.816 -1.1969  0.5535  1.5654
 9874TIP3   OH251112   1.740   3.351  15.620 -0.1696  0.3049 -0.1476
 9874TIP3    H151113   1.756   3.260  15.648 -2.4759 -0.0177  0.3380
 9874TIP3    H251114   1.728   3.345  15.525 -0.1281  0.1228 -0.1432
 9875TIP3   OH251115   2.068   4.756   1.416 -0.8260 -0.0310 -0.0120
 9875TIP3    H151116   2.110   4.819   1.358  1.9811 -1.2815  0.4471
 9875TIP3    H251117   2.052   4.680   1.361  1.0309 -0.8951  0.5481
 9876TIP3   OH251118   2.406   1.480   5.143  0.1340  0.2362 -0.3428
 9876TIP3    H151119   2.404   1.536   5.066  0.0141  1.9490  0.8463
 9876TIP3    H251120   2.496   1.487   5.175 -0.1104  0.4590  0.3094
 9877TIP3   OH251121   2.886   5.298  16.417 -0.4961 -0.0682  0.0797
 9877TIP3    H151122   2.794   5.281  16.437 -0.8829  2.0635  0.3981
 9877TIP3    H251123   2.888   5.390  16.388  1.6964  0.3753  1.3692
 9878TIP3   OH251124   4.074   3.597   2.181  0.0777 -0.2383  0.4075
 9878TIP3    H151125   4.086   3.512   2.223  0.8841 -0.1266  0.4248
 9878TIP3    H251126   3.981   3.617   2.193  0.4587  0.2911  3.1068
 9879TIP3   OH251127   5.318   2.196  11.586 -0.1109 -0.2093 -0.6478
 9879TIP3    H151128   5.408   2.175  11.560 -0.1630  0.9957 -1.9193
 9879TIP3    H251129   5.264   2.134  11.536 -0.1114  0.9490 -2.1506
 9880TIP3   OH251130   0.138   2.182   3.916 -0.8597  0.0845 -0.0884
 9880TIP3    H151131   0.081   2.150   3.985 -0.5537  0.6644  0.4429
 9880TIP3    H251132   0.087   2.247   3.870 -0.3337  1.2856  0.9736
 9881TIP3   OH251133   1.417   4.292  15.222 -0.1040  0.6593 -0.4571
 9881TIP3    H151134   1.453   4.288  15.311  0.1308  2.0469 -0.4716
 9881TIP3    H251135   1.452   4.373  15.186 -1.2816  0.7878 -1.3413
 9882TIP3   OH251136   6.693   6.434   1.422 -0.0734  0.5248  0.3650
 9882TIP3    H151137   6.700   6.475   1.509 -0.5300 -0.0179  0.6645
 9882TIP3    H251138   6.753   6.359   1.426  0.0047  0.5758  0.1648
 9883TIP3   OH251139   2.662   1.094  15.784  0.6174 -0.3567 -0.4190
 9883TIP3    H151140   2.742   1.079  15.733  0.9670 -1.0140  0.2922
 9883TIP3    H251141   2.611   1.154  15.731  0.4858 -1.8323 -2.0695
 9884TIP3   OH251142   2.658   0.566  15.027  0.1618 -0.5737  0.3923
 9884TIP3    H151143   2.662   0.520  15.110 -0.4248  0.6792  1.1467
 9884TIP3    H251144   2.654   0.659  15.051  0.7628 -0.1431 -1.0526
 9885TIP3   OH251145   1.291   1.980   4.400  0.4211  0.0531 -0.3903
 9885TIP3    H151146   1.308   1.887   4.386  3.1470  0.3397  0.5118
 9885TIP3    H251147   1.362   2.010   4.457 -1.0428  2.4518  0.3338
 9886TIP3   OH251148   6.322   1.519  11.007 -0.3110  0.0980 -0.1566
 9886TIP3    H151149   6.334   1.606  10.969 -2.3171 -0.0226 -1.2010
 9886TIP3    H251150   6.268   1.472  10.943 -1.5365 -1.0167  1.6135
 9887TIP3   OH251151   3.788   2.890   5.006  0.1089 -0.3476  0.2564
 9887TIP3    H151152   3.721   2.837   4.962 -0.6197 -0.0037  0.9238
 9887TIP3    H251153   3.739   2.948   5.064  0.9239  0.7951 -0.1612
 9888TIP3   OH251154   3.791   1.792  16.211 -0.0017 -0.5374  0.1035
 9888TIP3    H151155   3.864   1.805  16.272 -0.0063 -0.9730  0.1983
 9888TIP3    H251156   3.833   1.785  16.125 -0.0057  0.2366  0.0225
 9889TIP3   OH251157   0.808   1.575   5.594 -0.3708 -0.1308  0.1454
 9889TIP3    H151158   0.867   1.646   5.570  0.3519 -1.6128 -3.0625
 9889TIP3    H251159   0.863   1.496   5.590 -1.5527 -1.0926  1.7525
 9890TIP3   OH251160   2.864   2.832   0.713  0.1508 -0.1344 -0.4776
 9890TIP3    H151161   2.802   2.811   0.643  0.3100 -1.6056 -0.2120
 9890TIP3    H251162   2.810   2.855   0.788 -0.0203  1.6352 -1.1063
 9891TIP3   OH251163   1.464   6.204   4.246 -0.3335 -0.2017 -0.0325
 9891TIP3    H151164   1.384   6.256   4.239  0.1023  0.4872  0.0853
 9891TIP3    H251165   1.435   6.114   4.231 -1.1065  0.0601 -0.1444
 9892TIP3   OH251166   3.026   6.212   6.404  0.1319  0.5621  0.0712
 9892TIP3    H151167   2.994   6.301   6.389 -1.2029  0.2664  0.9647
 9892TIP3    H251168   3.093   6.223   6.472  1.2765  1.0731 -1.0997
 9893TIP3   OH251169   4.904   4.640  12.760 -0.5794 -0.4227 -0.3942
 9893TIP3    H151170   4.990   4.601  12.745 -0.9665 -0.7873 -1.8127
 9893TIP3    H251171   4.920   4.734  12.767  0.3524 -0.6790  2.9194
 9894TIP3   OH251172   4.383   6.410  13.779 -0.3437 -0.3958 -0.3635
 9894TIP3    H151173   4.433   6.409  13.697 -0.3691  0.9228 -0.4169
 9894TIP3    H251174   4.300   6.451  13.755 -0.4773 -0.3123  0.2492
 9895TIP3   OH251175   6.086   4.377  14.153 -0.1779 -0.3215  0.0780
 9895TIP3    H151176   6.011   4.423  14.189  0.2825  0.4253  0.1041
 9895TIP3    H251177   6.148   4.446  14.129  0.1792 -0.8875 -0.6635
 9896TIP3   OH251178   0.563   5.397   5.271  0.5909 -1.1616 -0.6368
 9896TIP3    H151179   0.572   5.491   5.283 -1.1151 -1.0876  0.4532
 9896TIP3    H251180   0.563   5.384   5.176  2.0339 -0.2269 -0.7872
 9897TIP3   OH251181   3.549   6.689  15.334  0.2556  0.2000  0.3594
 9897TIP3    H151182   3.576   6.715  15.422  0.8343 -0.4220  0.3677
 9897TIP3    H251183   3.456   6.666  15.343  0.6792 -1.3380  1.1446
 9898TIP3   OH251184   6.277   2.183   6.294 -0.0925  0.1739  0.3227
 9898TIP3    H151185   6.201   2.235   6.323 -0.7890 -0.5942 -0.0831
 9898TIP3    H251186   6.306   2.226   6.214  0.0473  0.6035  0.5998
 9899TIP3   OH251187   3.462   4.599   2.259 -0.2192 -0.0422  0.5751
 9899TIP3    H151188   3.551   4.574   2.286  0.6119 -1.1588 -2.6399
 9899TIP3    H251189   3.476   4.671   2.197 -1.6707  0.5707  0.9404
 9900TIP3   OH251190   6.204   2.090  14.777  0.2071  0.1263  0.5170
 9900TIP3    H151191   6.138   2.160  14.774  0.4513  0.3189 -1.0821
 9900TIP3    H251192   6.174   2.033  14.848 -2.2858 -0.3660 -0.8158
 9901TIP3   OH251193   4.423   5.128  10.598  0.6275  0.3718  0.2639
 9901TIP3    H151194   4.470   5.160  10.521  0.0968  1.0848  0.2218
 9901TIP3    H251195   4.463   5.044  10.618 -0.2824 -0.6161 -1.7574
 9902TIP3   OH251196   3.711   1.992   0.620 -0.1537 -0.3029  0.2709
 9902TIP3    H151197   3.642   2.058   0.610 -1.0801 -1.3526 -0.6507
 9902TIP3    H251198   3.745   2.004   0.708 -0.3416  1.3540  0.1363
 9903TIP3   OH251199   4.448   6.159  11.076 -0.1104 -0.1519  0.1922
 9903TIP3    H151200   4.403   6.211  11.010  2.1402  0.6675 -0.7998
 9903TIP3    H251201   4.456   6.217  11.151  0.6569  0.2853 -0.2101
 9904TIP3   OH251202   1.999   6.776   4.501 -0.2641  0.5051 -0.2950
 9904TIP3    H151203   1.949   6.776   4.420 -0.2992 -0.8056 -0.2909
 9904TIP3    H251204   2.011   6.683   4.522 -0.7785  0.8252  1.5302
 9905TIP3   OH251205   1.696   1.381  11.741  0.1720 -0.2051 -0.4749
 9905TIP3    H151206   1.741   1.465  11.753 -1.1330  0.3669  0.6773
 9905TIP3    H251207   1.661   1.385  11.652 -0.1361  0.6126 -0.3249
 9906TIP3   OH251208   3.324   1.185   2.243  0.2212 -0.1345 -0.4257
 9906TIP3    H151209   3.302   1.212   2.332  0.3449 -1.3224 -0.0094
 9906TIP3    H251210   3.419   1.170   2.245 -0.0921 -2.3832 -0.0896
 9907TIP3   OH251211   3.139   4.050   5.866  0.0450  0.2658  0.5297
 9907TIP3    H151212   3.190   3.996   5.806  0.6351  1.4529 -0.0829
 9907TIP3    H251213   3.194   4.056   5.944 -0.1155 -0.1790  0.6793
 9908TIP3   OH251214   0.698   6.432  11.220  0.4210  0.2057 -0.1500
 9908TIP3    H151215   0.711   6.441  11.314  0.1561  0.5209 -0.1381
 9908TIP3    H251216   0.689   6.338  11.206 -0.4627  0.2168  0.2713
 9909TIP3   OH251217   5.711   0.524  15.063 -0.2807  0.0670  0.1405
 9909TIP3    H151218   5.721   0.521  15.158 -1.2316 -1.3177  0.2310
 9909TIP3    H251219   5.636   0.581  15.048  0.4931  1.1051  0.1453
 9910TIP3   OH251220   2.442   2.523   0.824  0.5505  0.7002  0.6275
 9910TIP3    H151221   2.407   2.535   0.736  1.1631 -4.5733 -0.6149
 9910TIP3    H251222   2.534   2.550   0.817  0.3467  1.2822  0.0175
 9911TIP3   OH251223   4.108   1.411   0.094 -0.3270 -0.4412  0.3740
 9911TIP3    H151224   4.115   1.321   0.125 -0.4739 -0.1702  1.2202
 9911TIP3    H251225   4.040   1.408   0.026 -1.5637 -0.6740  1.5887
 9912TIP3   OH251226   4.275   5.944   5.064 -0.5429 -0.1551  0.3233
 9912TIP3    H151227   4.284   6.033   5.099  0.8760 -0.0746 -0.1984
 9912TIP3    H251228   4.219   5.899   5.128  1.6779  0.0809  2.6062
 9913TIP3   OH251229   2.743   0.580   4.220 -0.0202  0.7340  0.2132
 9913TIP3    H151230   2.745   0.506   4.282  0.4371  0.1850 -0.4440
 9913TIP3    H251231   2.722   0.540   4.136  0.2287  1.3529 -0.1484
 9914TIP3   OH251232   2.032   2.732   5.645 -0.5717 -0.0825 -0.0564
 9914TIP3    H151233   1.959   2.675   5.669  0.3330 -1.2680 -0.0611
 9914TIP3    H251234   2.012   2.760   5.556 -0.4883 -1.3102 -0.4801
 9915TIP3   OH251235   3.490   3.218   3.687 -0.4102  0.3152  0.2391
 9915TIP3    H151236   3.401   3.237   3.656 -0.9644 -0.2105  1.4432
 9915TIP3    H251237   3.482   3.219   3.783  0.6486 -0.7929  0.3549
 9916TIP3   OH251238   6.520   2.680   0.847  0.4769  0.9622 -0.7994
 9916TIP3    H151239   6.444   2.710   0.898 -0.4882 -0.7014 -1.1528
 9916TIP3    H251240   6.590   2.672   0.912  0.3040  2.3234 -0.4214
 9917TIP3   OH251241   3.763   0.110  12.897  0.3635  0.0772  0.0454
 9917TIP3    H151242   3.740   0.018  12.884 -1.0610  0.5109 -0.7042
 9917TIP3    H251243   3.855   0.116  12.871 -0.0618 -0.7724 -1.7883
 9918TIP3   OH251244   2.555   4.562  12.826  0.0430  0.3041 -0.5827
 9918TIP3    H151245   2.519   4.482  12.788  0.0417 -0.8329  1.6752
 9918TIP3    H251246   2.632   4.581  12.772  0.2088 -1.3723 -1.0035
 9919TIP3   OH251247   0.437   6.630  16.989 -0.1939  0.3527  0.3024
 9919TIP3    H151248   0.391   6.612  17.071  1.0160 -1.1347  0.6915
 9919TIP3    H251249   0.488   6.709  17.007 -1.1679  0.9739  0.4384
 9920TIP3   OH251250   2.687   6.801  10.638  0.6181 -0.1789  0.4592
 9920TIP3    H151251   2.690   6.727  10.577 -0.6985  1.2920 -1.5117
 9920TIP3    H251252   2.779   6.815  10.662  1.3082 -0.3522 -1.8277
 9921TIP3   OH251253   2.070   5.185  12.761  0.0185 -0.5437 -0.4776
 9921TIP3    H151254   2.068   5.102  12.713  1.0713 -0.3788 -0.8260
 9921TIP3    H251255   2.075   5.252  12.694 -2.6508 -0.0533 -0.2786
 9922TIP3   OH251256   1.745   0.316   5.578  0.5343 -0.1757  0.0467
 9922TIP3    H151257   1.716   0.225   5.591  1.4424 -0.4280  0.3849
 9922TIP3    H251258   1.696   0.345   5.501 -0.1615 -0.7783  0.2464
 9923TIP3   OH251259   5.145   3.549   3.957 -0.5798  0.2882  0.3752
 9923TIP3    H151260   5.053   3.552   3.985 -1.2744  0.0375 -1.7119
 9923TIP3    H251261   5.154   3.462   3.917  0.0602  0.9943 -1.0424
 9924TIP3   OH251262   0.416   2.567  16.893 -0.3326 -0.0049 -0.0851
 9924TIP3    H151263   0.327   2.602  16.904 -0.6125 -0.6320 -0.2897
 9924TIP3    H251264   0.457   2.623  16.828  0.0199  1.3651  1.2560
 9925TIP3   OH251265   1.359   2.819   5.784 -0.2886 -0.1571 -0.4731
 9925TIP3    H151266   1.332   2.906   5.753  0.8417  0.2595 -0.3338
 9925TIP3    H251267   1.277   2.776   5.809 -0.7506  1.7828  1.7693
 9926TIP3   OH251268   1.625   2.610   2.432  0.4863  0.2315 -0.0473
 9926TIP3    H151269   1.547   2.659   2.459 -0.6948 -0.6802 -1.5758
 9926TIP3    H251270   1.696   2.646   2.485 -0.6935  2.1133  0.3637
 9927TIP3   OH251271   4.404   1.090   2.363 -0.0963 -0.4708 -0.1818
 9927TIP3    H151272   4.462   1.035   2.415  1.4993  0.9333 -0.3926
 9927TIP3    H251273   4.317   1.052   2.375  0.6792 -1.9316  1.1019
 9928TIP3   OH251274   6.274   1.049   4.382  0.2261  0.4922 -0.2476
 9928TIP3    H151275   6.293   0.999   4.303  3.2600 -1.8329  1.7279
 9928TIP3    H251276   6.346   1.112   4.389 -0.5048  1.3031  0.2339
 9929TIP3   OH251277   0.562   0.971  16.952  0.1476 -0.2872 -0.7096
 9929TIP3    H151278   0.531   1.050  16.996  0.4030 -0.9235  0.6540
 9929TIP3    H251279   0.657   0.977  16.958  0.1838 -0.4544 -1.0755
 9930TIP3   OH251280   6.547   0.819  14.226  0.1881  0.0153 -0.0595
 9930TIP3    H151281   6.485   0.755  14.191  0.5385 -0.3365 -0.0382
 9930TIP3    H251282   6.492   0.884  14.270 -0.1457 -0.4719  0.2482
 9931TIP3   OH251283   4.754   3.462  11.302 -0.1776  0.4992  0.1855
 9931TIP3    H151284   4.760   3.479  11.209 -0.6755  2.7022  0.5077
 9931TIP3    H251285   4.845   3.459  11.332  0.0159 -1.0372 -0.4554
 9932TIP3   OH251286   4.277   4.134  15.501 -0.6941  0.3778  0.3089
 9932TIP3    H151287   4.370   4.154  15.510 -0.6923 -0.1097  1.5045
 9932TIP3    H251288   4.271   4.080  15.422 -0.0269  0.7178  0.0155
 9933TIP3   OH251289   6.472   1.253   4.315 -0.9381  0.1564 -0.2318
 9933TIP3    H151290   6.452   1.281   4.226 -0.2011  1.9124  0.1108
 9933TIP3    H251291   6.538   1.315   4.346  0.2567 -1.5545  0.8798
 9934TIP3   OH251292   5.952   0.742  15.147  0.3320 -0.1135 -0.8183
 9934TIP3    H151293   5.988   0.816  15.196  0.8992 -0.3986 -0.7967
 9934TIP3    H251294   5.919   0.683  15.215  2.2707 -1.1094 -0.6777
 9935TIP3   OH251295   2.307   0.234  12.228  0.1613 -0.1949  0.5242
 9935TIP3    H151296   2.320   0.208  12.137 -0.7734  1.0770  0.0012
 9935TIP3    H251297   2.293   0.152  12.275  1.9471 -0.9823 -0.2188
 9936TIP3   OH251298   4.336   3.881   1.415  0.0531  0.1340  0.0264
 9936TIP3    H151299   4.287   3.905   1.336 -0.1685  1.8777  0.6479
 9936TIP3    H251300   4.405   3.823   1.384  0.1328  0.9976 -1.5082
 9937TIP3   OH251301   1.222   4.378   2.938  0.3282  0.0486  0.7027
 9937TIP3    H151302   1.318   4.377   2.932  0.6250  1.2095  3.4545
 9937TIP3    H251303   1.199   4.470   2.928 -0.6838 -0.3663 -1.1757
 9938TIP3   OH251304   1.751   6.304   5.447  0.2591  0.1841  0.2249
 9938TIP3    H151305   1.735   6.347   5.532  1.8853 -0.2812  0.7966
 9938TIP3    H251306   1.777   6.215   5.470 -0.8354 -0.4361 -0.8570
 9939TIP3   OH251307   6.203   5.802  14.398  0.1992 -0.1572 -0.5147
 9939TIP3    H151308   6.241   5.788  14.485 -1.4000  0.8524  0.4048
 9939TIP3    H251309   6.202   5.897  14.387 -0.3345 -0.2433 -1.2981
 9940TIP3   OH251310   0.601   3.537   5.103  0.0438  0.0547  0.3239
 9940TIP3    H151311   0.561   3.541   5.190  0.6572 -0.0828  0.6212
 9940TIP3    H251312   0.528   3.523   5.043 -0.2960 -0.7006  0.9054
 9941TIP3   OH251313   5.961   4.132   4.798 -0.4008 -0.5580 -0.3151
 9941TIP3    H151314   5.901   4.195   4.836  0.7607 -0.8383  2.2164
 9941TIP3    H251315   5.906   4.062   4.765 -1.6291  1.0935 -1.9849
 9942TIP3   OH251316   1.930   0.022   2.532 -0.0430 -0.1536 -0.1611
 9942TIP3    H151317   1.895  -0.008   2.448  0.5771  0.1485 -0.5336
 9942TIP3    H251318   1.934  -0.057   2.586  0.5531 -0.5569 -0.7761
 9943TIP3   OH251319   1.612   3.766   0.998 -0.3354  0.0623 -0.0549
 9943TIP3    H151320   1.657   3.783   1.080  1.1645 -0.4731 -0.7217
 9943TIP3    H251321   1.521   3.752   1.022 -0.1001  0.8903  1.3871
 9944TIP3   OH251322   5.231   5.486   1.187  0.2114  0.0014 -0.0372
 9944TIP3    H151323   5.249   5.544   1.113 -0.9121  1.6718  0.9146
 9944TIP3    H251324   5.311   5.488   1.240 -0.0742  1.3651  0.3828
 9945TIP3   OH251325   1.163   0.648   1.390  0.1559 -0.0689  0.4172
 9945TIP3    H151326   1.079   0.620   1.352  0.8275  0.3544 -1.4670
 9945TIP3    H251327   1.219   0.665   1.315  1.8281  0.0592  1.6397
 9946TIP3   OH251328   0.879   1.522   1.868  0.5511 -0.4102 -0.2988
 9946TIP3    H151329   0.961   1.552   1.908 -0.4047  1.8722  0.0954
 9946TIP3    H251330   0.815   1.526   1.940 -0.2631 -0.5706 -1.0014
 9947TIP3   OH251331   6.575   0.933  15.608  0.5445  0.4171 -0.1135
 9947TIP3    H151332   6.552   0.857  15.554  0.1563  0.0830  0.5111
 9947TIP3    H251333   6.549   0.908  15.697  1.2431  0.9285  0.2442
 9948TIP3   OH251334   2.771   4.423   3.757 -0.1468 -0.9863  0.2352
 9948TIP3    H151335   2.755   4.515   3.777  0.9546 -0.7074 -0.0750
 9948TIP3    H251336   2.790   4.421   3.663 -2.1988 -1.8457 -0.2159
 9949TIP3   OH251337   3.543   4.667   2.732  0.0953 -0.1917 -0.3887
 9949TIP3    H151338   3.511   4.586   2.772  0.8652  0.4844  1.7202
 9949TIP3    H251339   3.606   4.701   2.795  0.9867  1.2409 -1.9789
 9950TIP3   OH251340   5.162   5.986   4.501  0.2504 -0.0799 -0.6912
 9950TIP3    H151341   5.134   5.982   4.593  0.7177  1.2052 -0.4756
 9950TIP3    H251342   5.237   5.927   4.496 -0.6784 -1.3270 -0.6195
 9951TIP3   OH251343   3.004   6.583   4.647 -0.2174 -0.2784  0.1776
 9951TIP3    H151344   2.955   6.543   4.575  0.9374 -1.3064 -0.0550
 9951TIP3    H251345   2.959   6.667   4.662 -1.7360 -0.9589 -0.3477
 9952TIP3   OH251346   1.328   3.619   4.577  0.1207  0.1056  0.7229
 9952TIP3    H151347   1.273   3.573   4.514 -1.6922 -2.1708  3.6503
 9952TIP3    H251348   1.384   3.550   4.614  0.9624  1.2839  1.7164
 9953TIP3   OH251349   6.636   6.456  11.988 -0.1252  0.0236 -0.4030
 9953TIP3    H151350   6.619   6.549  12.005 -1.6231 -0.4320  0.7706
 9953TIP3    H251351   6.725   6.442  12.020  0.0330  1.0032 -0.3889
 9954TIP3   OH251352   4.007   0.337  16.393 -0.4296 -0.5569 -0.1179
 9954TIP3    H151353   3.935   0.394  16.366  0.2752  0.9627  0.9836
 9954TIP3    H251354   3.968   0.279  16.458 -0.4874  1.0104  1.3254
 9955TIP3   OH251355   2.301   3.239   0.380 -0.2139  0.6868 -0.0229
 9955TIP3    H151356   2.339   3.160   0.418 -0.7306  0.7524  0.6411
 9955TIP3    H251357   2.294   3.300   0.454 -0.8858  0.9460 -0.2982
 9956TIP3   OH251358   6.294   5.362   3.325  0.3123  0.2543 -0.2677
 9956TIP3    H151359   6.245   5.434   3.365  0.5225  0.9405 -1.2227
 9956TIP3    H251360   6.378   5.363   3.371 -0.9053 -1.7498  2.2958
 9957TIP3   OH251361   5.434   0.804   5.311 -0.5185 -0.3125 -0.3405
 9957TIP3    H151362   5.395   0.726   5.272  0.4187 -0.8683 -0.2025
 9957TIP3    H251363   5.363   0.845   5.360 -1.4008 -0.2855 -1.5898
 9958TIP3   OH251364   3.419   3.599  16.121  0.1911  0.0186  0.1112
 9958TIP3    H151365   3.419   3.536  16.193 -2.2456  1.6860  1.6901
 9958TIP3    H251366   3.480   3.667  16.149  0.7286 -0.2705 -0.3329
 9959TIP3   OH251367   5.619   5.799  14.980 -0.6849  0.1317 -0.0464
 9959TIP3    H151368   5.635   5.885  15.019  0.4319 -0.6683  1.3421
 9959TIP3    H251369   5.530   5.804  14.947 -0.5478  1.9089 -0.2429
 9960TIP3   OH251370   0.468   3.690  14.193  0.4907 -0.0342 -0.1790
 9960TIP3    H151371   0.448   3.650  14.108 -0.0235 -1.1417  0.4240
 9960TIP3    H251372   0.431   3.628  14.257  1.7728  0.2501  0.8790
 9961TIP3   OH251373   1.402   3.627   1.878 -0.4313  0.3233  0.5067
 9961TIP3    H151374   1.321   3.581   1.858 -0.8446  0.5458  1.6338
 9961TIP3    H251375   1.470   3.560   1.871 -0.9843 -0.3922  1.7914
 9962TIP3   OH251376   1.315   1.465  14.906  0.6851 -0.2042  0.1856
 9962TIP3    H151377   1.297   1.471  15.000  1.5468  0.3446  0.3156
 9962TIP3    H251378   1.310   1.371  14.888 -0.4667 -0.2392  0.5722
 9963TIP3   OH251379   1.966   4.629  16.102  0.5810  0.5153  0.6619
 9963TIP3    H151380   2.006   4.663  16.022 -1.3778  1.0896 -0.1398
 9963TIP3    H251381   1.925   4.547  16.076 -0.9114  1.1830  0.7666
 9964TIP3   OH251382   5.964   0.488   1.964 -0.7658  0.0556 -0.4837
 9964TIP3    H151383   6.005   0.473   2.049 -1.0913  2.4733  0.1522
 9964TIP3    H251384   6.005   0.423   1.906  0.2622 -0.9009  1.2305
 9965TIP3   OH251385   5.933   3.054  10.691  0.0751  0.1379 -0.4664
 9965TIP3    H151386   5.999   3.082  10.628  0.0043  0.3445 -0.4484
 9965TIP3    H251387   5.930   3.124  10.756 -0.5404  0.3872 -0.7551
 9966TIP3   OH251388   1.591   6.710  13.765 -0.2621  0.0848  0.0718
 9966TIP3    H151389   1.624   6.755  13.687  0.8809  0.8588  0.9801
 9966TIP3    H251390   1.509   6.670  13.736  0.7019 -0.6268 -1.8425
 9967TIP3   OH251391   6.428   3.630   4.944 -0.2501  0.3236  0.9371
 9967TIP3    H151392   6.441   3.720   4.916 -1.2698  0.5970  1.2842
 9967TIP3    H251393   6.505   3.609   4.996 -1.1310  1.8839  3.0280
 9968TIP3   OH251394   5.985   3.805  16.911 -0.0113  0.3668  0.2931
 9968TIP3    H151395   6.071   3.769  16.891  0.6324  0.6969  2.3012
 9968TIP3    H251396   5.929   3.729  16.923  0.3696  0.1125  0.4684
 9969TIP3   OH251397   1.963   3.628  16.042 -0.1617 -0.2667  0.2078
 9969TIP3    H151398   2.057   3.625  16.020 -0.3314 -0.6310 -0.5012
 9969TIP3    H251399   1.961   3.656  16.134  0.6177  0.3530  0.0514
 9970TIP3   OH251400   6.626   4.742  15.929  0.0705 -0.0339  0.0075
 9970TIP3    H151401   6.614   4.647  15.925  0.7369 -0.1774  1.1460
 9970TIP3    H251402   6.720   4.754  15.915  0.1171  0.3919  0.6685
 9971TIP3   OH251403   5.653   1.766  15.408 -0.0220  0.3884  0.4574
 9971TIP3    H151404   5.631   1.681  15.447  1.5510  0.1705  0.9452
 9971TIP3    H251405   5.628   1.830  15.474  2.3156  0.0384  1.7868
 9972TIP3   OH251406   3.795   1.236  10.689 -0.6757 -0.7446 -0.1361
 9972TIP3    H151407   3.737   1.180  10.638 -1.0542 -0.5190  0.0477
 9972TIP3    H251408   3.882   1.199  10.675 -0.7982 -0.7945 -0.8082
 9973TIP3   OH251409   2.529   6.422   0.025 -0.2945  0.0417 -0.0989
 9973TIP3    H151410   2.490   6.421   0.112  1.1598 -0.8799  0.5802
 9973TIP3    H251411   2.577   6.339   0.020  0.5467  0.5861 -1.3607
 9974TIP3   OH251412   2.688   5.875   1.345  0.2032  0.0460 -0.3150
 9974TIP3    H151413   2.740   5.797   1.327  1.1443  0.7084 -0.5514
 9974TIP3    H251414   2.676   5.875   1.440  0.6426 -0.1022 -0.2601
 9975TIP3   OH251415   1.249   0.066   0.863 -0.4416  0.2762 -0.2363
 9975TIP3    H151416   1.238   0.026   0.777  0.0715  0.0224 -0.1870
 9975TIP3    H251417   1.343   0.084   0.869 -0.6743  1.7020 -0.3561
 9976TIP3   OH251418   2.616   1.948  10.280  0.1438 -0.4229 -0.8336
 9976TIP3    H151419   2.532   1.904  10.293  0.2417 -0.5808 -0.7390
 9976TIP3    H251420   2.665   1.891  10.221 -0.4726  0.5205 -2.2976
 9977TIP3   OH251421   3.407   1.380   2.044  0.7215 -0.0003 -0.0183
 9977TIP3    H151422   3.464   1.374   1.968 -0.4631 -0.0551 -0.9297
 9977TIP3    H251423   3.416   1.295   2.087  0.4937 -0.4152 -0.7763
 9978TIP3   OH251424   3.564   3.125  14.884 -0.0855 -0.2168  0.1685
 9978TIP3    H151425   3.529   3.197  14.937 -0.1983 -1.5239  1.9929
 9978TIP3    H251426   3.655   3.149  14.866 -0.4904  0.9582 -0.3902
 9979TIP3   OH251427   3.562   4.987  11.773 -0.5170 -0.1887 -0.5036
 9979TIP3    H151428   3.635   5.012  11.715  0.1604  1.3921  0.9667
 9979TIP3    H251429   3.531   4.904  11.737  0.2622  0.4319 -2.7614
 9980TIP3   OH251430   2.309   0.157  11.943 -0.4244  0.3324  0.6504
 9980TIP3    H151431   2.213   0.151  11.942 -0.3831 -1.7339  2.1721
 9980TIP3    H251432   2.336   0.111  11.864 -0.6537  1.4092 -0.0849
 9981TIP3   OH251433   3.013   3.995  10.174 -0.2206  0.3414 -0.1878
 9981TIP3    H151434   2.982   3.931  10.110 -0.0809  0.0316  0.0498
 9981TIP3    H251435   3.074   3.946  10.229 -0.1053  0.6833 -0.0097
 9982TIP3   OH251436   0.758   6.671   2.215 -0.1018 -0.1923 -0.0037
 9982TIP3    H151437   0.803   6.613   2.153  2.4066  0.9177  0.6288
 9982TIP3    H251438   0.711   6.612   2.273 -1.5088 -1.3177 -2.1474
 9983TIP3   OH251439   5.759   6.618  11.074  0.2245  0.0494 -0.5525
 9983TIP3    H151440   5.824   6.670  11.029 -0.4309 -1.0873 -3.0161
 9983TIP3    H251441   5.676   6.663  11.058  0.0955  0.2482  0.5689
 9984TIP3   OH251442   3.302   2.704   5.230 -0.1282  0.3413  0.0769
 9984TIP3    H151443   3.334   2.660   5.151  1.4888  0.6841  0.5073
 9984TIP3    H251444   3.297   2.635   5.296  1.3271  0.5602  0.4450
 9985TIP3   OH251445   2.748   1.922   2.003  0.6129 -0.2001  0.1844
 9985TIP3    H151446   2.833   1.936   1.963 -0.4218  0.3344 -1.9776
 9985TIP3    H251447   2.747   1.979   2.080  2.5251 -0.9570  0.8303
 9986TIP3   OH251448   4.891   5.197  11.356  1.1382 -0.1055  0.2559
 9986TIP3    H151449   4.872   5.138  11.429  1.5864 -1.7804 -0.9244
 9986TIP3    H251450   4.827   5.174  11.289  1.8648  0.1558 -0.5402
 9987TIP3   OH251451   1.549   5.344  16.021 -0.2424  0.5027  0.6201
 9987TIP3    H151452   1.588   5.315  16.103 -2.9663  1.4799  2.3848
 9987TIP3    H251453   1.501   5.267  15.988 -0.2867  0.5077  0.6740
 9988TIP3   OH251454   3.162   6.748  10.272  0.1277  0.4280  0.2767
 9988TIP3    H151455   3.257   6.749  10.278  0.3659 -2.9860 -0.6621
 9988TIP3    H251456   3.131   6.756  10.362  1.3854 -0.0770  0.7655
 9989TIP3   OH251457   4.705   4.132  12.480 -0.4287  0.0136 -0.5640
 9989TIP3    H151458   4.715   4.093  12.393 -0.1865 -0.0031 -0.5305
 9989TIP3    H251459   4.791   4.168  12.500 -0.5746  0.3132 -0.4701
 9990TIP3   OH251460   2.649   6.700   6.323 -0.5006  0.6066 -0.0327
 9990TIP3    H151461   2.619   6.626   6.375 -0.5506  1.4853  1.2192
 9990TIP3    H251462   2.571   6.752   6.307  0.0880  2.4811  2.5613
 9991TIP3   OH251463   3.477   3.839  11.400  0.4852  0.3287  0.4713
 9991TIP3    H151464   3.416   3.905  11.433  0.9060  1.0500 -0.1517
 9991TIP3    H251465   3.433   3.803  11.322  1.4056  1.8389 -0.8110
 9992TIP3   OH251466   4.864   6.566  16.872  0.0766 -0.3467 -0.8085
 9992TIP3    H151467   4.816   6.563  16.789 -0.1401 -0.1083 -0.6954
 9992TIP3    H251468   4.859   6.657  16.899 -0.1527 -0.4883 -0.3620
 9993TIP3   OH251469   3.829   0.643   4.258  0.1606 -0.6215 -0.7937
 9993TIP3    H151470   3.880   0.658   4.179  2.3309  1.2506  0.8168
 9993TIP3    H251471   3.748   0.691   4.245 -0.9151 -2.8675 -3.0388
 9994TIP3   OH251472   2.211   0.958  16.738 -0.1373 -0.8534  0.1130
 9994TIP3    H151473   2.133   0.990  16.782  0.0549 -0.5222  0.2144
 9994TIP3    H251474   2.202   0.863  16.738  0.3441 -0.9273  1.7761
 9995TIP3   OH251475   2.202   3.797   4.514 -0.0095  0.9727 -0.2377
 9995TIP3    H151476   2.244   3.882   4.528 -0.7067  1.4915 -1.1145
 9995TIP3    H251477   2.146   3.811   4.437  0.1972 -0.4030 -0.6748
 9996TIP3   OH251478   6.316   3.291  14.770 -0.9414  0.3990  0.0378
 9996TIP3    H151479   6.386   3.273  14.832 -0.6581  1.7547  0.1300
 9996TIP3    H251480   6.299   3.206  14.728  0.7890  0.0540 -0.0405
 9997TIP3   OH251481   5.052   5.627   1.375  0.0101 -0.2705 -0.0570
 9997TIP3    H151482   5.110   5.613   1.301  0.7211  1.3709  0.1353
 9997TIP3    H251483   4.975   5.670   1.338 -0.1579 -0.5205 -0.0031
 9998TIP3   OH251484   6.685   4.119   2.440 -0.5305 -0.2406  0.1162
 9998TIP3    H151485   6.750   4.060   2.401 -0.5111 -2.0382  2.6397
 9998TIP3    H251486   6.695   4.107   2.534 -2.5219  1.6950  0.6477
 9999TIP3   OH251487   0.850   5.146  16.648 -0.7237  0.6853  0.5272
 9999TIP3    H151488   0.915   5.173  16.712  1.7806  0.3252 -1.6920
 9999TIP3    H251489   0.837   5.223  16.592 -3.5466  1.2915  1.8411
10000TIP3   OH251490   3.320   4.834   3.806  0.0314 -0.1765  0.2616
10000TIP3    H151491   3.310   4.748   3.766 -0.9537 -0.4164  0.9718
10000TIP3    H251492   3.237   4.878   3.788  0.8364  0.9415 -0.8067
10001TIP3   OH251493   3.133   2.590  14.166  0.3597  0.7970  0.0499
10001TIP3    H151494   3.131   2.678  14.129 -1.0977  0.9369  0.3819
10001TIP3    H251495   3.064   2.590  14.233  0.0864 -0.6979 -0.1817
10002TIP3   OH251496   2.057   2.697  14.081  0.0593  0.2647  0.7524
10002TIP3    H151497   2.002   2.619  14.073  0.6800 -0.2661  1.5003
10002TIP3    H251498   1.997   2.770  14.064 -0.3450 -0.3866 -0.8580
10003TIP3   OH251499   0.514   1.731   2.161  0.2351 -0.1406  0.1335
10003TIP3    H151500   0.575   1.801   2.136 -0.6391 -0.1481 -2.3175
10003TIP3    H251501   0.428   1.771   2.156 -0.1959 -1.0546 -0.0314
10004TIP3   OH251502   2.321   4.740  10.644  0.1545 -0.0698 -0.1710
10004TIP3    H151503   2.266   4.785  10.582 -1.2073  0.7878  1.5711
10004TIP3    H251504   2.367   4.674  10.592  0.1909  1.5356 -2.2975
10005TIP3   OH251505   4.736   4.641  13.064  0.0240 -0.1194  0.5800
10005TIP3    H151506   4.687   4.661  13.144  1.6720  0.8463  1.3902
10005TIP3    H251507   4.707   4.708  13.001 -1.1258 -0.7626  0.3853
10006TIP3   OH251508   3.709   4.816  15.019 -0.3360 -0.8518  0.9478
10006TIP3    H151509   3.788   4.789  15.065  0.2557 -0.5357  0.1465
10006TIP3    H251510   3.639   4.763  15.057  0.3133 -1.3569  1.4554
10007TIP3   OH251511   0.463   6.728  12.114  0.0430 -1.2347  0.3759
10007TIP3    H151512   0.399   6.796  12.134  1.1983 -0.8108  2.9938
10007TIP3    H251513   0.496   6.750  12.027 -1.3192  0.1562  0.1864
10008TIP3   OH251514   0.986   2.977   2.442  0.0444 -0.8435  0.2892
10008TIP3    H151515   1.015   3.012   2.525  1.3085 -0.2081 -0.3950
10008TIP3    H251516   1.037   3.025   2.376 -0.6252 -1.6140 -0.8295
10009TIP3   OH251517   5.020   3.611  11.834 -0.5111  0.0451 -0.1047
10009TIP3    H151518   5.091   3.654  11.787  0.0416 -0.1007  0.5723
10009TIP3    H251519   5.034   3.517  11.817  0.4910 -0.1075  1.4040
10010TIP3   OH251520   0.469   0.120  11.876  0.4607  0.5013 -0.2937
10010TIP3    H151521   0.565   0.122  11.879  0.5174  2.4935 -1.5463
10010TIP3    H251522   0.441   0.191  11.934 -0.2676 -0.0069 -0.0091
10011TIP3   OH251523   1.775   1.923   4.215  0.0584 -0.7907  0.4249
10011TIP3    H151524   1.707   1.976   4.257  0.9328  0.0441  0.8270
10011TIP3    H251525   1.730   1.876   4.146 -0.7317  0.5949 -0.0362
10012TIP3   OH251526   1.843   3.708  16.775 -0.0455 -0.4009  0.4102
10012TIP3    H151527   1.772   3.718  16.838 -1.1455  0.3300 -0.8862
10012TIP3    H251528   1.898   3.784  16.789  0.1338 -0.6295  0.9819
10013TIP3   OH251529   5.305   4.036   3.177 -0.5684 -0.1746  0.2692
10013TIP3    H151530   5.330   4.068   3.091  0.5069 -0.7219  0.3603
10013TIP3    H251531   5.292   4.115   3.230  1.8082  0.1690  0.4306
10014TIP3   OH251532   5.922   4.535  14.307  0.2202  0.2218 -0.1147
10014TIP3    H151533   6.011   4.570  14.295 -0.6495  2.3982 -0.7595
10014TIP3    H251534   5.887   4.582  14.383 -0.0891 -1.3040  0.7217
10015TIP3   OH251535   4.066   6.538   0.581 -0.1827 -0.1455 -0.6382
10015TIP3    H151536   4.111   6.458   0.554  0.4663  0.3437 -1.0340
10015TIP3    H251537   4.041   6.522   0.672  0.0173 -0.7626 -0.6899
10016TIP3   OH251538   2.360   3.152  14.589 -0.0456 -0.0287 -0.4986
10016TIP3    H151539   2.314   3.217  14.535 -0.0746 -0.1929 -0.6696
10016TIP3    H251540   2.341   3.179  14.679 -0.6707 -0.2254 -0.5674
10017TIP3   OH251541   3.031   0.823   5.765  0.1422 -0.1143  0.2437
10017TIP3    H151542   3.017   0.917   5.775  3.6440  0.8145 -1.7669
10017TIP3    H251543   2.998   0.802   5.678  0.1037 -0.5808  0.3627
10018TIP3   OH251544   6.373   4.682   1.734  0.6463  0.0915  0.2250
10018TIP3    H151545   6.411   4.729   1.808 -0.4060  1.6732 -0.1826
10018TIP3    H251546   6.365   4.592   1.764  1.3913  0.4424  1.5743
10019TIP3   OH251547   4.763   5.346   2.704  0.4979 -0.3278 -0.8065
10019TIP3    H151548   4.858   5.359   2.705  0.4309  0.3840 -2.1163
10019TIP3    H251549   4.729   5.418   2.652 -0.6559 -1.2342 -1.3680
10020TIP3   OH251550   2.984   3.236   1.663 -0.0337 -0.4254 -0.6920
10020TIP3    H151551   3.008   3.328   1.673 -0.8374 -0.1215 -1.4273
10020TIP3    H251552   2.917   3.221   1.730  1.1112 -0.8825  0.3901
10021TIP3   OH251553   2.822   3.701   2.484  0.1151  0.0096 -0.2023
10021TIP3    H151554   2.852   3.787   2.513 -0.6369  0.1965  0.0444
10021TIP3    H251555   2.745   3.720   2.430  1.0121 -0.3923 -1.6595
10022TIP3   OH251556   3.581   4.065   1.090  0.4050  0.4260 -0.7088
10022TIP3    H151557   3.615   4.058   1.001 -2.0968 -1.2568 -1.6520
10022TIP3    H251558   3.545   3.978   1.109 -1.3360  1.4251  0.9774
10023TIP3   OH251559   4.444   6.135   3.644  0.0993 -0.0554  0.2006
10023TIP3    H151560   4.474   6.219   3.679 -1.4124  1.1155 -1.1456
10023TIP3    H251561   4.372   6.110   3.701  0.4033 -0.3326  0.4654
10024TIP3   OH251562   4.612   5.779  16.448 -0.0834  0.1651  0.5211
10024TIP3    H151563   4.696   5.734  16.460 -0.4230 -0.4124  0.7440
10024TIP3    H251564   4.628   5.839  16.375  0.5900  0.2167  0.7019
10025TIP3   OH251565   4.263   0.142   2.325 -0.1148  0.0119  0.3749
10025TIP3    H151566   4.342   0.129   2.378  0.1884 -0.6746 -0.2174
10025TIP3    H251567   4.192   0.144   2.388  0.1321 -1.7201  0.7810
10026TIP3   OH251568   2.440   4.430   0.124 -0.2019 -0.4120  0.4694
10026TIP3    H151569   2.477   4.351   0.084 -2.5442 -1.1624 -0.3817
10026TIP3    H251570   2.410   4.483   0.050 -0.6499  0.2406  1.1053
10027TIP3   OH251571   2.618   6.140   5.430  0.3546  0.1623  0.3162
10027TIP3    H151572   2.603   6.181   5.346 -0.1216 -0.8979 -0.1433
10027TIP3    H251573   2.559   6.064   5.430  1.4796 -0.7402  0.9477
10028TIP3   OH251574   6.695   2.961   1.203 -0.3697  0.0626  0.4135
10028TIP3    H151575   6.603   2.984   1.197 -0.4254 -0.3866 -0.6408
10028TIP3    H251576   6.740   3.022   1.144 -0.1809 -0.6221 -0.1741
10029TIP3   OH251577   4.074   6.140   0.143 -0.4024 -0.1506  0.2656
10029TIP3    H151578   4.121   6.186   0.073 -1.0035  0.3150  0.1557
10029TIP3    H251579   3.983   6.167   0.131 -0.6177 -0.6458  0.7827
10030TIP3   OH251580   0.909   4.984  15.607  0.0008 -0.0471 -0.0058
10030TIP3    H151581   0.942   5.074  15.614 -0.0346  0.2345 -2.6310
10030TIP3    H251582   0.920   4.948  15.696  1.2492  2.0968  0.7957
10031TIP3   OH251583   5.321   4.081  13.038  0.0801  0.1368 -0.6576
10031TIP3    H151584   5.330   4.002  13.091 -1.0608  0.5637  0.2031
10031TIP3    H251585   5.228   4.104  13.044  0.3252  1.3427 -1.1846
10032TIP3   OH251586   6.630   5.763   4.217  0.4182  0.3091  0.0509
10032TIP3    H151587   6.547   5.721   4.192 -0.6334  1.9709  0.5491
10032TIP3    H251588   6.653   5.723   4.301 -0.6181  0.7529  0.5724
10033TIP3   OH251589   5.265   1.733  14.347 -0.1407 -1.1011 -0.3373
10033TIP3    H151590   5.285   1.694  14.262  1.0263 -0.3027 -0.4653
10033TIP3    H251591   5.350   1.736  14.392 -0.3492  0.3423  0.0382
10034TIP3   OH251592   3.913   4.716   3.370  0.0782 -0.1319 -0.3570
10034TIP3    H151593   3.978   4.751   3.431  2.5532 -2.8037 -1.2373
10034TIP3    H251594   3.924   4.769   3.290 -1.5897  1.8784  0.6499
10035TIP3   OH251595   5.093   0.087   1.003  0.8137 -0.1506  0.2191
10035TIP3    H151596   5.181   0.119   1.023  0.4764  1.3609 -0.5556
10035TIP3    H251597   5.082   0.009   1.058  1.5561  1.2724  2.5257
10036TIP3   OH251598   3.858   3.556  14.149 -0.6679  0.5028  0.0134
10036TIP3    H151599   3.933   3.497  14.160 -0.5499  0.9052  1.6088
10036TIP3    H251600   3.819   3.562  14.237 -2.5380  0.3745 -0.7546
10037TIP3   OH251601   2.344   2.549  10.795 -0.1436 -0.0520  0.4954
10037TIP3    H151602   2.420   2.500  10.828  0.3640  1.0679  1.0779
10037TIP3    H251603   2.359   2.556  10.701  0.3908 -0.0172  0.5761
10038TIP3   OH251604   5.637   5.561   2.274  0.7338  0.0333  0.3128
10038TIP3    H151605   5.565   5.553   2.211  0.5943 -0.8828  0.5820
10038TIP3    H251606   5.645   5.655   2.289 -1.5407  0.1041  1.5552
10039TIP3   OH251607   5.995   5.627  12.489  0.3319 -0.6075 -0.0822
10039TIP3    H151608   6.069   5.685  12.472 -0.6675  0.6009 -0.4902
10039TIP3    H251609   6.028   5.564  12.553  1.6642 -0.0170 -0.1591
10040TIP3   OH251610   3.774   2.548   5.266  0.0885 -0.2477 -0.2261
10040TIP3    H151611   3.742   2.477   5.321 -0.2270  0.0391 -0.0316
10040TIP3    H251612   3.868   2.532   5.258  0.3332  0.2761  1.2545
10041TIP3   OH251613   5.299   4.403   1.273 -0.0306  0.1288 -0.4804
10041TIP3    H151614   5.327   4.415   1.182 -0.1045 -0.1318 -0.5374
10041TIP3    H251615   5.370   4.441   1.325 -0.3799  1.0666 -0.6652
10042TIP3   OH251616   6.352   5.325  15.443  0.1345 -0.4376 -0.4414
10042TIP3    H151617   6.398   5.269  15.380  1.7302 -0.2624  0.5075
10042TIP3    H251618   6.421   5.380  15.481 -0.9918  0.3700  0.5190
10043TIP3   OH251619   1.068   0.639  16.410  0.2516  0.1003  0.1350
10043TIP3    H151620   0.983   0.635  16.366  0.0388 -0.9824  0.6094
10043TIP3    H251621   1.055   0.701  16.482 -0.4855 -0.8523  0.8689
10044TIP3   OH251622   0.385   5.647   1.762 -0.6041  0.4291 -0.2673
10044TIP3    H151623   0.301   5.686   1.790 -0.1907  0.9427  0.2837
10044TIP3    H251624   0.449   5.681   1.825 -0.4914 -2.5289  1.4040
10045TIP3   OH251625   0.278   6.039  12.528  0.3291 -0.1593  0.3893
10045TIP3    H151626   0.310   6.112  12.475 -1.7008 -0.6883 -1.7647
10045TIP3    H251627   0.299   6.064  12.618 -0.1779  3.0550 -0.2430
10046TIP3   OH251628   0.177   1.098  16.356 -0.3559  0.1760 -0.0314
10046TIP3    H151629   0.087   1.066  16.371 -0.3595  0.2494  0.1046
10046TIP3    H251630   0.192   1.084  16.262  0.2682 -1.8694  0.3168
10047TIP3   OH251631   4.186   1.209  14.039  0.0751 -0.0279  0.7364
10047TIP3    H151632   4.235   1.210  14.122 -2.7501  1.2640  2.5404
10047TIP3    H251633   4.133   1.130  14.043 -1.2870  0.8635  1.0043
10048TIP3   OH251634   4.907   2.436  13.311  0.2139  0.0488 -0.4935
10048TIP3    H151635   4.835   2.484  13.353  0.2397  0.2634 -0.6898
10048TIP3    H251636   4.921   2.483  13.228  0.3613 -0.1913 -0.6040
10049TIP3   OH251637   0.999   4.588  12.504 -0.2389  0.4294 -0.5362
10049TIP3    H151638   1.012   4.610  12.597  1.5899  1.2590 -0.9287
10049TIP3    H251639   0.984   4.672  12.461 -1.9606 -0.0388 -0.8992
10050TIP3   OH251640   3.326   1.508  16.314 -0.4285  0.1350 -0.5720
10050TIP3    H151641   3.349   1.583  16.260 -1.6694  0.5432 -0.5726
10050TIP3    H251642   3.402   1.494  16.371  0.2749  0.6508 -1.3640
10051TIP3   OH251643   4.816   2.021  15.722 -0.2146 -0.9262 -0.2042
10051TIP3    H151644   4.859   1.946  15.680 -0.4252 -0.3945 -1.4193
10051TIP3    H251645   4.745   2.045  15.662  1.9469  2.4141 -1.7280
10052TIP3   OH251646   5.999   5.045  13.136  0.0688  0.7009  0.5438
10052TIP3    H151647   5.970   5.046  13.227 -0.3611 -0.4027  0.4381
10052TIP3    H251648   6.089   5.076  13.139 -0.1718  1.3450  1.2550
10053TIP3   OH251649   5.199   5.624   3.556  0.4592 -0.2062 -0.3584
10053TIP3    H151650   5.239   5.561   3.616  0.2796  0.0963  0.0870
10053TIP3    H251651   5.255   5.701   3.560 -0.6411  0.5776  0.9961
10054TIP3   OH251652   1.249   5.288  14.455  0.7599  0.1418  0.2418
10054TIP3    H151653   1.336   5.259  14.482  0.3013 -0.1099  1.5147
10054TIP3    H251654   1.228   5.361  14.515 -0.3972 -0.5944  0.7759
10055TIP3   OH251655   2.394   5.720  15.436  0.4985  0.0634  0.4256
10055TIP3    H151656   2.301   5.727  15.414  0.6429 -0.6655 -0.5010
10055TIP3    H251657   2.418   5.631  15.411  1.3508  0.0999  1.0679
10056TIP3   OH251658   3.017   6.248  12.327 -0.2958 -0.4071  0.0458
10056TIP3    H151659   3.028   6.171  12.383  0.5650  0.2670  0.8320
10056TIP3    H251660   3.100   6.256  12.280  0.2238  0.9408  1.1456
10057TIP3   OH251661   0.927   3.055   0.798  0.6296 -0.6300  0.0816
10057TIP3    H151662   0.934   3.117   0.725 -3.4617 -2.1011 -1.8510
10057TIP3    H251663   0.922   3.110   0.876  1.3673  1.1752 -1.0781
10058TIP3   OH251664   5.560   3.524   1.552  0.4361  0.4473 -0.6196
10058TIP3    H151665   5.642   3.569   1.576 -0.7357  1.1460  2.4605
10058TIP3    H251666   5.564   3.441   1.599 -0.3573  0.2087 -0.9731
10059TIP3   OH251667   1.449   0.826  15.380 -0.0143 -0.4720  0.0627
10059TIP3    H151668   1.533   0.832  15.426  0.3089 -0.1148 -0.5676
10059TIP3    H251669   1.434   0.732  15.370 -0.0194 -0.5534  0.7562
10060TIP3   OH251670   6.067   1.014  15.003  0.3273 -0.3288  0.0498
10060TIP3    H151671   5.993   0.955  15.014 -1.7145  2.2134  1.1067
10060TIP3    H251672   6.091   1.040  15.092  0.3205  1.3302 -0.3878
10061TIP3   OH251673   2.691   6.689  12.325 -0.4981  0.5295 -0.2839
10061TIP3    H151674   2.722   6.599  12.334 -2.2521  0.0156  1.3121
10061TIP3    H251675   2.735   6.737  12.395  0.4298  0.9356 -1.1280
10062TIP3   OH251676   6.110   6.240   1.193  0.0753 -0.0342  0.4793
10062TIP3    H151677   6.090   6.202   1.278 -0.0719  0.7819  0.8179
10062TIP3    H251678   6.193   6.200   1.168  0.2559 -0.0794  1.1319
10063TIP3   OH251679   1.749   3.275  15.032  0.6772 -0.6988  0.0505
10063TIP3    H151680   1.836   3.314  15.023 -0.2391  1.2747 -0.8201
10063TIP3    H251681   1.763   3.182  15.014  2.4470 -0.2614 -1.1556
10064TIP3   OH251682   5.015   0.652  14.301 -0.1047 -0.8027 -0.0627
10064TIP3    H151683   4.974   0.632  14.385 -0.9348  3.1056  0.6616
10064TIP3    H251684   5.106   0.628  14.312  0.5534  2.3220  3.2876
10065TIP3   OH251685   5.669   1.304  15.718  0.4318 -0.5460  0.2742
10065TIP3    H151686   5.679   1.252  15.638  1.7468  1.7946 -1.1954
10065TIP3    H251687   5.580   1.339  15.714  0.5246 -0.3673 -0.2029
10066TIP3   OH251688   4.266   3.980  13.201 -0.2029  0.0929  0.0004
10066TIP3    H151689   4.355   3.969  13.166 -0.3475  0.2171 -0.4042
10066TIP3    H251690   4.213   4.006  13.126 -0.4939  0.4635  0.3280
10067TIP3   OH251691   4.892   4.470   2.589 -0.3266 -0.7824  0.3403
10067TIP3    H151692   4.861   4.387   2.553 -4.0052 -0.3898  2.1807
10067TIP3    H251693   4.951   4.444   2.660  2.2517 -1.5846 -1.8875
10068TIP3   OH251694   0.937   0.546   0.517  0.0873  0.3140 -0.3726
10068TIP3    H151695   0.980   0.482   0.460 -2.7107 -1.3393 -0.7806
10068TIP3    H251696   0.995   0.623   0.513  2.2037 -1.2274 -1.9864
10069TIP3   OH251697   0.340   3.179  12.772  0.0239  0.3016 -0.4817
10069TIP3    H151698   0.431   3.154  12.790 -0.2258 -0.4239 -0.2183
10069TIP3    H251699   0.319   3.242  12.841 -0.2525 -0.9034  0.5761
10070TIP3   OH251700   6.131   1.261   3.435  0.1684  0.0733  0.4588
10070TIP3    H151701   6.156   1.295   3.521 -0.7779  0.2783  0.6715
10070TIP3    H251702   6.039   1.287   3.425  0.1073 -0.4202 -0.3803
10071TIP3   OH251703   4.001   2.413  12.115 -0.3041 -0.1646 -0.0169
10071TIP3    H151704   3.916   2.389  12.152 -0.4020 -1.0474 -0.7759
10071TIP3    H251705   3.985   2.495  12.069 -0.6552 -0.1239  0.1793
10072TIP3   OH251706   4.352   0.794  12.344  0.0737 -0.4452 -0.4793
10072TIP3    H151707   4.351   0.845  12.262 -0.5189 -1.5839 -1.2057
10072TIP3    H251708   4.435   0.746  12.340 -0.6526 -1.6889 -1.1945
10073TIP3   OH251709   5.696   3.961  12.689 -0.1156 -0.2436 -0.1150
10073TIP3    H151710   5.779   3.996  12.721 -0.9448  0.4045  1.4707
10073TIP3    H251711   5.630   4.019  12.726 -1.4442 -2.4153  1.1519
10074TIP3   OH251712   0.367   2.010   5.272 -0.1348  0.3545  0.2468
10074TIP3    H151713   0.364   2.001   5.367  0.7106  3.0368  0.6131
10074TIP3    H251714   0.460   2.002   5.250 -0.5344 -2.6947 -0.7413
10075TIP3   OH251715   3.302   6.384  11.222  0.3938  0.3200 -0.0935
10075TIP3    H151716   3.358   6.307  11.230  0.7784  0.8004  3.6936
10075TIP3    H251717   3.358   6.450  11.180  2.5467  0.5128  2.7649
10076TIP3   OH251718   0.907   3.267  13.938  0.0225  0.5083 -0.1489
10076TIP3    H151719   0.858   3.315  14.005 -0.9070  0.8232 -1.0290
10076TIP3    H251720   0.962   3.206  13.988 -0.3450  1.0030  0.9066
10077TIP3   OH251721   3.281   3.203  16.085  0.1074 -0.0143 -0.4295
10077TIP3    H151722   3.293   3.258  16.162 -0.1792  1.1321 -1.1758
10077TIP3    H251723   3.360   3.149  16.082  0.6612  0.7472  0.0215
10078TIP3   OH251724   5.680   6.030  13.857 -0.4377 -0.0042 -0.3060
10078TIP3    H151725   5.601   6.044  13.805  0.7962  1.7625 -1.8695
10078TIP3    H251726   5.748   6.011  13.792  0.3641 -2.0964  1.0346
10079TIP3   OH251727   6.771   5.642   5.034 -0.3604  0.1146  0.0918
10079TIP3    H151728   6.756   5.723   4.986  2.8991 -0.5375 -2.3866
10079TIP3    H251729   6.860   5.650   5.067 -1.0846 -1.2307  2.6359
10080TIP3   OH251730   0.487   1.497  10.889  0.5589 -0.8843 -0.4344
10080TIP3    H151731   0.524   1.451  10.814  0.1327 -0.9732 -0.5952
10080TIP3    H251732   0.406   1.536  10.856 -0.2800 -1.9507  0.2722
10081TIP3   OH251733   0.346   3.138   1.420  0.1855  0.2198 -0.0956
10081TIP3    H151734   0.411   3.208   1.409  1.1639 -0.4745  1.0333
10081TIP3    H251735   0.291   3.169   1.492  1.8261 -0.9799  1.7643
10082TIP3   OH251736   4.442   4.426   4.358  0.0045  0.1760  0.4191
10082TIP3    H151737   4.455   4.383   4.443  0.6750 -2.1958 -0.7863
10082TIP3    H251738   4.527   4.418   4.315  0.1425  2.7719  0.0724
10083TIP3   OH251739   2.671   1.139  13.140 -0.6697 -0.1850 -0.4378
10083TIP3    H151740   2.581   1.109  13.154 -1.5253  1.0153 -2.8935
10083TIP3    H251741   2.693   1.185  13.221 -2.3823 -0.2086  0.0893
10084TIP3   OH251742   1.975   4.056  13.880  0.1648 -0.2414 -0.0780
10084TIP3    H151743   2.029   3.977  13.879 -2.1842 -1.9503  0.7935
10084TIP3    H251744   1.896   4.033  13.832 -0.9512  1.2896  0.8973
10085TIP3   OH251745   2.558   3.994  14.910 -0.0160  0.2559 -0.7653
10085TIP3    H151746   2.599   4.057  14.851 -0.4984  0.0262 -1.3610
10085TIP3    H251747   2.533   3.921  14.853 -3.4307  1.3847 -0.9366
10086TIP3   OH251748   1.201   0.747   3.598 -0.1586  0.0226  0.6075
10086TIP3    H151749   1.227   0.753   3.690  1.4519  1.2174  0.1192
10086TIP3    H251750   1.280   0.718   3.553 -0.3887  1.1820 -0.6023
10087TIP3   OH251751   5.424   3.818   1.403 -0.1886  0.4361 -0.1552
10087TIP3    H151752   5.446   3.904   1.439  0.1841 -0.4926  2.0394
10087TIP3    H251753   5.508   3.774   1.395 -0.4300  0.0667 -0.6747
10088TIP3   OH251754   5.175   2.270   4.969  0.1007 -0.1088 -0.1919
10088TIP3    H151755   5.267   2.244   4.963  0.5710  1.4152 -0.0184
10088TIP3    H251756   5.174   2.339   5.035 -1.6054 -1.8309  1.7274
10089TIP3   OH251757   3.182   3.764   6.017  0.1619 -0.2695  0.2361
10089TIP3    H151758   3.263   3.760   6.067  0.2374 -0.2101  0.1199
10089TIP3    H251759   3.124   3.702   6.060  0.9459 -1.8565 -0.8902
10090TIP3   OH251760   4.241   2.691   3.265  0.5869  0.4943 -0.1654
10090TIP3    H151761   4.274   2.638   3.338 -0.3062  0.8115  0.4922
10090TIP3    H251762   4.191   2.630   3.211  0.0332  0.5413  0.2842
10091TIP3   OH251763   0.626   0.046  15.679  0.4944  0.1388 -0.3609
10091TIP3    H151764   0.536   0.076  15.667  0.2898  0.4148  1.5687
10091TIP3    H251765   0.640  -0.016  15.607 -0.8548  0.8825 -1.3116
10092TIP3   OH251766   3.794   4.858   5.721 -0.0585  0.2966 -0.4543
10092TIP3    H151767   3.887   4.876   5.731 -0.0830 -0.2057  0.8923
10092TIP3    H251768   3.751   4.943   5.732  0.2485  0.5576 -1.2680
10093TIP3   OH251769   6.497   2.771   3.278 -0.1256  0.3674 -0.2770
10093TIP3    H151770   6.554   2.697   3.258 -1.5685 -0.5655 -1.1082
10093TIP3    H251771   6.410   2.733   3.284 -0.5564  1.5696  2.0745
10094TIP3   OH251772   1.586   0.671   3.487 -0.0389  0.2984 -0.2962
10094TIP3    H151773   1.637   0.591   3.470  0.6005  1.1057 -2.4982
10094TIP3    H251774   1.499   0.652   3.453 -0.8657 -0.4998  2.0203
10095TIP3   OH251775   5.212   2.074  13.730 -0.1947 -0.0644  0.6097
10095TIP3    H151776   5.137   2.116  13.687 -0.9949 -0.9360  1.1061
10095TIP3    H251777   5.183   1.984  13.747  0.8978 -0.3619  0.9996
10096TIP3   OH251778   5.464   0.970  13.983  0.3398  0.2286 -0.3098
10096TIP3    H151779   5.413   0.943  14.060  0.6950  0.3215 -0.0393
10096TIP3    H251780   5.527   0.898  13.971  3.4269  2.1995  2.3019
10097TIP3   OH251781   2.059   2.580   3.045  0.2779  0.0007  0.1229
10097TIP3    H151782   2.139   2.616   3.006 -1.9215  2.5691 -2.5381
10097TIP3    H251783   2.006   2.553   2.971 -1.0058 -2.6470  1.8524
10098TIP3   OH251784   3.155   5.789   2.730  0.0022 -0.1295  0.2090
10098TIP3    H151785   3.088   5.856   2.742 -0.8346 -0.5670 -1.6739
10098TIP3    H251786   3.199   5.783   2.816  0.2711  2.9500  0.4026
10099TIP3   OH251787   3.447   4.367  13.523 -0.8036 -0.3926 -0.2802
10099TIP3    H151788   3.398   4.418  13.587 -0.0125  0.4722 -0.3323
10099TIP3    H251789   3.454   4.424  13.446  1.2844  0.0313  0.1496
10100TIP3   OH251790   6.202   1.165  14.643 -0.2111  0.6095  0.4021
10100TIP3    H151791   6.262   1.195  14.711 -2.5202  1.0323  2.3778
10100TIP3    H251792   6.214   1.070  14.641  1.4980  0.7961 -0.2934
10101TIP3   OH251793   5.969   5.206   0.874  0.0958  0.2077 -0.0746
10101TIP3    H151794   5.983   5.279   0.814  1.3135  1.1114  1.2341
10101TIP3    H251795   5.879   5.216   0.904 -0.4291 -0.0917 -1.4925
10102TIP3   OH251796   2.266   2.749   4.273  0.0119  0.5158  0.5476
10102TIP3    H151797   2.290   2.842   4.263 -0.3078  0.8218  2.3132
10102TIP3    H251798   2.226   2.744   4.360  0.7897 -1.4453  0.8449
10103TIP3   OH251799   0.279   4.423  15.392  0.4797 -0.2447  0.9850
10103TIP3    H151800   0.289   4.420  15.297  0.3117 -3.7376  0.9664
10103TIP3    H251801   0.199   4.474  15.406 -0.4324 -1.0810 -0.8777
10104TIP3   OH251802   1.494   1.416   4.664  0.4113  0.5968 -0.3292
10104TIP3    H151803   1.457   1.379   4.583  1.4471  0.4322 -0.7455
10104TIP3    H251804   1.530   1.500   4.637  0.5388  0.6554  0.0191
10105TIP3   OH251805   2.343   3.233   3.842  0.2761  0.4512  0.1730
10105TIP3    H151806   2.290   3.276   3.910 -0.0083  1.6306 -0.7659
10105TIP3    H251807   2.430   3.272   3.853 -0.1596  1.8733 -1.1585
10106TIP3   OH251808   1.701   1.349   2.743 -0.1186 -0.1533 -0.0185
10106TIP3    H151809   1.712   1.265   2.788  0.4901 -0.4178 -0.6434
10106TIP3    H251810   1.631   1.334   2.680  0.2239 -0.2911 -0.3660
10107TIP3   OH251811   3.320   2.133  12.564 -0.5187 -0.6253 -0.5809
10107TIP3    H151812   3.307   2.107  12.656 -1.2435 -2.0104 -1.0505
10107TIP3    H251813   3.232   2.130  12.526 -0.1140 -0.8360 -1.5170
10108TIP3   OH251814   0.769   6.580  15.740 -0.1223  0.2095 -0.0365
10108TIP3    H151815   0.721   6.619  15.813  0.5274  0.1752  0.4123
10108TIP3    H251816   0.740   6.630  15.663  0.0778  1.0299  0.4089
10109TIP3   OH251817   6.228   5.742  12.402 -0.2459  0.2403  0.2097
10109TIP3    H151818   6.307   5.735  12.348 -0.2118  1.2526  0.1109
10109TIP3    H251819   6.220   5.836  12.422 -1.7676  0.2527 -0.3078
10110TIP3   OH251820   4.128   0.977   1.303  0.3544 -0.4198 -0.2443
10110TIP3    H151821   4.116   0.890   1.266 -1.2375 -0.6740  0.7985
10110TIP3    H251822   4.047   0.995   1.351  0.8876  1.3881  0.0659
10111TIP3   OH251823   6.069   0.939  16.075 -0.0793 -0.1462 -0.3340
10111TIP3    H151824   6.109   1.025  16.083 -0.9526  0.2270  0.1090
10111TIP3    H251825   6.097   0.907  15.989 -1.3518  1.4299 -1.4073
10112TIP3   OH251826   3.267   2.753  11.898 -0.4622 -0.0036  0.0684
10112TIP3    H151827   3.260   2.842  11.864 -1.4584 -0.2485 -0.4171
10112TIP3    H251828   3.353   2.723  11.869 -0.2634  0.6717 -0.0653
10113TIP3   OH251829   4.194   0.292   4.778 -0.6607 -0.2424  1.1052
10113TIP3    H151830   4.271   0.341   4.751  0.1379 -1.6074  0.7957
10113TIP3    H251831   4.121   0.336   4.735  0.3733 -1.3513 -2.0911
10114TIP3   OH251832   0.965   3.173  10.540  0.2186  0.8247 -0.1250
10114TIP3    H151833   1.052   3.139  10.522 -0.3759 -1.4650  0.9898
10114TIP3    H251834   0.979   3.242  10.605  1.2125  0.6457 -0.1329
10115TIP3   OH251835   6.254   6.297  15.690 -0.0624 -0.0604  0.2978
10115TIP3    H151836   6.285   6.215  15.729 -1.7908 -0.4069  1.0382
10115TIP3    H251837   6.313   6.364  15.725  0.9052 -0.8820  0.2827
10116TIP3   OH251838   4.654   4.018   3.726  0.0138  0.0032  0.1043
10116TIP3    H151839   4.584   4.055   3.672 -0.7146 -0.7383  0.5090
10116TIP3    H251840   4.674   3.934   3.684  1.0654  0.4426 -0.3250
10117TIP3   OH251841   6.571   1.867   2.438  0.1647 -0.4706 -0.8847
10117TIP3    H151842   6.520   1.944   2.413 -0.0378 -0.1659  0.3595
10117TIP3    H251843   6.508   1.795   2.432 -0.0107 -0.3280 -0.8066
10118TIP3   OH251844   0.068   5.148  11.028  0.6244  0.0324  0.4786
10118TIP3    H151845   0.108   5.092  10.962  0.9792  0.7824  0.0431
10118TIP3    H251846   0.129   5.147  11.102  1.4460  1.1029 -0.1490
10119TIP3   OH251847   3.771   1.328  16.178  0.1190 -0.6046 -0.4176
10119TIP3    H151848   3.861   1.356  16.191  0.0265  0.0138 -1.0078
10119TIP3    H251849   3.720   1.410  16.181 -0.4898 -0.9971  0.4367
10120TIP3   OH251850   2.140   5.813   1.720  0.9887 -0.4846  0.4496
10120TIP3    H151851   2.127   5.722   1.745  2.1366 -0.3616  1.6188
10120TIP3    H251852   2.235   5.824   1.720  0.9404  0.2390 -1.4841
10121TIP3   OH251853   0.322   5.413  11.688 -0.6758  0.2610  0.0407
10121TIP3    H151854   0.314   5.497  11.644  0.5406  0.2112 -0.3141
10121TIP3    H251855   0.416   5.400  11.698 -0.8387 -1.0579  0.0771
10122TIP3   OH251856   2.759   5.133  15.267  0.5601  0.0292 -0.4072
10122TIP3    H151857   2.776   5.201  15.201  1.8151  0.7774  0.6601
10122TIP3    H251858   2.703   5.070  15.221  1.1904  0.6484 -2.1167
10123TIP3   OH251859   6.791   4.852  13.791 -0.1441 -0.0657 -0.2678
10123TIP3    H151860   6.846   4.845  13.713 -0.3400  1.8293 -0.6051
10123TIP3    H251861   6.838   4.913  13.849 -0.1458 -1.2092  1.0031
10124TIP3   OH251862   5.242   1.466   5.054 -0.2557 -0.9599 -0.0540
10124TIP3    H151863   5.154   1.488   5.085  0.0947  1.0204 -0.3720
10124TIP3    H251864   5.241   1.489   4.961  1.4399  2.0947  0.5455
10125TIP3   OH251865   2.391   1.070  15.022 -0.3934  0.3330 -0.5794
10125TIP3    H151866   2.436   0.987  15.039  0.8293  1.1223  0.2536
10125TIP3    H251867   2.314   1.067  15.078 -0.7755 -0.5531 -1.1337
10126TIP3   OH251868   0.983   2.008  14.008 -0.3747 -0.0928  0.5256
10126TIP3    H151869   1.040   1.956  13.951  1.5070  0.4058  1.8501
10126TIP3    H251870   1.004   2.099  13.985 -0.6993  0.0985  0.9768
10127TIP3   OH251871   6.243   0.851  11.608 -0.1980  0.5222  0.1184
10127TIP3    H151872   6.188   0.861  11.686  0.0034  1.2643  0.1678
10127TIP3    H251873   6.319   0.801  11.639 -0.7045 -0.2667  0.1146
10128TIP3   OH251874   2.756   0.705   5.734 -0.0415 -0.3840 -0.2228
10128TIP3    H151875   2.847   0.725   5.756  0.1188 -0.6326 -0.6577
10128TIP3    H251876   2.721   0.664   5.813 -0.4500  1.7946  0.7910
10129TIP3   OH251877   4.471   5.621  12.041 -0.4231  0.1927 -0.2276
10129TIP3    H151878   4.549   5.675  12.052 -0.3749  0.1887 -0.5386
10129TIP3    H251879   4.469   5.600  11.947 -0.9994  0.5073 -0.2907
10130TIP3   OH251880   4.407   4.652  12.363  0.0947  0.0714  0.2210
10130TIP3    H151881   4.378   4.738  12.394  0.5784 -0.7395  3.2276
10130TIP3    H251882   4.503   4.660  12.358  0.0688 -0.0157 -0.3889
10131TIP3   OH251883   2.325   0.143   6.790 -0.0330  0.3163  0.8395
10131TIP3    H151884   2.245   0.154   6.739  0.7743 -0.2503 -0.6215
10131TIP3    H251885   2.382   0.215   6.761 -0.1274  0.9700  2.1750
10132TIP3   OH251886   4.901   5.509   4.720 -0.0435  0.0463  0.2339
10132TIP3    H151887   4.842   5.479   4.651 -1.2849  0.3308  1.1415
10132TIP3    H251888   4.856   5.488   4.801  0.9121  0.6715  0.9519
10133TIP3   OH251889   4.739   4.088  16.538 -0.0337  0.1615  0.8589
10133TIP3    H151890   4.822   4.041  16.528 -1.1205 -1.8099  0.6053
10133TIP3    H251891   4.696   4.080  16.454  0.2640  2.8648  0.3441
10134TIP3   OH251892   5.328   0.130  12.142 -0.0728 -0.9248 -0.5888
10134TIP3    H151893   5.414   0.095  12.166 -0.2209 -1.6861 -1.1307
10134TIP3    H251894   5.322   0.119  12.048 -0.8199 -1.0016 -0.5440
10135TIP3   OH251895   4.388   6.045  11.424  0.3256  0.2421 -0.1815
10135TIP3    H151896   4.482   6.051  11.441  0.4496  2.1166 -1.2498
10135TIP3    H251897   4.348   6.107  11.485 -0.3635 -1.4053  1.0844
10136TIP3   OH251898   3.650   3.736   5.095  0.1135 -0.0729 -0.5192
10136TIP3    H151899   3.654   3.738   5.191 -2.5645 -2.3194 -0.2414
10136TIP3    H251900   3.736   3.700   5.070  0.7621  0.2765  1.0305
10137TIP3   OH251901   4.579   2.267  16.384  0.0223 -0.4103 -0.1598
10137TIP3    H151902   4.544   2.180  16.368 -3.2831  0.3643  2.0167
10137TIP3    H251903   4.591   2.272  16.479  0.2660  1.4707 -0.2354
10138TIP3   OH251904   3.512   2.273  12.434  0.1067  0.7599  0.3362
10138TIP3    H151905   3.436   2.247  12.487  0.3275 -0.0520  0.2652
10138TIP3    H251906   3.501   2.368  12.422 -1.2785  0.5533 -0.2619
10139TIP3   OH251907   1.708   1.575   2.939  0.3279  0.8741  0.4368
10139TIP3    H151908   1.652   1.650   2.919  0.3594  0.9212  0.5263
10139TIP3    H251909   1.665   1.501   2.895 -0.3172  0.7282  1.2923
10140TIP3   OH251910   3.646   1.349  15.207  0.1460 -0.0172 -0.7323
10140TIP3    H151911   3.551   1.349  15.222  0.5316 -1.0077  2.3941
10140TIP3    H251912   3.663   1.264  15.165 -0.1730 -0.7192  0.5067
10141TIP3   OH251913   0.841   3.474   3.866 -0.5059 -0.2636 -0.0364
10141TIP3    H151914   0.874   3.387   3.840  1.0417 -0.3119  1.8544
10141TIP3    H251915   0.797   3.460   3.949 -0.3515  0.7372  0.2307
10142TIP3   OH251916   5.734   4.397   1.031  0.1948  0.9898 -0.2301
10142TIP3    H151917   5.673   4.331   0.998  0.8731 -0.7969  1.8278
10142TIP3    H251918   5.820   4.366   1.005  0.5292  0.9643  0.8536
10143TIP3   OH251919   2.546   0.373   4.068 -0.4944  0.1415  0.0890
10143TIP3    H151920   2.525   0.286   4.034 -2.5201  1.0239 -1.1501
10143TIP3    H251921   2.473   0.428   4.039  0.4539  2.1538  1.2861
10144TIP3   OH251922   1.533   4.282  11.474  0.3414 -0.4283 -0.2177
10144TIP3    H151923   1.626   4.271  11.493  0.2184 -0.8603  0.1613
10144TIP3    H251924   1.521   4.241  11.388  0.1874 -1.9212  0.4882
10145TIP3   OH251925   4.959   3.045  15.435  0.2348 -0.2061 -0.8461
10145TIP3    H151926   4.911   3.046  15.518 -2.1007 -1.8476 -2.0234
10145TIP3    H251927   4.987   3.135  15.421 -1.6534  0.6422  0.4767
10146TIP3   OH251928   0.690   3.633   3.650  0.3221  0.6856  0.4512
10146TIP3    H151929   0.659   3.546   3.624  0.4212  0.1855  1.9119
10146TIP3    H251930   0.734   3.619   3.733  3.2367  1.6166 -0.7917
10147TIP3   OH251931   1.255   6.539   5.939 -0.2392  0.1041  0.0460
10147TIP3    H151932   1.211   6.616   5.903 -3.0579 -1.7541 -0.7779
10147TIP3    H251933   1.231   6.539   6.032  1.1029  1.0281  0.4192
10148TIP3   OH251934   2.138   3.179   0.182  0.6453 -0.1549 -0.3294
10148TIP3    H151935   2.090   3.138   0.255  1.8685  0.3015  0.7832
10148TIP3    H251936   2.216   3.216   0.224  1.0248  0.7394 -1.7858
10149TIP3   OH251937   6.617   6.410  11.167 -0.0217  0.3168  0.4449
10149TIP3    H151938   6.575   6.433  11.084  0.8713  2.1691  0.4547
10149TIP3    H251939   6.552   6.434  11.234  0.4025  1.7501  0.3881
10150TIP3   OH251940   1.379   2.759   2.014  0.0286 -0.3327 -0.2915
10150TIP3    H151941   1.371   2.711   2.096 -3.3848  0.1584 -0.1790
10150TIP3    H251942   1.370   2.851   2.038 -3.1709 -0.2647 -1.2288
10151TIP3   OH251943   0.156   6.279  15.196  0.2034  0.3921 -0.4289
10151TIP3    H151944   0.065   6.298  15.219 -0.4981  0.8216 -3.2268
10151TIP3    H251945   0.159   6.183  15.187 -0.2775  0.4478 -1.3289
10152TIP3   OH251946   4.406   2.019   3.774 -0.0225  0.2495  0.0623
10152TIP3    H151947   4.311   2.014   3.784 -0.2348 -1.6252 -2.0332
10152TIP3    H251948   4.440   1.986   3.857 -1.2581 -1.1251  0.0674
10153TIP3   OH251949   6.427   5.988   1.398  0.0272  0.3801 -0.0314
10153TIP3    H151950   6.377   6.027   1.470  1.8469 -0.5802  1.8654
10153TIP3    H251951   6.473   6.062   1.358 -0.8541  0.8972 -0.1348
10154TIP3   OH251952   4.742   1.341  15.131 -0.5104  0.0134  0.0147
10154TIP3    H151953   4.824   1.381  15.159 -0.1478  1.0635 -2.3388
10154TIP3    H251954   4.716   1.286  15.205  2.1266 -0.1021  0.9553
10155TIP3   OH251955   2.366   0.533   1.374 -0.2246  0.2204  0.5893
10155TIP3    H151956   2.344   0.470   1.306  1.0525  0.5637 -0.1713
10155TIP3    H251957   2.420   0.484   1.436 -1.9969 -0.2981  1.8149
10156TIP3   OH251958   1.994   6.007  15.548  0.0165  0.4511  0.1409
10156TIP3    H151959   2.069   5.964  15.507 -1.0686 -3.3901  1.7174
10156TIP3    H251960   1.942   6.039  15.474  1.8789  0.8915 -1.0673
10157TIP3   OH251961   4.794   3.030   1.022 -0.0277 -0.2154 -0.0220
10157TIP3    H151962   4.755   2.942   1.021 -2.5633  0.8082 -0.0598
10157TIP3    H251963   4.859   3.029   0.953 -0.7047 -1.7957 -0.6806
10158TIP3   OH251964   1.179   4.993  14.330 -0.1083  0.0668  0.2065
10158TIP3    H151965   1.095   4.999  14.374  0.4822  0.0466  1.3833
10158TIP3    H251966   1.227   5.072  14.358  0.7096 -0.5398  0.5654
10159TIP3   OH251967   2.984   1.957  12.575 -0.1713  0.0016 -0.2261
10159TIP3    H151968   3.013   2.044  12.547 -0.0344 -0.1069 -0.4265
10159TIP3    H251969   3.047   1.929  12.641 -0.7106  0.4177  0.4798
10160TIP3   OH251970   0.474   2.166  15.396 -0.2458  0.5520 -0.3669
10160TIP3    H151971   0.398   2.190  15.450  0.3819  0.8410  0.4056
10160TIP3    H251972   0.541   2.140  15.460  0.3499  0.4358 -1.0370
10161TIP3   OH251973   2.583   3.260  13.194  0.3557 -0.0474  0.6057
10161TIP3    H151974   2.516   3.192  13.199  0.7763 -0.5007  0.2762
10161TIP3    H251975   2.639   3.232  13.120 -0.0852  1.2131 -0.2311
10162TIP3   OH251976   2.546   4.249   2.630  0.8914 -0.5293  0.8287
10162TIP3    H151977   2.473   4.311   2.636  1.0676 -0.1934 -0.1930
10162TIP3    H251978   2.515   4.171   2.675 -1.3844 -1.5403 -2.1438
10163TIP3   OH251979   1.514   4.405   2.624  0.1366 -0.1882  0.4954
10163TIP3    H151980   1.504   4.483   2.570 -0.0394 -1.1119 -0.8711
10163TIP3    H251981   1.554   4.340   2.566  2.5315 -0.4314  2.2619
10164TIP3   OH251982   2.554   3.519  16.472  0.0581  0.2264  0.3311
10164TIP3    H151983   2.477   3.550  16.521  0.4765  1.9439 -0.0257
10164TIP3    H251984   2.528   3.432  16.440 -0.9908 -0.0672  1.8385
10165TIP3   OH251985   1.159   2.587   2.479  0.1587 -0.3154 -0.0582
10165TIP3    H151986   1.199   2.593   2.566 -0.4121 -0.2028  0.1995
10165TIP3    H251987   1.065   2.594   2.495  0.0494 -0.2806 -0.6878
10166TIP3   OH251988   5.171   4.868  16.979  0.2173 -0.1229 -0.5635
10166TIP3    H151989   5.147   4.958  17.001  0.7088  0.6866 -3.0157
10166TIP3    H251990   5.088   4.822  16.972 -0.0428  0.1124  0.6453
10167TIP3   OH251991   3.953   1.016  16.522  0.1728 -0.2873 -0.2490
10167TIP3    H151992   3.865   1.002  16.556  0.3632  0.8692  0.7821
10167TIP3    H251993   4.010   0.969  16.584  0.3406 -0.3010 -0.4117
10168TIP3   OH251994   4.267   6.751   6.579  0.3817 -0.4028 -0.6280
10168TIP3    H151995   4.336   6.699   6.538  0.3792 -1.0394  0.1729
10168TIP3    H251996   4.313   6.808   6.641  0.5522  1.5696 -2.4446
10169TIP3   OH251997   5.401   0.296   4.055  0.3833 -0.2695  0.4210
10169TIP3    H151998   5.372   0.213   4.018 -0.0689 -1.2767  2.8861
10169TIP3    H251999   5.464   0.330   3.991  0.3194 -2.3109 -0.8042
10170TIP3   OH252000   0.475   0.683   0.634 -0.5114 -0.1915  0.0051
10170TIP3    H152001   0.404   0.682   0.569  0.2562  1.8522 -0.9595
10170TIP3    H252002   0.554   0.670   0.582 -0.0933 -2.0353  1.0240
10171TIP3   OH252003   4.214   6.002   1.562 -1.0481  0.3874 -0.5983
10171TIP3    H152004   4.198   6.081   1.615 -0.1576  0.7129 -0.7873
10171TIP3    H252005   4.247   5.938   1.625 -1.3513  0.3047 -0.5207
10172TIP3   OH252006   3.583   6.154   0.486 -0.8116  0.1647  0.2767
10172TIP3    H152007   3.499   6.180   0.524 -1.3694  0.1637 -0.9067
10172TIP3    H252008   3.571   6.062   0.463 -0.8915  0.4605 -0.9210
10173TIP3   OH252009   0.969   4.685   6.679  0.2638  0.5015  0.4164
10173TIP3    H152010   0.945   4.654   6.766 -0.4860  0.8003  0.3266
10173TIP3    H252011   1.009   4.771   6.694 -1.4490  1.3647  0.3664
10174TIP3   OH252012   6.315   3.632  14.852  0.0493 -0.2952  0.1807
10174TIP3    H152013   6.283   3.685  14.925 -0.9963  0.6310 -0.9083
10174TIP3    H252014   6.406   3.611  14.875  0.1509  1.0859  1.1382
10175TIP3   OH252015   5.102   1.957   0.519  0.3975 -0.6647 -0.1258
10175TIP3    H152016   5.033   1.897   0.490  0.0090 -0.0404 -0.5164
10175TIP3    H252017   5.123   1.929   0.608 -2.0104  0.5421  0.9242
10176TIP3   OH252018   3.798   6.725  11.259 -0.3888 -0.6199 -0.1919
10176TIP3    H152019   3.781   6.634  11.234 -1.3056 -0.7188  0.7248
10176TIP3    H252020   3.716   6.755  11.298  0.2600  0.2475  0.5524
10177TIP3   OH252021   5.221   5.907  14.552  0.8169  0.3342 -0.1810
10177TIP3    H152022   5.314   5.931  14.560  0.8114  0.5803 -0.7606
10177TIP3    H252023   5.219   5.848  14.476  0.4902  0.3747 -0.2010
10178TIP3   OH252024   5.235   6.729  15.611 -0.2432 -0.7187  0.0708
10178TIP3    H152025   5.234   6.633  15.613  0.8781 -0.7744 -0.9085
10178TIP3    H252026   5.176   6.752  15.538  0.0025 -0.6876 -0.1182
10179TIP3   OH252027   4.504   2.191   2.653 -0.2062 -0.1278 -0.2163
10179TIP3    H152028   4.518   2.218   2.743  0.2778  0.3251 -0.4192
10179TIP3    H252029   4.426   2.136   2.656  0.7633 -1.4992  0.7285
10180TIP3   OH252030   3.192   4.652   4.579 -0.2822 -0.4867  0.3703
10180TIP3    H152031   3.251   4.647   4.654  0.0533 -0.8841  0.0902
10180TIP3    H252032   3.113   4.606   4.607 -0.5542  0.2625  0.8354
10181TIP3   OH252033   3.324   1.304   6.374  0.3123  0.5217 -0.5213
10181TIP3    H152034   3.235   1.336   6.360  0.2737  1.3768  1.3355
10181TIP3    H252035   3.380   1.369   6.332  0.0800  0.4890 -0.8784
10182TIP3   OH252036   5.063   1.739  15.837  0.4690 -0.3488  0.3428
10182TIP3    H152037   5.137   1.704  15.788  0.2268 -0.2829 -0.0745
10182TIP3    H252038   4.996   1.756  15.771  0.2863  0.1228  0.6410
10183TIP3   OH252039   1.539   5.121   0.519  0.6775 -0.0360 -0.6086
10183TIP3    H152040   1.481   5.052   0.486  0.4772 -0.7748  1.1674
10183TIP3    H252041   1.480   5.183   0.561  1.0554 -0.0748 -0.0153
10184TIP3   OH252042   6.177   0.949   2.514 -0.1466  0.3425  0.1391
10184TIP3    H152043   6.155   1.041   2.503 -2.3081 -0.1717 -0.2373
10184TIP3    H252044   6.132   0.904   2.443 -0.2790 -1.1561  1.1251
10185TIP3   OH252045   4.959   6.805  14.716  0.0953 -0.3011 -0.1260
10185TIP3    H152046   5.034   6.749  14.732 -0.4949 -0.8685  0.7521
10185TIP3    H252047   4.971   6.838  14.627  0.3882 -1.9153 -0.7080
10186TIP3   OH252048   4.822   2.859  14.453  0.2297 -0.0051 -0.0708
10186TIP3    H152049   4.807   2.774  14.494  0.7489 -0.0507  0.0340
10186TIP3    H252050   4.868   2.910  14.520  0.6455  0.0817 -0.4139
10187TIP3   OH252051   2.088   1.856  14.299  0.4776 -0.2002  0.2516
10187TIP3    H152052   2.156   1.891  14.242  1.2227 -0.8610  0.7028
10187TIP3    H252053   2.020   1.923  14.301  1.5411  0.8981  0.5308
10188TIP3   OH252054   0.802   0.741  12.745  0.8780 -0.5887  0.3631
10188TIP3    H152055   0.881   0.758  12.693  0.9111 -1.4222  0.1347
10188TIP3    H252056   0.798   0.646  12.752  0.4981 -0.5054  1.3166
10189TIP3   OH252057   0.743   2.831   5.169  0.3994 -0.1592  0.3848
10189TIP3    H152058   0.683   2.890   5.216 -0.1594  0.6429 -1.2338
10189TIP3    H252059   0.830   2.864   5.190  0.0870  1.7115 -0.9484
10190TIP3   OH252060   1.108   6.025   4.270 -0.3995  0.0246 -0.6113
10190TIP3    H152061   1.045   5.955   4.254  1.2317 -1.5737 -0.3601
10190TIP3    H252062   1.193   5.987   4.246  0.4096  2.3806 -1.7804
10191TIP3   OH252063   3.100   6.643  16.930  1.5863  0.3073 -0.0137
10191TIP3    H152064   3.075   6.732  16.904  2.1598  0.4771 -0.0124
10191TIP3    H252065   3.196   6.645  16.932  1.5888  0.0351  1.1975
10192TIP3   OH252066   2.578   6.068  16.258 -0.2828 -0.1009  0.2385
10192TIP3    H152067   2.593   5.984  16.213 -2.0038 -2.1668  3.1905
10192TIP3    H252068   2.519   6.047  16.330  0.1247  3.4921  1.8436
10193TIP3   OH252069   6.748   2.139   2.740  0.5012  0.1527 -0.0741
10193TIP3    H152070   6.830   2.170   2.778 -0.5376  4.3171 -0.6998
10193TIP3    H252071   6.683   2.153   2.808 -0.0646 -1.0062 -0.3436
10194TIP3   OH252072   5.675   3.901  16.531  0.0212 -0.5445 -0.4203
10194TIP3    H152073   5.712   3.817  16.502 -0.8983 -0.7256 -1.0909
10194TIP3    H252074   5.725   3.922  16.610  1.6384 -0.7289 -1.3520
10195TIP3   OH252075   2.015   4.705   5.043  0.4421 -0.5415  0.3312
10195TIP3    H152076   1.939   4.729   4.991  0.8565 -1.1047 -0.5671
10195TIP3    H252077   2.082   4.770   5.019  0.4073 -0.3660  0.7119
10196TIP3   OH252078   3.591   5.811   1.508 -0.3556 -0.3160  0.2520
10196TIP3    H152079   3.682   5.793   1.529 -0.5138  0.4918  1.7865
10196TIP3    H252080   3.577   5.902   1.536 -1.2317  0.0963 -1.3791
10197TIP3   OH252081   4.187   6.118  16.034 -0.2173  0.7548  0.2369
10197TIP3    H152082   4.192   6.023  16.044 -1.1608  0.6276 -0.3404
10197TIP3    H252083   4.093   6.136  16.031 -0.0388  1.5316 -1.2036
10198TIP3   OH252084   0.798   2.575  16.140 -0.1231  0.3278 -0.3924
10198TIP3    H152085   0.835   2.569  16.051 -1.8371  1.7579 -1.2582
10198TIP3    H252086   0.759   2.489  16.156  3.2263 -1.2028  0.4957
10199TIP3   OH252087   2.175   0.851   0.522 -0.6820  0.0493 -0.0809
10199TIP3    H152088   2.216   0.766   0.505 -1.6208 -0.2292 -1.0721
10199TIP3    H252089   2.151   0.883   0.435 -4.8863 -0.9760  0.5050
10200TIP3   OH252090   3.744   6.579  14.012  0.1937  0.8843  0.2105
10200TIP3    H152091   3.690   6.517  13.962 -1.0143 -0.3234  2.7823
10200TIP3    H252092   3.824   6.530  14.032  0.3180  1.0582  0.1356
10201TIP3   OH252093   6.238   2.537  16.600  0.4100  0.4984  0.3581
10201TIP3    H152094   6.195   2.488  16.670  0.1327 -1.0572 -0.8354
10201TIP3    H252095   6.270   2.617  16.642 -1.5169  0.5814  1.8120
10202TIP3   OH252096   2.847   5.172  11.800  0.3170 -0.1223  0.0656
10202TIP3    H152097   2.794   5.119  11.859 -0.9151  0.8776 -0.1069
10202TIP3    H252098   2.916   5.208  11.855  0.2109 -0.6034  0.5151
10203TIP3   OH252099   4.445   3.649  13.169 -0.0403 -0.0277 -0.4697
10203TIP3    H152100   4.462   3.690  13.084  0.1763 -0.8336 -0.8253
10203TIP3    H252101   4.523   3.596  13.186  0.6787  1.4300  1.0460
10204TIP3   OH252102   1.654   2.377  14.884 -0.1636  0.2579  0.4029
10204TIP3    H152103   1.610   2.404  14.964 -0.5320  0.0983  0.2596
10204TIP3    H252104   1.712   2.450  14.862 -0.6381  0.6380  0.3908
10205TIP3   OH252105   0.627   0.886  16.115 -0.7487 -0.0176  0.7545
10205TIP3    H152106   0.658   0.831  16.042  1.0955  1.1765  0.5806
10205TIP3    H252107   0.576   0.826  16.169 -0.8860 -1.3050 -0.7239
10206TIP3   OH252108   4.300   6.089   0.580 -0.3409  0.1730  0.0769
10206TIP3    H152109   4.283   6.147   0.654  1.0572 -0.0289  0.5797
10206TIP3    H252110   4.240   6.120   0.511 -3.7745 -1.3502  2.0921
10207TIP3   OH252111   4.807   4.851  10.850  0.4288 -0.0335  0.3038
10207TIP3    H152112   4.896   4.886  10.856  0.3315  0.9011 -2.4654
10207TIP3    H252113   4.802   4.811  10.763 -2.2310  1.1368 -0.1944
10208TIP3   OH252114   4.768   5.604  11.328 -0.0316  0.3623 -0.0451
10208TIP3    H152115   4.700   5.618  11.262 -1.1380 -0.2145  0.9148
10208TIP3    H252116   4.783   5.690  11.366 -0.1625  0.5150 -0.3379
10209TIP3   OH252117   5.043   5.066  15.145 -0.1879 -0.4152 -0.5418
10209TIP3    H152118   4.995   5.012  15.083 -0.3376  0.0016 -0.7891
10209TIP3    H252119   5.132   5.071  15.110  0.0204 -1.1235 -0.1225
10210TIP3   OH252120   4.379   4.604  13.095  0.0468 -0.0959 -0.3047
10210TIP3    H152121   4.450   4.576  13.036 -0.7857 -1.3839 -0.7409
10210TIP3    H252122   4.332   4.671  13.046  0.1927 -0.1614 -0.5366
10211TIP3   OH252123   6.674   1.393  15.884 -0.6965 -0.5350 -0.5920
10211TIP3    H152124   6.750   1.368  15.831 -0.6781 -0.6699 -0.5028
10211TIP3    H252125   6.712   1.426  15.966 -0.6336  1.5746 -1.4242
10212TIP3   OH252126   0.433   4.482  16.937 -0.2943  0.0691  0.1285
10212TIP3    H152127   0.396   4.537  17.006  0.5673 -1.4500  1.8685
10212TIP3    H252128   0.511   4.529  16.908 -0.7950  0.8303 -0.0287
10213TIP3   OH252129   6.369   5.194   4.043 -0.0900 -0.3315  0.3070
10213TIP3    H152130   6.392   5.286   4.054 -1.5157  0.1316 -0.3387
10213TIP3    H252131   6.426   5.147   4.104 -0.2252  1.0961  1.5863
10214TIP3   OH252132   2.726   3.784  12.450  0.1817  0.1555 -0.5857
10214TIP3    H152133   2.794   3.848  12.429 -0.0065  0.4335 -0.3602
10214TIP3    H252134   2.766   3.727  12.515  0.6084 -0.4231 -1.3398
10215TIP3   OH252135   0.916   1.594  12.743 -0.1041  0.5650 -0.0101
10215TIP3    H152136   0.843   1.654  12.758 -0.0235  0.9052 -0.9272
10215TIP3    H252137   0.932   1.598  12.649  1.7103  1.2216  0.2796
10216TIP3   OH252138   0.763   4.367   1.223  0.3402 -0.5071 -0.1051
10216TIP3    H152139   0.777   4.286   1.271 -1.0442 -2.0810 -2.1517
10216TIP3    H252140   0.714   4.423   1.283 -1.1937 -2.3148  0.4459
10217TIP3   OH252141   5.516   2.469   1.874 -0.6935  0.0799 -0.2486
10217TIP3    H152142   5.489   2.482   1.965 -2.1081  0.1184 -0.6514
10217TIP3    H252143   5.486   2.548   1.829  0.4015  0.2705 -0.6801
10218TIP3   OH252144   1.595   2.571  13.148 -0.0181  0.1758 -0.0884
10218TIP3    H152145   1.536   2.585  13.074 -1.9942 -0.0672  1.3461
10218TIP3    H252146   1.657   2.643  13.144 -0.8280  0.8376 -1.3105
10219TIP3   OH252147   0.394   4.843  12.062  0.2075  0.6931 -0.0715
10219TIP3    H152148   0.413   4.783  11.990 -0.5333 -1.7240  1.6043
10219TIP3    H252149   0.303   4.868  12.050 -0.8443 -2.0175  1.4479
10220TIP3   OH252150   4.035   3.865  13.324  0.5466 -0.0555 -0.1456
10220TIP3    H152151   4.074   3.777  13.324  0.7648 -0.0316  2.2964
10220TIP3    H252152   4.109   3.924  13.315  0.5956 -0.0878  0.0460
10221TIP3   OH252153   1.695   6.295  15.322 -0.5419  0.3930  0.0960
10221TIP3    H152154   1.632   6.367  15.325 -0.0457  0.9413 -1.5076
10221TIP3    H252155   1.682   6.248  15.404 -0.4963  2.6334  1.4641
10222TIP3   OH252156   0.901   2.665  12.082  0.3494  0.0732  0.1003
10222TIP3    H152157   0.868   2.657  11.993  0.4085 -0.8900  0.1566
10222TIP3    H252158   0.995   2.676  12.073  0.4996 -1.1188  0.0671
10223TIP3   OH252159   0.551   6.325  17.163  0.0062 -0.2071 -0.7193
10223TIP3    H152160   0.564   6.343  17.070  0.3855 -0.8770 -0.8039
10223TIP3    H252161   0.635   6.289  17.192  0.4662  1.5522  0.2738
10224TIP3   OH252162   2.028   2.615  12.396 -0.1314  0.4887  0.1449
10224TIP3    H152163   2.054   2.554  12.326 -1.6221  1.0429 -0.9323
10224TIP3    H252164   2.066   2.699  12.370  0.5316  0.3875  0.7688
10225TIP3   OH252165   0.737   5.750   1.520  0.3749  0.5275 -0.3881
10225TIP3    H152166   0.761   5.784   1.607 -0.6181 -0.4599  0.2894
10225TIP3    H252167   0.821   5.745   1.473  0.6778  3.1222 -0.2787
10226TIP3   OH252168   1.034   6.491  15.761  0.2184 -0.4936  0.5174
10226TIP3    H152169   0.948   6.504  15.722 -0.0831  3.1337  2.0070
10226TIP3    H252170   1.016   6.465  15.851  0.7123 -0.6180  0.5843
10227TIP3   OH252171   3.362   6.769   4.535  0.0162 -0.1878 -0.3692
10227TIP3    H152172   3.284   6.825   4.541 -0.0367 -0.2733 -0.2593
10227TIP3    H252173   3.334   6.686   4.574  0.7279  0.3623  1.4108
10228TIP3   OH252174   4.289   4.346   3.357  0.2555  0.2886  0.3752
10228TIP3    H152175   4.239   4.411   3.406  0.8407  1.1347 -0.1392
10228TIP3    H252176   4.258   4.262   3.391 -0.8452  0.8130  0.7250
10229TIP3   OH252177   1.834   3.449  12.867  0.3697  0.0452 -0.2981
10229TIP3    H152178   1.889   3.431  12.943  0.3713  0.2802 -0.2444
10229TIP3    H252179   1.833   3.366  12.819  0.7716  0.0355 -0.2992
10230TIP3   OH252180   1.404   3.632   0.212  0.1618  0.1536 -0.4683
10230TIP3    H152181   1.352   3.638   0.132  0.3329  1.0877 -0.5276
10230TIP3    H252182   1.458   3.554   0.200  0.7439  0.7133 -1.6167
10231TIP3   OH252183   2.833   6.266  17.019 -0.1934  0.1130 -0.4321
10231TIP3    H152184   2.838   6.230  16.930  0.2871 -2.3401  0.5123
10231TIP3    H252185   2.741   6.252  17.045 -0.7263  2.1937 -1.0110
10232TIP3   OH252186   3.303   6.517   1.695 -0.2620 -0.3751  0.0923
10232TIP3    H152187   3.357   6.593   1.712  0.6331 -0.9572 -0.1030
10232TIP3    H252188   3.291   6.517   1.600  1.5239 -1.6497 -0.1643
10233TIP3   OH252189   0.264   2.994   5.199  0.5293 -0.0647 -0.0929
10233TIP3    H152190   0.202   3.044   5.251 -0.3435  0.3757 -1.5089
10233TIP3    H252191   0.301   3.058   5.138 -0.3673 -1.0230 -1.7238
10234TIP3   OH252192   2.868   0.639  15.904 -0.0068 -0.1548  0.0768
10234TIP3    H152193   2.959   0.637  15.931  0.0027  1.0343  0.1841
10234TIP3    H252194   2.857   0.561  15.850  0.4567 -1.5698  1.9397
10235TIP3   OH252195   2.204   3.497  16.260 -0.0038  0.1493  0.3747
10235TIP3    H152196   2.208   3.564  16.191 -0.1368  0.3436  0.5533
10235TIP3    H252197   2.271   3.434  16.236  0.9268  0.9366  0.8172
10236TIP3   OH252198   1.605   4.338  13.666  0.6068  0.0762  0.6298
10236TIP3    H152199   1.601   4.429  13.695  1.8068  0.2490  0.3279
10236TIP3    H252200   1.626   4.343  13.573  1.3622 -0.5090  0.7586
10237TIP3   OH252201   4.066   2.728  11.558  0.4165  0.2374  0.0422
10237TIP3    H152202   4.029   2.640  11.549 -0.6386  0.5537  1.0321
10237TIP3    H252203   4.064   2.765  11.469  0.7910 -0.6910 -0.3635
10238TIP3   OH252204   1.689   1.062  17.134  0.5971  0.4766 -0.2123
10238TIP3    H152205   1.715   0.971  17.145  1.2539  0.1555 -3.5067
10238TIP3    H252206   1.703   1.101  17.220  1.7932 -2.1379  0.8920
10239TIP3   OH252207   5.676   2.817  16.101  0.1264 -0.0772  0.1436
10239TIP3    H152208   5.748   2.867  16.064  0.3000 -0.6842 -0.3510
10239TIP3    H252209   5.716   2.734  16.128 -0.4845 -0.6290 -0.6178
10240TIP3   OH252210   2.375   4.634   1.404  0.6889  0.0722  0.8672
10240TIP3    H152211   2.469   4.626   1.420  0.8433  0.8997  0.4344
10240TIP3    H252212   2.368   4.643   1.309  0.4678  3.1189  1.0617
10241TIP3   OH252213   4.922   3.978  15.113 -0.3081 -0.4491 -0.1413
10241TIP3    H152214   4.970   4.024  15.182  1.2449 -3.4654  0.9748
10241TIP3    H252215   4.942   4.027  15.033  1.7184  0.4746  0.8442
10242TIP3   OH252216   5.808   3.986  12.377 -0.0266 -0.1627  0.1432
10242TIP3    H152217   5.894   4.015  12.408  0.4622 -1.0726 -0.3098
10242TIP3    H252218   5.761   3.962  12.457 -0.4257  1.7793  0.5208
10243TIP3   OH252219   4.458   2.701  15.446 -0.1672 -0.3625  0.0095
10243TIP3    H152220   4.409   2.758  15.505  0.4187 -2.0629  2.2633
10243TIP3    H252221   4.390   2.656  15.395 -0.7593  0.1563  0.3165
10244TIP3   OH252222   3.144   6.542  13.312 -0.4227 -0.1170 -0.1147
10244TIP3    H152223   3.132   6.466  13.255 -0.8685  0.0518 -0.2484
10244TIP3    H252224   3.133   6.618  13.254 -1.8266  0.0719  0.3537
10245TIP3   OH252225   0.813   5.243   1.856 -0.4906  0.3191  0.3300
10245TIP3    H152226   0.892   5.233   1.910 -0.8168 -0.0283  0.7550
10245TIP3    H252227   0.846   5.259   1.768  0.0711 -1.0808  0.2657
10246TIP3   OH252228   4.252   0.020   2.061  0.7653  0.2512  0.4054
10246TIP3    H152229   4.262   0.078   1.986 -1.9426  1.2199  0.6799
10246TIP3    H252230   4.232   0.079   2.134 -0.9111 -0.9007  0.9386
10247TIP3   OH252231   4.677   3.332   4.632 -0.2882 -0.0817  0.2188
10247TIP3    H152232   4.625   3.256   4.659  1.4012 -1.5096 -0.3550
10247TIP3    H252233   4.734   3.351   4.707  1.2536 -1.2103 -0.6081
10248TIP3   OH252234   2.771   3.601   0.944 -0.3172  0.5731  0.1246
10248TIP3    H152235   2.678   3.627   0.942  0.0388  1.9846  0.4832
10248TIP3    H252236   2.809   3.656   1.013  0.5179 -1.0103  0.9645
10249TIP3   OH252237   6.505   4.907   5.287  0.6329 -0.4835 -0.0160
10249TIP3    H152238   6.411   4.914   5.271  0.7642  1.7798 -0.0721
10249TIP3    H252239   6.517   4.942   5.375  1.5940  1.0357 -0.7075
10250TIP3   OH252240   3.825   1.405   6.004  0.3676  0.4533 -0.1228
10250TIP3    H152241   3.877   1.454   6.067  1.6086 -1.5472  0.5005
10250TIP3    H252242   3.761   1.357   6.057 -0.0036  0.4232 -0.5863
10251TIP3   OH252243   6.162   4.115  13.744  0.2764  0.0073  0.2968
10251TIP3    H152244   6.246   4.155  13.768 -0.2157  0.9600  0.4521
10251TIP3    H252245   6.187   4.033  13.701  1.3487  0.8587 -0.7881
10252TIP3   OH252246   3.690   2.444  10.744 -0.0208  0.0193 -0.0666
10252TIP3    H152247   3.652   2.491  10.818  0.2696  1.2472 -0.6697
10252TIP3    H252248   3.785   2.458  10.752  0.4032 -2.9033  1.3474
10253TIP3   OH252249   0.132   1.541  10.945  0.3365  0.1906  0.2152
10253TIP3    H152250   0.190   1.521  10.871  0.2922  0.3287  0.1425
10253TIP3    H252251   0.121   1.636  10.942  0.1904  0.1767  0.2914
10254TIP3   OH252252   1.268   5.352  14.173  0.1889  0.1729  0.9533
10254TIP3    H152253   1.241   5.442  14.154 -0.1540  0.0804  0.9913
10254TIP3    H252254   1.230   5.333  14.259 -1.4619 -0.6925  0.0800
10255TIP3   OH252255   0.994   6.159  15.641  0.0002 -0.2874  0.7093
10255TIP3    H152256   0.930   6.222  15.607 -0.1015 -0.1308  1.1845
10255TIP3    H252257   1.059   6.152  15.571  0.3287  0.8116  0.8831
10256TIP3   OH252258   3.088   0.126   2.527 -0.7668  0.1631 -0.7282
10256TIP3    H152259   3.060   0.190   2.461 -0.3437  1.1794  0.0612
10256TIP3    H252260   3.175   0.098   2.497 -1.7455 -1.5987 -2.1629
10257TIP3   OH252261   3.619   2.353  14.030  0.8079 -0.1228  0.2404
10257TIP3    H152262   3.711   2.331  14.020  0.5622 -0.6733 -1.0919
10257TIP3    H252263   3.584   2.287  14.090  1.1048 -0.4276  0.0780
10258TIP3   OH252264   3.411   1.413   1.541  0.2292 -0.1819 -0.1292
10258TIP3    H152265   3.387   1.325   1.570  2.5110 -0.4135  1.3383
10258TIP3    H252266   3.437   1.458   1.621  0.6513  1.3032 -1.0659
10259TIP3   OH252267   5.247   1.294  11.106 -0.2934  0.5478  0.1395
10259TIP3    H152268   5.293   1.212  11.085 -2.7033 -0.9861  0.5276
10259TIP3    H252269   5.191   1.310  11.030 -0.0260  1.7389  0.1750
10260TIP3   OH252270   5.248   1.712  10.946 -0.2829 -0.3345  0.0104
10260TIP3    H152271   5.211   1.780  10.889  2.1045  1.1741  0.1373
10260TIP3    H252272   5.270   1.640  10.887 -1.1490 -0.2918 -0.3901
10261TIP3   OH252273   0.935   1.521  12.478 -0.2690 -0.3294 -0.5083
10261TIP3    H152274   0.842   1.500  12.470  0.0139 -1.5297 -0.8290
10261TIP3    H252275   0.979   1.455  12.425  0.7713  0.2930 -0.4536
10262TIP3   OH252276   0.666   4.456  11.338 -0.6188 -0.5758  0.2027
10262TIP3    H152277   0.737   4.433  11.397 -1.1564  1.3217  1.6908
10262TIP3    H252278   0.706   4.458  11.251  1.1195  0.2205  0.9741
10263TIP3   OH252279   1.403   4.672   0.144 -0.0745 -0.4239  0.1647
10263TIP3    H152280   1.321   4.624   0.130 -0.7170  0.4088  0.9823
10263TIP3    H252281   1.446   4.625   0.216 -0.0319 -0.6072  0.0212
10264TIP3   OH252282   3.770   5.830  11.014  0.4671  0.4903 -0.4098
10264TIP3    H152283   3.720   5.814  10.934  0.7200  0.4453 -0.5596
10264TIP3    H252284   3.858   5.851  10.984  0.6205  0.2535 -0.1386
10265TIP3   OH252285   6.189   1.180  16.738  0.2584  0.2621 -0.2782
10265TIP3    H152286   6.173   1.126  16.815  0.7014  1.9880  1.0879
10265TIP3    H252287   6.118   1.245  16.739 -1.8713 -1.7318 -3.3977
10266TIP3   OH252288   4.907   4.283  15.073 -0.4312  0.2338 -0.1206
10266TIP3    H152289   4.822   4.314  15.103 -0.3602 -0.2620  0.6238
10266TIP3    H252290   4.958   4.363  15.057 -0.7789  0.5205  0.2002
10267TIP3   OH252291   1.913   2.461  10.735 -0.0128 -0.1336  0.1131
10267TIP3    H152292   1.911   2.367  10.713  0.0630 -0.4925  1.5487
10267TIP3    H252293   1.967   2.500  10.666 -0.8389 -0.9746 -1.0661
10268TIP3   OH252294   1.461   5.316  11.613 -0.2459  0.3826 -0.1684
10268TIP3    H152295   1.457   5.277  11.700  1.0384  0.0257 -0.2459
10268TIP3    H252296   1.462   5.242  11.553  1.3711  0.5154 -0.3534
10269TIP3   OH252297   2.878   3.870  15.991 -0.3363 -0.2740 -0.3055
10269TIP3    H152298   2.946   3.847  16.054  1.1097  0.1832 -1.6504
10269TIP3    H252299   2.811   3.803  16.003  0.7131 -1.2166  0.4961
10270TIP3   OH252300   5.399   1.087  15.349 -0.4595  0.3680  0.0185
10270TIP3    H152301   5.388   0.995  15.372 -0.8468  0.3016 -0.4234
10270TIP3    H252302   5.316   1.113  15.310 -0.4516  0.9826  0.3811
10271TIP3   OH252303   6.615   1.033   2.669  0.1183 -0.2205 -0.1339
10271TIP3    H152304   6.535   1.071   2.704  0.1645 -0.5819  0.3666
10271TIP3    H252305   6.585   0.967   2.606  0.0357  0.2781 -0.6272
10272TIP3   OH252306   0.818   0.596  13.251 -0.0393  0.4631  0.0085
10272TIP3    H152307   0.911   0.598  13.228 -0.0672  0.8466 -0.0753
10272TIP3    H252308   0.815   0.545  13.332  0.4622  1.9592  1.0025
10273TIP3   OH252309   0.989   2.829  14.152 -0.1049 -0.0764 -0.4571
10273TIP3    H152310   1.017   2.831  14.060 -3.2529 -0.0988 -1.5154
10273TIP3    H252311   0.979   2.736  14.172 -1.9308 -0.0268 -0.9908
10274TIP3   OH252312   0.901   2.632   6.122 -0.1579 -0.0636  0.6085
10274TIP3    H152313   0.913   2.634   6.217 -0.4733  1.7614  0.6490
10274TIP3    H252314   0.808   2.615   6.110 -0.4527  1.3716  0.6954
10275TIP3   OH252315   3.749   5.236  11.717  0.1279 -0.1575 -0.5505
10275TIP3    H152316   3.807   5.161  11.732  1.4577  0.6461 -1.4380
10275TIP3    H252317   3.753   5.286  11.798 -1.5569 -1.4863  0.4380
10276TIP3   OH252318   5.345   4.539  14.001  0.5586  0.9545 -0.1357
10276TIP3    H152319   5.390   4.470  14.051 -2.4901 -0.3725  1.0020
10276TIP3    H252320   5.253   4.531  14.026 -0.3928  3.4568 -2.3642
10277TIP3   OH252321   3.984   6.340  11.739  0.0187  0.0172  0.0342
10277TIP3    H152322   3.917   6.279  11.770 -0.5847  0.0688 -1.1126
10277TIP3    H252323   3.987   6.326  11.645  0.8868  0.7715 -0.0618
10278TIP3   OH252324   0.003   0.232  16.419 -0.5089 -0.6565  0.1708
10278TIP3    H152325   0.040   0.239  16.331 -2.7790 -1.5476 -0.9243
10278TIP3    H252326  -0.078   0.282  16.415 -0.0191  0.3857  2.1828
10279TIP3   OH252327   6.530   4.320   4.042 -0.8215 -0.2927 -0.2135
10279TIP3    H152328   6.544   4.231   4.009  0.7115 -0.0102 -0.4112
10279TIP3    H252329   6.496   4.369   3.966 -1.2765 -0.6180 -0.2178
10280TIP3   OH252330   4.850   5.451   1.859  0.0183 -0.2191  0.1623
10280TIP3    H152331   4.933   5.433   1.816 -0.3139  0.6413 -0.8826
10280TIP3    H252332   4.864   5.427   1.951  1.5131  0.2403  0.0673
10281TIP3   OH252333   2.586   6.213   5.160 -0.0262 -0.1939 -0.5264
10281TIP3    H152334   2.658   6.276   5.161  0.3490 -0.5626 -1.6987
10281TIP3    H252335   2.525   6.246   5.095 -1.0122  0.1876  0.5655
10282TIP3   OH252336   1.627   1.179   4.851  0.0807  0.4269  0.3297
10282TIP3    H152337   1.611   1.259   4.801 -0.1619 -0.3312 -0.8127
10282TIP3    H252338   1.707   1.142   4.814 -1.3739 -1.3976 -1.1695
10283TIP3   OH252339   5.380   2.886  16.385  0.4456 -0.7870  0.6381
10283TIP3    H152340   5.385   2.893  16.289 -2.3402 -0.5444  0.4313
10283TIP3    H252341   5.326   2.960  16.411  0.8333 -1.0914  2.3909
10284TIP3   OH252342   0.102   2.216  11.522  0.2102 -0.0239  0.3382
10284TIP3    H152343   0.027   2.171  11.561  0.9554 -2.0898 -0.4947
10284TIP3    H252344   0.080   2.224  11.429  0.0031  1.6275  0.4871
10285TIP3   OH252345   5.257   2.172   1.374 -0.0609 -0.0709  0.0938
10285TIP3    H152346   5.347   2.152   1.398 -0.7111 -0.4019  2.5488
10285TIP3    H252347   5.210   2.089   1.384 -0.7720  0.2423 -0.5122
10286TIP3   OH252348   2.914   0.973  12.240  0.2722 -0.2516 -0.0480
10286TIP3    H152349   2.894   0.885  12.272 -0.3678  0.1885  0.8200
10286TIP3    H252350   2.938   1.022  12.319  3.3297 -0.3041 -0.8250
10287TIP3   OH252351   2.784   4.224  13.820 -0.2241  0.3488 -0.1880
10287TIP3    H152352   2.789   4.319  13.812  1.1366  0.1511 -3.0301
10287TIP3    H252353   2.876   4.195  13.818 -0.6590 -1.0753 -0.8012
10288TIP3   OH252354   2.246   6.370  11.278 -0.7846  0.0029 -0.2700
10288TIP3    H152355   2.233   6.297  11.217  0.6793  0.2475 -0.9335
10288TIP3    H252356   2.160   6.412  11.284 -1.7675 -2.0048  0.4744
10289TIP3   OH252357   1.075   3.063  16.424 -0.1592 -0.5093  0.2506
10289TIP3    H152358   1.059   3.073  16.518 -1.0249  0.4319  0.0157
10289TIP3    H252359   1.027   3.135  16.384 -0.6988 -1.5406 -1.0098
10290TIP3   OH252360   0.454   3.035   3.625  0.3045 -0.0720 -0.3207
10290TIP3    H152361   0.474   2.952   3.667  2.3143  0.7129  0.3954
10290TIP3    H252362   0.408   3.086   3.691  0.2538 -0.1359 -0.3069
10291TIP3   OH252363   6.061   5.801   3.685  0.0595  0.7150 -0.8442
10291TIP3    H152364   6.097   5.818   3.772  0.1498 -1.2328 -0.4699
10291TIP3    H252365   6.013   5.881   3.664 -0.7107  0.9257  1.3799
10292TIP3   OH252366   3.149   0.721  15.724 -0.4362  0.3870 -0.3793
10292TIP3    H152367   3.237   0.741  15.692 -0.9400  0.5780 -1.7178
10292TIP3    H252368   3.112   0.664  15.656 -1.4798  0.6366 -0.0291
10293TIP3   OH252369   4.756   4.132  13.770  0.6868  0.1103 -0.4042
10293TIP3    H152370   4.776   4.097  13.682 -2.1967  0.5566 -1.3547
10293TIP3    H252371   4.751   4.226  13.757  1.0236  0.2461  0.4454
10294TIP3   OH252372   5.828   2.529  13.996  0.0959  0.1736  0.2336
10294TIP3    H152373   5.866   2.516  13.909 -1.4768 -1.6386 -0.2343
10294TIP3    H252374   5.900   2.512  14.056  0.7235 -0.4455 -0.6718
10295TIP3   OH252375   3.715   5.666   3.240  0.3927 -0.5422  0.9875
10295TIP3    H152376   3.681   5.708   3.161  0.7324 -0.6359  0.7904
10295TIP3    H252377   3.775   5.598   3.208 -0.6559 -1.6433  1.2667
10296TIP3   OH252378   3.694   1.809  14.359 -0.4975 -0.0601  0.0991
10296TIP3    H152379   3.619   1.816  14.418  0.0211 -3.4905  1.4098
10296TIP3    H252380   3.668   1.743  14.295  0.9916 -0.4902 -0.0879
10297TIP3   OH252381   4.249   2.533  15.335 -0.2888  0.8041  0.5381
10297TIP3    H152382   4.182   2.559  15.272  1.4632  0.5157 -1.5688
10297TIP3    H252383   4.230   2.441  15.354  0.4845  0.1792 -1.4756
10298TIP3   OH252384   4.820   5.799   5.326 -0.1072 -0.5650 -0.1452
10298TIP3    H152385   4.909   5.821   5.350  0.3680 -1.0540 -1.3768
10298TIP3    H252386   4.765   5.856   5.380  0.9651  0.3071  0.0372
10299TIP3   OH252387   6.284   4.310  15.821 -0.4224  0.0046  0.3593
10299TIP3    H152388   6.290   4.215  15.809  1.0693 -0.1096  1.6546
10299TIP3    H252389   6.258   4.343  15.735 -0.1590 -1.5049 -0.3463
10300TIP3   OH252390   4.576   0.718  12.063  0.1283  0.6735  0.2912
10300TIP3    H152391   4.561   0.623  12.055  0.6208  0.5165  1.0863
10300TIP3    H252392   4.593   0.731  12.157 -0.3769  1.6205  0.2587
10301TIP3   OH252393   5.189   2.387   1.587 -0.1055  0.1047  0.2672
10301TIP3    H152394   5.256   2.351   1.530  0.0023  3.6909 -2.2336
10301TIP3    H252395   5.167   2.316   1.648  3.0277 -2.4803 -1.3510
10302TIP3   OH252396   3.755   1.725  11.700 -0.0968 -0.0448  0.4296
10302TIP3    H152397   3.827   1.663  11.695 -0.0120  0.1322 -2.6163
10302TIP3    H252398   3.795   1.810  11.684 -0.5049  0.6045  2.5530
10303TIP3   OH252399   4.126   3.859   1.232  0.0319  0.0667  0.1912
10303TIP3    H152400   4.036   3.892   1.242  0.0933  0.0652  0.7686
10303TIP3    H252401   4.117   3.784   1.174 -0.5737 -0.8904  1.4547
10304TIP3   OH252402   0.776   0.843   3.404  0.1279 -0.0746 -0.0201
10304TIP3    H152403   0.769   0.924   3.353  1.1146 -0.3043 -0.5489
10304TIP3    H252404   0.766   0.872   3.495 -1.1740  0.4004 -0.2897
10305TIP3   OH252405   1.719   4.569   2.935 -0.1959  0.5360  0.1821
10305TIP3    H152406   1.669   4.625   2.996 -1.7329 -1.7848  1.1930
10305TIP3    H252407   1.653   4.511   2.897  1.2521 -0.2448 -1.2264
10306TIP3   OH252408   6.794   5.428  12.803 -0.3110 -0.2788  0.1610
10306TIP3    H152409   6.874   5.481  12.803 -0.4239 -0.0251 -2.3152
10306TIP3    H252410   6.727   5.486  12.838 -0.5687  1.5492 -3.0657
10307TIP3   OH252411   6.196   1.618  10.217 -0.2302 -0.1225 -0.1014
10307TIP3    H152412   6.264   1.658  10.272 -1.5561  1.4623  0.4744
10307TIP3    H252413   6.143   1.567  10.278  0.8294 -1.9662 -0.6709
10308TIP3   OH252414   0.443   3.702   0.273  0.5688 -0.8408 -0.3166
10308TIP3    H152415   0.409   3.762   0.207  2.4573  0.1378 -0.4668
10308TIP3    H252416   0.529   3.737   0.295  0.5906 -1.9802  1.6058
10309TIP3   OH252417   6.659   2.228  14.431 -0.2287 -0.1508 -0.2274
10309TIP3    H152418   6.570   2.262  14.430 -0.4703 -0.7227 -1.8089
10309TIP3    H252419   6.683   2.223  14.523 -1.9380 -0.2754  0.2255
10310TIP3   OH252420   2.000   6.142  12.905  0.5277 -0.4067 -0.7456
10310TIP3    H152421   1.996   6.096  12.821 -0.3720  0.0430 -0.9632
10310TIP3    H252422   1.939   6.216  12.895 -1.7531 -1.8442  1.1902
10311TIP3   OH252423   5.996   0.141  11.507  0.5017  0.7793  0.3699
10311TIP3    H152424   5.928   0.186  11.558  0.7274  0.9647  0.5155
10311TIP3    H252425   5.953   0.063  11.473 -1.0649  2.9266 -3.0781
10312TIP3   OH252426   2.365   2.334   6.380  0.1879 -0.2453 -0.2311
10312TIP3    H152427   2.310   2.316   6.456 -0.3580 -2.2259 -1.0273
10312TIP3    H252428   2.331   2.276   6.312  0.6202  1.5017 -2.0162
10313TIP3   OH252429   6.000   0.995   4.093  0.5236 -0.6012 -0.5705
10313TIP3    H152430   6.081   0.956   4.127  1.3737 -0.7947 -2.6433
10313TIP3    H252431   5.953   0.922   4.052 -0.0854 -0.2551 -0.5014
10314TIP3   OH252432   6.240   2.390  15.307 -0.1999  0.4826  0.6076
10314TIP3    H152433   6.221   2.317  15.249 -2.0917 -0.6474  2.5265
10314TIP3    H252434   6.333   2.409  15.291 -0.5802  0.1720 -2.6041
10315TIP3   OH252435   3.281   2.025   3.629 -0.2175 -0.5312 -0.2318
10315TIP3    H152436   3.197   2.046   3.669  0.1108 -0.4927  0.4494
10315TIP3    H252437   3.345   2.073   3.681  0.4200 -2.1028  0.5072
10316TIP3   OH252438   3.073   4.146   1.468  0.2137  0.1277  0.3066
10316TIP3    H152439   3.095   4.053   1.478 -0.5987  0.0371  1.3790
10316TIP3    H252440   3.156   4.187   1.444  0.4948 -0.9310 -0.6030
10317TIP3   OH252441   5.325   6.169   2.806 -0.3546  0.0342  0.4653
10317TIP3    H152442   5.294   6.250   2.844 -0.3313 -0.4346  1.5220
10317TIP3    H252443   5.370   6.195   2.726 -2.4749  0.8287 -0.5303
10318TIP3   OH252444   4.688   1.208   5.044 -0.0695  0.4176 -0.0595
10318TIP3    H152445   4.672   1.161   5.125 -0.9255  0.3860 -0.2449
10318TIP3    H252446   4.642   1.158   4.977  2.3496 -0.7739 -0.9544
10319TIP3   OH252447   2.215   3.225  17.193  0.0646 -0.5899 -0.0074
10319TIP3    H152448   2.159   3.224  17.271 -0.9371 -1.1704 -0.7081
10319TIP3    H252449   2.280   3.293  17.212 -0.9899  0.2621  0.7603
10320TIP3   OH252450   0.868   3.352   0.638  0.0567  0.0228 -0.4404
10320TIP3    H152451   0.835   3.441   0.627 -1.5100 -0.4637  0.0736
10320TIP3    H252452   0.904   3.330   0.552 -0.7159  0.7053 -0.9595
10321TIP3   OH252453   5.321   1.544  10.754  0.0339  0.4770  0.6026
10321TIP3    H152454   5.378   1.504  10.821  0.7181  1.8191  0.8473
10321TIP3    H252455   5.360   1.516  10.671 -0.2219 -0.3606  0.7493
10322TIP3   OH252456   2.739   4.411   0.283  0.1529  0.3099 -0.1711
10322TIP3    H152457   2.771   4.460   0.208  1.4561  0.1915  0.2810
10322TIP3    H252458   2.763   4.465   0.359 -1.2352  0.4855  0.1812
10323TIP3   OH252459   2.683   1.058   5.080 -0.6111  0.1749  0.3223
10323TIP3    H152460   2.724   0.989   5.134  1.1075  0.0848 -1.0023
10323TIP3    H252461   2.594   1.026   5.064  0.4015 -2.2874 -1.0391
10324TIP3   OH252462   6.753   6.690   0.878  0.0217 -0.3043 -0.3317
10324TIP3    H152463   6.755   6.781   0.905  0.7841 -0.0180 -1.2978
10324TIP3    H252464   6.760   6.693   0.782 -2.5605 -1.2603 -0.6431
10325TIP3   OH252465   4.871   3.262  11.889 -0.1595  1.1860 -0.0052
10325TIP3    H152466   4.856   3.200  11.818  1.3507  1.3071 -0.4749
10325TIP3    H252467   4.848   3.214  11.968 -1.0371  0.7561 -0.5126
10326TIP3   OH252468   6.432   3.708   1.737 -0.6558 -0.3185  0.4714
10326TIP3    H152469   6.344   3.674   1.752 -0.5163 -0.9625 -0.1320
10326TIP3    H252470   6.434   3.729   1.644 -0.1347 -0.3917  0.4643
10327TIP3   OH252471   1.111   0.276   2.540 -0.1869  0.3927  0.2716
10327TIP3    H152472   1.077   0.190   2.567  1.7317 -0.9381 -1.2055
10327TIP3    H252473   1.169   0.302   2.611 -0.0450 -0.0167  0.3119
10328TIP3   OH252474   1.570   6.402   1.034 -0.4945  0.4807 -0.0713
10328TIP3    H152475   1.559   6.496   1.049 -0.1749  0.6409 -0.7798
10328TIP3    H252476   1.484   6.364   1.051 -0.7614  0.9783 -0.2894
10329TIP3   OH252477   2.676   3.536   3.445 -0.0541  0.3227  0.0400
10329TIP3    H152478   2.706   3.573   3.528  1.2677 -0.0115 -0.2765
10329TIP3    H252479   2.650   3.446   3.467  1.2820 -0.1151 -0.0751
10330TIP3   OH252480   0.109   6.333  14.406 -0.0319  0.4446  0.1956
10330TIP3    H152481   0.102   6.380  14.489  1.3814  2.2193 -0.6056
10330TIP3    H252482   0.146   6.248  14.430  0.9199  1.1506  1.3456
10331TIP3   OH252483   2.590   0.876  15.497 -0.3242  0.3692  0.0531
10331TIP3    H152484   2.647   0.853  15.570  0.3583  2.9596  0.4122
10331TIP3    H252485   2.639   0.940  15.447 -1.9714  0.8696 -1.0138
10332TIP3   OH252486   6.376   0.854   3.679 -1.0053  0.2087 -0.2993
10332TIP3    H152487   6.407   0.833   3.767 -0.2096  1.7641 -0.1782
10332TIP3    H252488   6.424   0.794   3.622  0.9611  1.3626  0.0525
10333TIP3   OH252489   2.251   3.357  12.236 -0.2124 -0.1449 -0.3608
10333TIP3    H152490   2.256   3.449  12.260  0.7751 -0.2691 -0.0287
10333TIP3    H252491   2.343   3.329  12.230 -0.5044 -1.3692  0.6044
10334TIP3   OH252492   6.602   1.653   4.627 -0.7522  0.1840  0.0693
10334TIP3    H152493   6.564   1.613   4.706 -3.1152 -0.1642 -1.1471
10334TIP3    H252494   6.696   1.647   4.641 -1.0177 -2.5710  1.5927
10335TIP3   OH252495   4.139   3.548  14.731  0.1969 -0.3392  0.0756
10335TIP3    H152496   4.098   3.565  14.646 -0.3808  2.6543  0.8234
10335TIP3    H252497   4.233   3.543  14.712 -0.0709 -2.5521 -1.0301
10336TIP3   OH252498   1.092   0.714   0.135 -0.3530 -0.1900 -0.5796
10336TIP3    H152499   1.054   0.744   0.217 -1.0391 -1.1316 -0.5412
10336TIP3    H252500   1.181   0.687   0.158 -0.9171 -1.5247  0.0945
10337TIP3   OH252501   3.155   1.997   5.349  0.2455  0.6910  0.2147
10337TIP3    H152502   3.128   2.059   5.417 -0.9645  1.3471 -0.8256
10337TIP3    H252503   3.111   1.915   5.373  0.7479  0.5884  0.8297
10338TIP3   OH252504   2.446   5.681  13.819  0.5316  0.2674 -0.0875
10338TIP3    H152505   2.354   5.658  13.814  0.4276  0.1684  1.6843
10338TIP3    H252506   2.491   5.597  13.833  1.2561 -0.1017 -3.6748
10339TIP3   OH252507   0.966   3.780   1.814 -0.1431 -0.5499 -0.4389
10339TIP3    H152508   0.915   3.758   1.736 -0.3234 -1.0600 -0.1867
10339TIP3    H252509   0.914   3.745   1.887  0.1016 -0.2252 -0.1030
10340TIP3   OH252510   4.314   0.833   0.967  0.0447  0.5647  0.0304
10340TIP3    H152511   4.247   0.899   0.950 -0.9465 -0.8703 -2.0450
10340TIP3    H252512   4.335   0.798   0.880  0.4432 -1.9148  1.0488
10341TIP3   OH252513   5.368   4.372  16.130 -0.4290 -0.4868  0.0469
10341TIP3    H152514   5.427   4.361  16.055  0.3899  1.7975  0.2723
10341TIP3    H252515   5.312   4.294  16.128  1.7997 -2.1725 -0.8821
10342TIP3   OH252516   2.039   1.447   3.818 -0.0369  0.5301  0.0784
10342TIP3    H152517   2.116   1.394   3.837  0.6275  0.9003 -1.4843
10342TIP3    H252518   1.968   1.384   3.806  0.2197  0.1449  0.5407
10343TIP3   OH252519   4.797   1.710  13.592 -0.1652 -0.8046  0.2177
10343TIP3    H152520   4.702   1.702  13.585 -0.2061  0.9066 -3.1213
10343TIP3    H252521   4.811   1.801  13.618  0.5731 -0.9533  0.3490
10344TIP3   OH252522   1.713   4.048  13.769 -0.2133  0.2394 -0.4430
10344TIP3    H152523   1.695   3.976  13.709  2.2515 -0.6314 -0.2702
10344TIP3    H252524   1.667   4.123  13.732 -0.1797 -0.6879 -2.4659
10345TIP3   OH252525   4.380   3.235   2.139  0.6587  0.1003  0.1619
10345TIP3    H152526   4.435   3.314   2.138  0.1529  0.4726 -1.6805
10345TIP3    H252527   4.309   3.257   2.199  0.4662  1.1027 -0.4054
10346TIP3   OH252528   2.039   1.790   6.079 -0.1947  0.4466  0.7071
10346TIP3    H152529   2.092   1.720   6.040  0.3633  1.3567 -0.2277
10346TIP3    H252530   1.985   1.745   6.145  2.0807 -0.4675  2.0876
10347TIP3   OH252531   3.629   3.141   6.076  0.5190 -0.1037 -0.3842
10347TIP3    H152532   3.717   3.128   6.110  0.7321  0.3153 -0.7626
10347TIP3    H252533   3.606   3.230   6.102  1.1121  0.6335 -2.2174
10348TIP3   OH252534   2.853   2.355   2.060  0.0625  0.5621 -0.5103
10348TIP3    H152535   2.888   2.383   2.144 -0.4023  0.7294 -0.3673
10348TIP3    H252536   2.917   2.292   2.026  0.0418  0.1818  0.1540
10349TIP3   OH252537   4.696   2.533  16.318  0.0263  0.8865 -0.1612
10349TIP3    H152538   4.678   2.445  16.352 -1.9510  1.2174 -0.2448
10349TIP3    H252539   4.610   2.570  16.300  0.8611  2.4596 -1.1581
10350TIP3   OH252540   2.781   0.155   3.012 -0.3566  0.1057 -0.1911
10350TIP3    H152541   2.727   0.081   3.040 -1.2272  1.3022  1.4313
10350TIP3    H252542   2.869   0.132   3.041 -0.7065 -0.1130  0.7489
10351TIP3   OH252543   4.382   3.928  12.143 -0.1365 -0.1959  0.3997
10351TIP3    H152544   4.317   3.953  12.078  0.0541  0.8145  0.5859
10351TIP3    H252545   4.347   3.848  12.182 -1.8630  0.9543  1.3358
10352TIP3   OH252546   1.578   3.614   0.697 -0.1433  0.5497  0.2059
10352TIP3    H152547   1.618   3.606   0.784 -0.1662  1.5003  0.3173
10352TIP3    H252548   1.494   3.657   0.713  0.3006  1.6787 -0.3758
10353TIP3   OH252549   4.873   6.197  10.304  0.2320 -0.2772  0.1741
10353TIP3    H152550   4.827   6.115  10.286 -1.3542  0.8819 -1.4496
10353TIP3    H252551   4.962   6.171  10.324 -0.6802 -2.5156  1.7355
10354TIP3   OH252552   3.613   5.147  13.051  0.2372  0.0268  0.5289
10354TIP3    H152553   3.563   5.196  12.986 -2.2464 -0.8691  1.6142
10354TIP3    H252554   3.637   5.066  13.007 -0.3343 -0.0299  0.3060
10355TIP3   OH252555   2.744   4.630  16.997 -0.0179  0.0627  0.1028
10355TIP3    H152556   2.733   4.539  16.969 -3.2931  0.3264  0.1120
10355TIP3    H252557   2.707   4.682  16.926  0.6658  1.3360  0.6454
10356TIP3   OH252558   2.947   6.584   4.203 -0.4743  0.6926  0.0381
10356TIP3    H152559   2.933   6.641   4.279  1.8070  1.0654  0.2721
10356TIP3    H252560   3.038   6.602   4.176 -0.6227 -0.7680 -1.6529
10357TIP3   OH252561   6.336   2.791  14.777  0.1463  0.0874 -0.2303
10357TIP3    H152562   6.338   2.701  14.808 -0.8362 -0.1749 -0.8708
10357TIP3    H252563   6.423   2.825  14.796  0.0068 -0.4421  1.6256
10358TIP3   OH252564   0.308   5.366   2.340 -0.3682  0.3863 -0.0631
10358TIP3    H152565   0.261   5.400   2.416  0.3038 -0.2795  0.6764
10358TIP3    H252566   0.241   5.320   2.290 -0.4379 -1.2167  1.3741
10359TIP3   OH252567   4.377   4.609  12.783  0.8004  0.1210  0.3773
10359TIP3    H152568   4.467   4.630  12.759  0.7165 -0.7068 -0.7702
10359TIP3    H252569   4.359   4.527  12.737 -1.5643  1.8047 -2.0470
10360TIP3   OH252570   4.071   3.251  12.850 -0.5154  0.2660 -0.3820
10360TIP3    H152571   4.062   3.345  12.866  0.7557  0.1735  1.1123
10360TIP3    H252572   3.996   3.212  12.895 -1.8106  0.6040 -2.1258
10361TIP3   OH252573   5.694   2.577   4.558  0.2057 -0.1593 -0.1281
10361TIP3    H152574   5.723   2.664   4.530  2.8001 -0.5529  1.0304
10361TIP3    H252575   5.623   2.594   4.619 -0.8033  1.0020 -1.5471
10362TIP3   OH252576   4.633   2.491   3.329  0.6014  0.7031 -0.1539
10362TIP3    H152577   4.594   2.566   3.284  0.2306 -1.2856 -3.4915
10362TIP3    H252578   4.715   2.525   3.364  1.5689  2.2984 -3.4939
10363TIP3   OH252579   2.925   0.765   4.414 -0.7999  0.2532  0.0757
10363TIP3    H152580   2.859   0.783   4.481  0.2864  0.5788  1.0922
10363TIP3    H252581   2.878   0.715   4.347 -1.4986 -1.8028  1.9776
10364TIP3   OH252582   0.254   1.380   0.592 -0.6289  0.2833 -0.0905
10364TIP3    H152583   0.332   1.436   0.581  1.4907 -2.7298 -1.9865
10364TIP3    H252584   0.283   1.309   0.650 -1.3952 -1.6923 -1.9906
10365TIP3   OH252585   3.956   0.378   2.939  0.4505  0.1347  0.4804
10365TIP3    H152586   3.909   0.368   3.022  1.7137  0.7309  1.3001
10365TIP3    H252587   4.036   0.425   2.962  1.1848 -0.3443 -0.9648
10366TIP3   OH252588   4.834   3.305  13.397 -0.6795 -0.1520 -0.6203
10366TIP3    H152589   4.862   3.285  13.486 -3.1113  0.0404  0.2553
10366TIP3    H252590   4.768   3.373  13.407 -2.0976 -1.1757 -2.4252
10367TIP3   OH252591   3.210   6.387  16.964 -0.1997 -0.2139  0.2998
10367TIP3    H152592   3.189   6.357  16.875  0.0997  0.2300  0.0718
10367TIP3    H252593   3.158   6.467  16.975  0.0309 -0.0755  0.3882
10368TIP3   OH252594   6.450   3.087  14.578  0.8506  0.0781  0.3392
10368TIP3    H152595   6.369   3.085  14.527  0.4442  2.3027  0.8013
10368TIP3    H252596   6.477   2.995  14.585 -1.5244 -0.6930  0.0259
10369TIP3   OH252597   5.536   6.805   4.246  0.0562 -0.4663 -0.3625
10369TIP3    H152598   5.583   6.814   4.163  1.1439 -3.4284 -0.1878
10369TIP3    H252599   5.469   6.739   4.229 -1.1730  0.4616  0.6087
10370TIP3   OH252600   3.538   0.220  14.177 -0.3875  0.1119  0.3589
10370TIP3    H152601   3.511   0.167  14.102 -2.4721 -0.6976  1.5890
10370TIP3    H252602   3.596   0.163  14.228 -1.0275 -0.2793  0.6577
10371TIP3   OH252603   4.897   5.839   1.263 -0.0505  0.0558  0.5503
10371TIP3    H152604   4.932   5.922   1.231  0.5023 -0.9062 -1.4451
10371TIP3    H252605   4.802   5.854   1.268  0.1321  1.1125  1.2671
10372TIP3   OH252606   4.276   0.789   3.905 -0.1254  0.3372 -0.1555
10372TIP3    H152607   4.340   0.791   3.977  0.6062 -1.0054 -0.7431
10372TIP3    H252608   4.204   0.844   3.936  1.0607  1.4381  0.7532
10373TIP3   OH252609   4.866   5.814  10.885  0.1945 -0.3753  0.0256
10373TIP3    H152610   4.786   5.838  10.838 -0.5747 -2.4962  0.1344
10373TIP3    H252611   4.835   5.773  10.966  1.4368  0.0612  0.7514
10374TIP3   OH252612   6.763   5.701  16.959 -0.3954  0.2356 -0.3108
10374TIP3    H152613   6.843   5.736  16.920  0.0996 -0.7354 -0.2151
10374TIP3    H252614   6.697   5.709  16.891  0.0244  0.1844 -0.7321
10375TIP3   OH252615   1.883   1.725  12.089  0.2100 -0.4491 -0.6770
10375TIP3    H152616   1.857   1.808  12.127 -0.7166 -0.6825 -0.7788
10375TIP3    H252617   1.953   1.693  12.146 -0.5196 -0.3530  0.2765
10376TIP3   OH252618   5.686   5.413  14.299  0.5405  0.1042 -0.1753
10376TIP3    H152619   5.672   5.322  14.326  1.5348 -0.0443 -0.1338
10376TIP3    H252620   5.682   5.410  14.203  0.9194 -0.0477 -0.1885
10377TIP3   OH252621   3.206   2.378  12.042 -0.9192  0.1708  0.1593
10377TIP3    H152622   3.177   2.318  12.110 -2.1060  1.3772  0.7807
10377TIP3    H252623   3.272   2.433  12.084 -1.5992  0.8682  0.3493
10378TIP3   OH252624   4.216   5.807   4.818 -0.0047 -0.0912 -0.2289
10378TIP3    H152625   4.259   5.878   4.867 -0.8386  0.5891 -0.4669
10378TIP3    H252626   4.173   5.754   4.885  1.1270 -0.7594  0.0121
10379TIP3   OH252627   2.493   3.871   6.258 -0.1789 -0.0357 -0.1546
10379TIP3    H152628   2.436   3.929   6.308  2.4950  0.5076  2.5655
10379TIP3    H252629   2.469   3.783   6.286 -0.3617  0.1314  0.2192
10380TIP3   OH252630   5.031   4.400   4.524  0.2836 -0.6540  0.0687
10380TIP3    H152631   5.022   4.485   4.566  0.7241 -0.2210 -0.7073
10380TIP3    H252632   4.985   4.340   4.583  0.1011  0.0865  0.6990
10381TIP3   OH252633   6.620   5.241   2.899 -0.7513  0.6724 -0.0581
10381TIP3    H152634   6.553   5.198   2.951  1.3179 -2.5151  0.2122
10381TIP3    H252635   6.694   5.253   2.959  0.3498  0.3450 -1.2840
10382TIP3   OH252636   3.438   1.700   0.359 -0.4238  0.0402  0.3563
10382TIP3    H152637   3.493   1.728   0.432 -0.1389  0.6176 -0.0647
10382TIP3    H252638   3.455   1.606   0.350  0.9122  0.2951 -0.0983
10383TIP3   OH252639   2.091   2.055  11.038 -0.3090  0.0375  0.1066
10383TIP3    H152640   2.131   1.973  11.011 -0.2164  0.1640 -0.1470
10383TIP3    H252641   2.160   2.121  11.024 -0.8171  0.3585 -0.9801
10384TIP3   OH252642   4.460   2.261  12.352  0.4396  0.5433 -0.5211
10384TIP3    H152643   4.385   2.315  12.376  0.1122 -0.0390 -0.1986
10384TIP3    H252644   4.533   2.323  12.345 -0.0309  1.0932 -0.6745
10385TIP3   OH252645   6.123   0.305   1.374  0.2317 -0.6061 -0.3488
10385TIP3    H152646   6.074   0.363   1.433 -0.3120 -2.6447  1.3592
10385TIP3    H252647   6.213   0.307   1.407 -0.2435 -2.4260  1.2471
10386TIP3   OH252648   1.870   1.207   3.765 -0.0230  0.5176  0.2663
10386TIP3    H152649   1.896   1.115   3.769 -0.5414  0.4067  1.7716
10386TIP3    H252650   1.774   1.205   3.773 -0.1903  1.1270 -1.1810
10387TIP3   OH252651   0.987   0.838  16.141 -0.7456 -0.0404  0.1032
10387TIP3    H152652   1.018   0.907  16.199 -1.7511 -0.7226  1.5107
10387TIP3    H252653   0.989   0.877  16.054  4.4930 -0.1439 -0.1434
10388TIP3   OH252654   3.760   4.846  13.186  0.1716  0.1975  0.5705
10388TIP3    H152655   3.805   4.799  13.116  0.5364  1.7814 -0.3193
10388TIP3    H252656   3.697   4.902  13.141 -0.6692  0.1172  1.6202
10389TIP3   OH252657   6.040   3.088  15.333 -0.1732  0.6183  0.3294
10389TIP3    H152658   5.962   3.038  15.307  0.9039 -0.5707 -0.7291
10389TIP3    H252659   6.066   3.135  15.254  0.2972  0.8789  0.6315
10390TIP3   OH252660   4.422   2.706   2.829 -0.1122  0.5422 -0.1646
10390TIP3    H152661   4.368   2.631   2.852  1.3975 -0.3652  0.5339
10390TIP3    H252662   4.476   2.675   2.756  0.4440  0.9758  0.0579
10391TIP3   OH252663   6.035   2.394   0.607  0.0008  0.3011  0.0127
10391TIP3    H152664   6.018   2.388   0.513 -0.4550  0.4250  0.0837
10391TIP3    H252665   6.107   2.456   0.614 -0.4794  0.9033 -0.2112
10392TIP3   OH252666   5.248   0.164  10.890  0.0589 -0.5879  0.0804
10392TIP3    H152667   5.285   0.139  10.975  0.0397 -0.3598  0.1585
10392TIP3    H252668   5.258   0.087  10.835 -0.8055 -1.0667  0.5806
10393TIP3   OH252669   1.887   4.149  14.825  0.3521  0.5460 -0.4135
10393TIP3    H152670   1.936   4.143  14.906  0.9218 -1.4705 -0.8585
10393TIP3    H252671   1.863   4.242  14.818  1.3730  0.9852  1.3855
10394TIP3   OH252672   6.086   2.639   3.515 -0.2063  0.2202  0.2454
10394TIP3    H152673   6.011   2.581   3.523  0.2872 -0.6223 -0.9539
10394TIP3    H252674   6.075   2.703   3.585 -0.9952 -1.0589  1.3270
10395TIP3   OH252675   2.388   5.716   0.734 -0.4380 -0.2193 -0.1037
10395TIP3    H152676   2.427   5.641   0.778  1.5727  1.3610  0.9613
10395TIP3    H252677   2.396   5.696   0.640 -0.3437 -1.4981  0.1570
10396TIP3   OH252678   4.982   0.812  11.622  0.1040  0.0875  0.0586
10396TIP3    H152679   5.059   0.815  11.680  1.6207  0.4787 -1.8691
10396TIP3    H252680   5.003   0.873  11.551 -1.9382  0.0716 -0.6125
10397TIP3   OH252681   6.409   2.286  14.632  0.3093  0.2206  0.2318
10397TIP3    H152682   6.320   2.290  14.669  1.1348  0.7325  2.3555
10397TIP3    H252683   6.460   2.241  14.699  2.0526  1.7191 -0.0028
10398TIP3   OH252684   2.190   4.080   2.863 -0.1535 -0.5741 -0.3370
10398TIP3    H152685   2.107   4.080   2.910 -1.0522  0.1404 -1.8622
10398TIP3    H252686   2.174   4.134   2.785  1.5252 -1.0063 -1.0256
10399TIP3   OH252687   2.680   2.039  16.653  0.8343 -0.2014 -0.0452
10399TIP3    H152688   2.607   2.078  16.702  1.0964  0.7050 -0.3589
10399TIP3    H252689   2.639   1.998  16.577  0.8543  2.8888 -1.8736
10400TIP3   OH252690   6.041   1.471   0.871 -0.2631  1.2718  0.3002
10400TIP3    H152691   5.987   1.417   0.929 -1.2818  2.5405  0.6016
10400TIP3    H252692   5.984   1.489   0.796  0.8530  0.1109 -0.8685
10401TIP3   OH252693   3.933   6.330   1.813  0.2568 -0.3192  0.0788
10401TIP3    H152694   3.964   6.302   1.899 -3.2568  1.0788  2.0142
10401TIP3    H252695   3.937   6.426   1.816 -3.5898 -0.0119  0.4416
10402TIP3   OH252696   6.082   1.846   0.746  0.0143  0.0493  0.8404
10402TIP3    H152697   6.115   1.781   0.808  2.0817  0.0377 -0.1462
10402TIP3    H252698   6.124   1.928   0.773 -0.2110  0.3336  0.3430
10403TIP3   OH252699   1.186   6.181   3.040 -0.3417  0.0833 -0.4363
10403TIP3    H152700   1.193   6.144   3.128  2.1842 -1.7307 -1.2716
10403TIP3    H252701   1.211   6.273   3.050 -1.9651  0.4184  0.9648
10404TIP3   OH252702   1.706   6.673   5.972  0.0634 -0.6454  0.0974
10404TIP3    H152703   1.725   6.753   5.922 -1.1496 -1.3684 -1.6343
10404TIP3    H252704   1.775   6.613   5.948  0.2716 -0.5362  0.4158
10405TIP3   OH252705   0.393   5.112   5.184  0.0314  0.2001  0.5046
10405TIP3    H152706   0.324   5.139   5.123  1.0070  3.4273  0.6359
10405TIP3    H252707   0.347   5.094   5.266 -0.8494  0.4542  0.0802
10406TIP3   OH252708   0.816   6.675  12.505  0.2136  0.0563 -0.7776
10406TIP3    H152709   0.784   6.653  12.417 -1.1412  0.7168 -0.4839
10406TIP3    H252710   0.789   6.766  12.518  1.0249  0.1887  0.0517
10407TIP3   OH252711   1.196   4.053   2.262 -0.1316  0.5716  0.0946
10407TIP3    H152712   1.161   4.134   2.224  1.0077  0.5831 -0.9896
10407TIP3    H252713   1.210   3.996   2.187 -0.7466 -0.5766  0.8335
10408TIP3   OH252714   3.306   5.705   4.891  0.2071 -0.0718 -0.3080
10408TIP3    H152715   3.319   5.662   4.975  1.2943  1.1074  0.1633
10408TIP3    H252716   3.348   5.791   4.901 -0.6446  0.5409 -1.6723
10409TIP3   OH252717   2.710   3.833   2.812 -0.2742 -0.1601  0.3300
10409TIP3    H152718   2.701   3.904   2.748 -0.2992  0.5488  1.1019
10409TIP3    H252719   2.804   3.817   2.816 -0.2798 -0.2793  0.0510
10410TIP3   OH252720   4.217   3.905   1.990 -0.4407  0.1151 -0.2263
10410TIP3    H152721   4.174   3.851   1.923 -0.1710 -0.6990  0.2410
10410TIP3    H252722   4.310   3.899   1.970 -0.4416  0.8049 -0.4536
10411TIP3   OH252723   6.378   5.770  16.179  0.3493 -0.1076  0.4893
10411TIP3    H152724   6.347   5.755  16.090 -0.5864 -2.6354  1.1570
10411TIP3    H252725   6.305   5.813  16.223 -0.0486 -0.8456  0.5713
10412TIP3   OH252726   6.130   0.848   1.600 -0.1572 -0.1938  1.2524
10412TIP3    H152727   6.224   0.860   1.610 -0.0304 -2.1268  3.5473
10412TIP3    H252728   6.120   0.794   1.521  0.7049 -0.3877  1.2744
10413TIP3   OH252729   6.450   1.979   5.922  0.6735  0.3751 -0.7816
10413TIP3    H152730   6.453   1.934   5.838  3.3386  0.3716 -0.7739
10413TIP3    H252731   6.394   1.924   5.977  1.2232 -1.1936 -1.7251
10414TIP3   OH252732   1.021   6.770  12.863  0.2220 -0.3351  0.0614
10414TIP3    H152733   0.988   6.850  12.904  0.9030  1.5945 -2.8677
10414TIP3    H252734   0.947   6.709  12.867 -0.9519  1.0558  0.7410
10415TIP3   OH252735   0.941   5.340  14.536 -0.0555 -0.2106  0.0496
10415TIP3    H152736   0.984   5.405  14.592  1.5838 -1.3731  0.2319
10415TIP3    H252737   0.985   5.350  14.451 -0.7353 -0.1932 -0.3062
10416TIP3   OH252738   4.654   3.914   3.981 -0.0437 -0.0062 -0.3074
10416TIP3    H152739   4.674   3.978   3.913  0.8845  0.5580  0.4615
10416TIP3    H252740   4.568   3.939   4.014  0.3066  0.8524 -0.0263
10417TIP3   OH252741   6.110   6.324   2.939  0.7771  0.5385 -0.1137
10417TIP3    H152742   6.019   6.305   2.961  0.5856  3.6115  2.5141
10417TIP3    H252743   6.161   6.264   2.994  0.3062  0.5481  0.3400
10418TIP3   OH252744   6.692   6.725   0.071  0.1327 -0.4041 -0.2531
10418TIP3    H152745   6.617   6.781   0.090  0.6362  0.3964 -0.5930
10418TIP3    H252746   6.681   6.699  -0.021  0.3028 -0.2300 -0.3240
10419TIP3   OH252747   0.121   0.362  13.359  0.0038 -0.2488 -0.1244
10419TIP3    H152748   0.128   0.431  13.424 -1.0191 -1.4612  1.3581
10419TIP3    H252749   0.052   0.391  13.300 -0.3199  0.0764  0.4076
10420TIP3   OH252750   3.120   2.643  16.599 -1.1056  0.8141  0.4983
10420TIP3    H152751   3.178   2.693  16.542 -0.2719  0.9769  1.4435
10420TIP3    H252752   3.137   2.679  16.687  0.4543 -1.8677  1.4245
10421TIP3   OH252753   0.991   0.657   5.001  0.5690 -0.2690 -0.1937
10421TIP3    H152754   1.000   0.695   5.088  1.7811  1.2576 -0.9345
10421TIP3    H252755   1.068   0.688   4.953  1.2539 -3.1020 -1.1120
10422TIP3   OH252756   4.202   0.170  12.015 -0.2662  0.5408 -0.7942
10422TIP3    H152757   4.246   0.132  12.091 -2.6624  1.7319  1.3338
10422TIP3    H252758   4.201   0.100  11.950  1.1632 -0.7987  0.5409
10423TIP3   OH252759   1.000   4.518  15.547 -0.4167  0.4970 -0.1101
10423TIP3    H152760   1.093   4.536  15.539 -0.1059 -1.3718 -1.1986
10423TIP3    H252761   0.993   4.465  15.626 -0.1619 -1.5307 -1.3933
10424TIP3   OH252762   1.229   5.302  11.398 -0.1823  0.4759  0.7310
10424TIP3    H152763   1.272   5.230  11.353 -0.2264  0.7235  0.2883
10424TIP3    H252764   1.297   5.367  11.411 -0.3610  0.7704  0.2355
10425TIP3   OH252765   1.126   4.543  16.824 -0.0773 -0.4488 -0.0486
10425TIP3    H152766   1.201   4.495  16.788  0.4977  1.2310 -1.2161
10425TIP3    H252767   1.064   4.547  16.752  0.3561  1.4496 -0.3846
10426TIP3   OH252768   6.561   0.772   4.972  0.2636  0.7086  0.4057
10426TIP3    H152769   6.511   0.810   5.044 -1.0148 -0.1181 -0.0132
10426TIP3    H252770   6.651   0.769   5.005  0.0166  1.9769  1.2818
10427TIP3   OH252771   2.117   0.825  10.337  0.1528  0.2133  0.0008
10427TIP3    H152772   2.053   0.814  10.266 -0.8062 -1.3422  1.0294
10427TIP3    H252773   2.063   0.844  10.414  0.7856 -2.1330  1.1041
10428TIP3   OH252774   4.290   5.634  13.976 -0.4560 -0.6827 -0.3001
10428TIP3    H152775   4.239   5.705  13.937 -0.7580 -0.2610  0.8282
10428TIP3    H252776   4.321   5.583  13.901 -0.3258  0.5734 -1.1292
10429TIP3   OH252777   5.102   3.411  16.429  0.4360 -0.1202  0.0542
10429TIP3    H152778   5.025   3.392  16.376 -0.0073  1.6269  0.0162
10429TIP3    H252779   5.155   3.469  16.373  1.1399 -0.2419  0.5892
10430TIP3   OH252780   0.743   2.958   1.070 -0.2234  0.7273  0.1703
10430TIP3    H152781   0.833   2.962   1.039 -0.2941  0.4475 -0.0738
10430TIP3    H252782   0.691   2.990   0.996 -0.3765  0.2513  0.0688
10431TIP3   OH252783   5.049   0.534   2.601  0.3975 -0.2463 -0.3104
10431TIP3    H152784   5.083   0.611   2.647  1.7991 -0.2694 -1.2560
10431TIP3    H252785   5.015   0.569   2.518  0.8165 -0.6084 -0.6377
10432TIP3   OH252786   5.810   5.868   5.603 -0.7495  0.2557  0.2271
10432TIP3    H152787   5.797   5.826   5.688 -0.5151  0.9961  0.6392
10432TIP3    H252788   5.728   5.852   5.555 -0.1054 -1.9883 -0.2327
10433TIP3   OH252789   2.499   2.475   1.397 -0.0008  0.4975  0.7344
10433TIP3    H152790   2.434   2.544   1.413 -0.9579 -0.0854 -0.5061
10433TIP3    H252791   2.574   2.521   1.360 -0.4743  0.9428  0.3034
10434TIP3   OH252792   1.395   6.193  13.388 -0.1834  0.0956 -0.5974
10434TIP3    H152793   1.316   6.141  13.374 -0.6158  0.7003 -0.4519
10434TIP3    H252794   1.363   6.276  13.424  0.3979  0.8763 -1.8301
10435TIP3   OH252795   3.908   2.441  16.532 -0.2013  0.0533 -0.0183
10435TIP3    H152796   3.975   2.448  16.463 -0.0464 -0.8025  0.0236
10435TIP3    H252797   3.930   2.359  16.577 -1.3899 -0.3459 -0.1277
10436TIP3   OH252798   3.835   6.282   0.135  0.2809 -0.7901  0.6557
10436TIP3    H152799   3.850   6.376   0.135  1.7786 -0.9565 -1.3985
10436TIP3    H252800   3.759   6.270   0.077  0.3614 -0.8643  0.5647
10437TIP3   OH252801   6.379   0.879   5.152  0.1509  0.3963 -0.2340
10437TIP3    H152802   6.391   0.937   5.228 -0.1994  0.8793 -0.5386
10437TIP3    H252803   6.333   0.933   5.088 -2.2349 -0.8744  0.2918
10438TIP3   OH252804   4.933   2.088   4.063  0.2901  0.2583 -0.6122
10438TIP3    H152805   4.868   2.046   4.006  0.5824 -1.9670  0.5637
10438TIP3    H252806   4.896   2.080   4.151  1.7652 -0.3275 -0.0148
10439TIP3   OH252807   5.902   5.112   2.689  0.5072  0.0472 -0.3653
10439TIP3    H152808   5.912   5.024   2.725 -1.6550  0.7600  2.2924
10439TIP3    H252809   5.844   5.100   2.614  2.8865 -1.1003 -2.1945
10440TIP3   OH252810   2.625   3.441   2.608  0.1569  0.0430  0.1415
10440TIP3    H152811   2.694   3.403   2.662 -0.6196  0.0763  1.1995
10440TIP3    H252812   2.609   3.527   2.647  1.3455  1.1954 -1.7347
10441TIP3   OH252813   1.769   1.630   0.450  0.1852  0.4122  0.5206
10441TIP3    H152814   1.735   1.640   0.361  0.7737  2.9156  0.4926
10441TIP3    H252815   1.701   1.581   0.496 -1.8808  2.2004 -0.4230
10442TIP3   OH252816   4.241   6.606   3.367  0.1974 -0.5605 -0.0181
10442TIP3    H152817   4.199   6.616   3.453  1.2678 -0.0025  0.4613
10442TIP3    H252818   4.189   6.539   3.323 -0.9503 -0.1868  0.6975
10443TIP3   OH252819   1.158   1.426   0.325  0.0161  0.3484 -0.5308
10443TIP3    H152820   1.204   1.395   0.248 -0.1998 -1.5948  0.0716
10443TIP3    H252821   1.069   1.443   0.294  0.3055  1.0054 -1.0113
10444TIP3   OH252822   6.639   3.393   4.915  0.3834  0.4504 -0.4449
10444TIP3    H152823   6.695   3.471   4.907  1.5482  0.4681  4.6260
10444TIP3    H252824   6.697   3.320   4.892  0.4446  0.8187 -1.5150
10445TIP3   OH252825   4.173   1.913  13.624  0.5413 -0.1493  0.5074
10445TIP3    H152826   4.158   2.000  13.660 -2.6178  0.5358 -2.0474
10445TIP3    H252827   4.136   1.854  13.690  0.0581  0.6462  0.9613
10446TIP3   OH252828   0.748   3.027  14.118 -0.3786  0.2161  0.2049
10446TIP3    H152829   0.661   2.993  14.093 -1.5032  1.2935  2.3837
10446TIP3    H252830   0.807   2.954  14.103 -1.8492 -0.9585 -0.1939
10447TIP3   OH252831   0.729   2.516   2.056  0.4500 -0.3517  0.0496
10447TIP3    H152832   0.692   2.444   2.005  2.2538 -0.9327 -0.5288
10447TIP3    H252833   0.661   2.538   2.119 -0.5336 -1.9111 -0.3992
10448TIP3   OH252834   6.299   6.665   3.745  0.1880 -0.0179 -0.0728
10448TIP3    H152835   6.337   6.652   3.831  0.5159  0.5969 -0.1203
10448TIP3    H252836   6.247   6.586   3.729 -0.3367  0.1194  0.9249
10449TIP3   OH252837   2.932   6.477  14.787  0.5474  0.1828 -0.0714
10449TIP3    H152838   2.993   6.470  14.860 -0.3333  1.2021  0.7997
10449TIP3    H252839   2.988   6.492  14.710  1.4866 -0.9358  0.3703
10450TIP3   OH252840   6.013   4.463   6.231 -0.0082 -0.4698  0.2546
10450TIP3    H152841   6.101   4.426   6.235  0.8292  1.4617  3.2888
10450TIP3    H252842   5.996   4.493   6.321 -2.4791  2.0712 -0.9097
10451TIP3   OH252843   1.489   0.470   2.431 -0.6220 -0.3523  0.1208
10451TIP3    H152844   1.476   0.391   2.484 -0.2760 -0.4031  0.1298
10451TIP3    H252845   1.410   0.474   2.376 -1.2782  0.0423  1.0622
10452TIP3   OH252846   4.207   4.972   6.683 -0.0915  0.2348  0.6992
10452TIP3    H152847   4.293   5.009   6.701 -0.4841  1.2131  0.5972
10452TIP3    H252848   4.148   5.047   6.680 -0.5926 -0.1720 -1.4271
10453TIP3   OH252849   1.667   6.108  15.523  0.1227 -0.5749  0.4603
10453TIP3    H152850   1.743   6.139  15.573 -0.8636 -0.6181  2.0677
10453TIP3    H252851   1.603   6.084  15.590 -1.2261 -0.7695 -0.8505
10454TIP3   OH252852   3.276   4.712  15.942  0.0229 -0.3754  0.2752
10454TIP3    H152853   3.270   4.674  15.854  0.3039  1.1067 -0.4134
10454TIP3    H252854   3.366   4.694  15.970  0.7340  1.2727 -0.7951
10455TIP3   OH252855   4.156   3.557   1.918  0.3489 -0.1159 -0.2821
10455TIP3    H152856   4.246   3.534   1.898  0.5683  0.9638 -0.5862
10455TIP3    H252857   4.153   3.562   2.014  0.2367 -1.5489 -0.1842
10456TIP3   OH252858   2.785   6.778  12.976 -1.1723  0.0512  0.2457
10456TIP3    H152859   2.692   6.793  12.961 -1.0883  0.2477 -0.1004
10456TIP3    H252860   2.803   6.694  12.935 -0.7339  1.0385 -1.7202
10457TIP3   OH252861   6.284   1.582   4.129 -0.0072  0.4161 -0.6735
10457TIP3    H152862   6.252   1.512   4.072  1.3776  0.5332 -1.6535
10457TIP3    H252863   6.241   1.566   4.213  1.1227 -2.3839 -0.4935
10458TIP3   OH252864   3.128   2.245  13.557  0.0094  0.5022 -0.5900
10458TIP3    H152865   3.063   2.298  13.604  1.4999 -0.1775  2.4734
10458TIP3    H252866   3.105   2.155  13.579 -0.1520  0.0150 -2.5616
10459TIP3   OH252867   0.854   5.379  12.929  0.4349  0.2982  0.0223
10459TIP3    H152868   0.765   5.387  12.964  0.1538  0.8732 -0.7991
10459TIP3    H252869   0.884   5.469  12.916  0.4466  0.1220 -1.3732
10460TIP3   OH252870   2.884   0.927   0.465 -0.2902  0.2555  0.3221
10460TIP3    H152871   2.943   0.902   0.394 -2.0386  0.5297 -1.3286
10460TIP3    H252872   2.898   0.860   0.532  0.7585 -0.5732 -0.6645
10461TIP3   OH252873   5.583   2.966  14.586 -0.0231 -0.4431 -0.5312
10461TIP3    H152874   5.665   2.963  14.634 -0.5992 -1.1463  0.4528
10461TIP3    H252875   5.582   2.886  14.534 -0.6119 -1.0578  0.3953
10462TIP3   OH252876   6.032   5.314  16.480 -0.4544 -0.2090 -0.3296
10462TIP3    H152877   6.004   5.243  16.538 -0.6629 -0.5634 -0.8633
10462TIP3    H252878   6.078   5.375  16.538  0.0920 -0.9772  0.0624
10463TIP3   OH252879   2.603   1.152  11.493  0.5627 -0.4595 -0.2404
10463TIP3    H152880   2.520   1.106  11.511  0.7957  0.0829  2.8070
10463TIP3    H252881   2.583   1.244  11.507  1.7798 -0.3777  1.2251
10464TIP3   OH252882   6.017   6.802  14.992 -0.2695  0.1513  0.1778
10464TIP3    H152883   5.938   6.754  15.017 -1.0753  1.7878  0.8851
10464TIP3    H252884   6.061   6.822  15.075  2.4320 -3.0547 -0.2415
10465TIP3   OH252885   5.201   5.216  11.929  0.0419 -0.0679  0.0519
10465TIP3    H152886   5.273   5.264  11.970 -1.1590  1.6896  0.1877
10465TIP3    H252887   5.147   5.283  11.888 -1.3723 -1.3700 -0.3267
10466TIP3   OH252888   3.257   1.319   2.507 -0.1924  0.4638 -0.6277
10466TIP3    H152889   3.341   1.327   2.553 -0.0386 -1.5387 -0.4686
10466TIP3    H252890   3.191   1.324   2.576 -0.0796 -0.2119 -0.4673
10467TIP3   OH252891   4.692   5.900   2.131 -0.2534 -0.7613  0.8812
10467TIP3    H152892   4.761   5.922   2.193  0.1060 -1.0356  0.5830
10467TIP3    H252893   4.702   5.806   2.117  0.3990 -0.5163 -0.4558
10468TIP3   OH252894   5.650   5.454  13.970  0.3549 -0.2135 -0.6229
10468TIP3    H152895   5.690   5.367  13.972  1.7409  0.3848  1.3141
10468TIP3    H252896   5.654   5.481  13.879 -0.9000 -2.4987 -1.4143
10469TIP3   OH252897   2.870   5.865  12.304  0.4898  0.1932  0.2837
10469TIP3    H152898   2.964   5.849  12.307  0.7978  1.4141 -1.4012
10469TIP3    H252899   2.855   5.932  12.371  1.1767  1.4381 -0.7766
10470TIP3   OH252900   0.091   6.454  11.180  0.1684 -0.1797 -0.4628
10470TIP3    H152901   0.001   6.429  11.203  0.7095 -1.8873 -0.0604
10470TIP3    H252902   0.084   6.491  11.092 -1.0517  0.6104 -0.0635
10471TIP3   OH252903   4.370   5.555  15.751  0.3787  0.0075 -0.4316
10471TIP3    H152904   4.453   5.593  15.723  0.4701 -0.3454 -0.6521
10471TIP3    H252905   4.311   5.565  15.676 -0.0615  1.0780  0.0407
10472TIP3   OH252906   0.914   1.950   1.911 -0.2081  0.0780 -0.0988
10472TIP3    H152907   0.956   1.962   1.826 -1.8298  2.3064 -0.6989
10472TIP3    H252908   0.986   1.933   1.971  1.3362  1.5495 -1.4172
10473TIP3   OH252909   2.361   6.643  14.578 -0.3907 -0.0565 -0.7590
10473TIP3    H152910   2.412   6.562  14.577 -0.0995  0.0805  0.7537
10473TIP3    H252911   2.289   6.627  14.518 -0.4546 -1.5148 -0.3255
10474TIP3   OH252912   5.220   0.379   2.188  0.2408 -0.4297  0.1722
10474TIP3    H152913   5.203   0.372   2.094  0.6648 -1.6522  0.1705
10474TIP3    H252914   5.137   0.411   2.225  0.7795  2.5033 -0.8625
10475TIP3   OH252915   4.413   5.794   1.057 -0.1126 -0.0137 -0.4517
10475TIP3    H152916   4.423   5.701   1.040 -0.8823 -0.2708  0.4026
10475TIP3    H252917   4.375   5.830   0.977  1.6432 -0.1274 -1.3787
10476TIP3   OH252918   1.913   2.156  16.493  0.5439 -0.6335 -0.1059
10476TIP3    H152919   1.943   2.233  16.445  2.6821 -1.4949 -0.2329
10476TIP3    H252920   1.821   2.147  16.469 -0.0980  2.4857  0.7542
10477TIP3   OH252921   6.580   6.067   0.784 -0.2917 -0.3459  0.1190
10477TIP3    H152922   6.539   6.114   0.712 -0.6472 -1.5566 -0.5003
10477TIP3    H252923   6.595   6.134   0.851  2.2862  1.3555 -1.9344
10478TIP3   OH252924   3.133   5.804  12.255 -0.1704 -0.6613  0.6426
10478TIP3    H152925   3.209   5.751  12.229  0.8926  0.5329  1.1892
10478TIP3    H252926   3.160   5.894  12.239 -1.7617 -0.2301  0.1913
10479TIP3   OH252927   5.659   0.474   2.771  0.0400  0.4338  0.3426
10479TIP3    H152928   5.681   0.548   2.828 -0.1117 -0.0266  1.0092
10479TIP3    H252929   5.565   0.464   2.779  0.2850 -1.1055  1.8773
10480TIP3   OH252930   3.779   2.550  16.072 -0.5466  0.1705  0.3035
10480TIP3    H152931   3.809   2.641  16.073  0.0946 -0.0182  2.3295
10480TIP3    H252932   3.687   2.556  16.044 -0.3393  1.3531 -0.1918
10481TIP3   OH252933   1.411   6.226   2.869 -0.6692 -0.4834  0.2107
10481TIP3    H152934   1.328   6.187   2.897 -1.3297  0.8628  0.1785
10481TIP3    H252935   1.401   6.236   2.774 -0.4540 -0.3354  0.2040
10482TIP3   OH252936   2.211   5.158  11.986 -0.0268  0.0155  0.0091
10482TIP3    H152937   2.266   5.151  12.064  0.0192  2.2466  0.2457
10482TIP3    H252938   2.123   5.173  12.020 -0.0036  1.0177 -0.3378
10483TIP3   OH252939   6.613   2.475  14.641  0.0946  0.7881  0.1814
10483TIP3    H152940   6.594   2.545  14.578  2.0734  0.2031 -1.1604
10483TIP3    H252941   6.537   2.417  14.636 -0.5026  1.5962 -0.4592
10484TIP3   OH252942   4.744   0.810  12.784  0.0008  0.1798  0.1443
10484TIP3    H152943   4.738   0.731  12.839  0.5774  0.4796  0.6457
10484TIP3    H252944   4.799   0.870  12.834  1.5115  0.0396 -1.2807
10485TIP3   OH252945   5.384   6.690   5.143 -0.2472 -0.2809  0.4365
10485TIP3    H152946   5.468   6.657   5.113 -0.4349 -0.3383 -0.0372
10485TIP3    H252947   5.404   6.772   5.188  0.0646 -0.3186  0.3641
10486TIP3   OH252948   1.455   6.223   1.760 -0.0419  0.3507  0.3951
10486TIP3    H152949   1.462   6.285   1.687 -0.0953  1.4173  1.2649
10486TIP3    H252950   1.465   6.137   1.719 -2.7874  0.7055 -1.2828
10487TIP3   OH252951   0.680   2.183   4.617 -0.3791  0.1340  0.1280
10487TIP3    H152952   0.605   2.219   4.569 -1.2185  0.5192  1.6325
10487TIP3    H252953   0.737   2.147   4.550 -1.8946 -0.1217 -1.0824
10488TIP3   OH252954   6.494   6.281   1.355  0.3984 -0.2092 -0.5379
10488TIP3    H152955   6.429   6.346   1.382  0.2274 -0.4870 -0.2800
10488TIP3    H252956   6.578   6.320   1.379  0.4309  0.7169 -2.0121
10489TIP3   OH252957   2.236   0.927  16.179  0.0257  0.0083  0.6769
10489TIP3    H152958   2.221   1.014  16.216 -2.7120 -0.4073  0.8114
10489TIP3    H252959   2.281   0.943  16.097 -2.1818  1.7978 -0.3064
10490TIP3   OH252960   5.904   4.636   3.867  0.0957  0.3495 -0.6905
10490TIP3    H152961   5.966   4.595   3.927  1.3806  1.1265 -1.4515
10490TIP3    H252962   5.938   4.725   3.855 -0.8557  0.6126 -1.5658
10491TIP3   OH252963   6.476   3.556  11.691 -0.6484  0.6394 -0.2359
10491TIP3    H152964   6.422   3.595  11.622  1.0495 -0.4543 -2.3171
10491TIP3    H252965   6.497   3.469  11.659 -1.0146 -0.5318  2.4306
10492TIP3   OH252966   1.027   2.439   4.136  0.1059  0.0232 -0.0953
10492TIP3    H152967   1.079   2.503   4.185  0.0913 -1.9166  2.7089
10492TIP3    H252968   1.085   2.411   4.065  0.3099  2.6062 -1.0630
10493TIP3   OH252969   3.893   0.992   0.136  0.3054  0.0394 -0.6399
10493TIP3    H152970   3.885   1.078   0.177 -1.1128 -0.0782 -0.6213
10493TIP3    H252971   3.802   0.962   0.124  0.7466 -2.0666  0.6484
10494TIP3   OH252972   6.088   6.137  13.866  0.2816 -0.0926 -0.2707
10494TIP3    H152973   6.096   6.126  13.771  0.0944  0.6583 -0.3794
10494TIP3    H252974   6.045   6.222  13.877  1.5945  0.5116  0.5075
10495TIP3   OH252975   2.713   1.942   5.316 -0.2121 -0.1916 -0.0791
10495TIP3    H152976   2.753   1.858   5.338 -0.8715 -0.9312 -1.5135
10495TIP3    H252977   2.785   1.994   5.279  0.1046 -0.3009  0.3875
10496TIP3   OH252978   4.370   5.702  14.631 -1.1014  0.4039 -0.2664
10496TIP3    H152979   4.344   5.640  14.699  0.9580 -0.4142 -0.1522
10496TIP3    H252980   4.392   5.782  14.678  2.0832 -0.6935  0.4111
10497TIP3   OH252981   3.150   6.584  11.679 -0.3397 -0.2675  0.2585
10497TIP3    H152982   3.219   6.576  11.614 -0.2792  0.8223  0.1818
10497TIP3    H252983   3.071   6.553  11.633 -0.0884 -0.6158  0.0517
10498TIP3   OH252984   1.918   3.800   4.965 -0.1122 -0.1296  0.1939
10498TIP3    H152985   1.894   3.787   5.057  0.0447  0.0147  0.2556
10498TIP3    H252986   1.880   3.885   4.942  0.2485  0.0495  0.2601
10499TIP3   OH252987   5.439   0.460   1.459  0.0729  0.0505 -0.6358
10499TIP3    H152988   5.501   0.416   1.518 -0.4620  0.6178  0.3884
10499TIP3    H252989   5.459   0.553   1.469 -0.8577  0.2353 -0.3588
10500TIP3   OH252990   2.313   4.917   3.966 -0.7152  0.7749  0.0874
10500TIP3    H152991   2.382   4.983   3.965 -0.9256  0.9915 -0.2006
10500TIP3    H252992   2.270   4.926   3.881 -0.9865  0.5222  0.1962
10501TIP3   OH252993   6.552   3.175  15.241  0.3824 -0.6581  0.0581
10501TIP3    H152994   6.533   3.211  15.327  0.8622  2.0306 -0.8773
10501TIP3    H252995   6.647   3.162  15.240  0.8110  2.0467 -0.9536
10502TIP3   OH252996   5.209   5.644   2.609  0.1753 -0.1181 -0.4634
10502TIP3    H152997   5.238   5.564   2.652  0.8379 -0.9165 -2.2777
10502TIP3    H252998   5.195   5.618   2.518 -0.0394  1.7444 -1.0047
10503TIP3   OH252999   3.335   3.788  14.731  0.1555 -0.6335  0.8278
10503TIP3    H153000   3.350   3.694  14.732 -2.4258 -1.1168  1.4619
10503TIP3    H253001   3.258   3.799  14.675  0.2460  1.0812  0.9898
10504TIP3   OH253002   4.046   6.345   3.997 -0.4397  0.3931  0.2611
10504TIP3    H153003   3.958   6.382   3.987 -0.7871 -0.0511  1.5018
10504TIP3    H253004   4.096   6.415   4.040 -0.6535  0.0482  1.0937
10505TIP3   OH253005   5.004   5.758  16.611 -0.1349 -0.6457  0.0512
10505TIP3    H153006   5.024   5.837  16.560  1.9816 -0.8125  0.5136
10505TIP3    H253007   5.077   5.699  16.592 -0.6179 -1.6869  1.3129
10506TIP3   OH253008   2.064   6.175  11.993 -0.3985  0.0150  0.6556
10506TIP3    H153009   1.991   6.166  11.932 -1.9064 -0.2764  2.4019
10506TIP3    H253010   2.134   6.123  11.954 -0.8181  0.9334 -1.4646
10507TIP3   OH253011   0.937   0.107  10.926  0.6796 -0.0465  0.1023
10507TIP3    H153012   0.867   0.049  10.896  0.8996  0.1624 -0.8685
10507TIP3    H253013   0.907   0.139  11.011 -0.5282  0.2088 -0.3886
10508TIP3   OH253014   2.750   5.128   3.519 -0.5250 -0.4213 -0.9501
10508TIP3    H153015   2.833   5.176   3.516 -0.9368  0.3260 -0.7199
10508TIP3    H253016   2.709   5.147   3.434  0.0482 -1.7410 -1.5406
10509TIP3   OH253017   1.362   6.174   1.104 -0.2783  0.0604 -0.3700
10509TIP3    H153018   1.419   6.110   1.062  0.4673 -1.4042  2.6342
10509TIP3    H253019   1.314   6.125   1.170 -4.4816  1.4158 -2.0521
10510TIP3   OH253020   0.701   4.212   5.493  1.0372  0.4916  0.5309
10510TIP3    H153021   0.632   4.150   5.518 -0.2961  0.7172 -2.1494
10510TIP3    H253022   0.768   4.202   5.560 -0.3281 -1.8741  1.6851
10511TIP3   OH253023   2.093   0.693   5.616 -0.6708 -0.1038  0.1422
10511TIP3    H153024   2.011   0.704   5.663 -0.2673  1.4174  0.5530
10511TIP3    H253025   2.105   0.776   5.570  0.3682 -0.5072 -0.3367
10512TIP3   OH253026   1.544   1.388  14.265  0.1964  0.3193  0.2124
10512TIP3    H153027   1.451   1.362  14.265  0.7625 -1.9114 -0.2047
10512TIP3    H253028   1.564   1.407  14.356 -0.2450 -0.9629  0.5981
10513TIP3   OH253029   1.351   6.544  16.756  0.0058  0.2659  0.6742
10513TIP3    H153030   1.294   6.466  16.751 -0.2311  0.4204  0.9057
10513TIP3    H253031   1.390   6.550  16.670  1.4943 -1.2097  1.1828
10514TIP3   OH253032   3.907   2.289  15.016 -0.3168  0.3215  0.2454
10514TIP3    H153033   3.935   2.227  15.083  0.9296 -0.1179 -0.6344
10514TIP3    H253034   3.918   2.375  15.056  0.6582  0.0750  0.5284
10515TIP3   OH253035   2.023   5.605   3.202 -0.0105  0.1243 -0.4062
10515TIP3    H153036   2.066   5.520   3.214 -0.8396 -0.0433  1.6683
10515TIP3    H253037   1.957   5.609   3.270 -0.5804  2.1032 -0.9988
10516TIP3   OH253038   6.023   0.080   3.989 -0.2542  0.2417  0.0078
10516TIP3    H153039   5.938   0.123   3.996 -0.1567  0.3069  1.0886
10516TIP3    H253040   6.084   0.144   4.027  0.0695 -0.3325  0.4751
10517TIP3   OH253041   2.092   2.398   2.386  0.6088 -0.1978  0.3042
10517TIP3    H153042   2.117   2.480   2.428 -0.5238  0.7055 -0.7082
10517TIP3    H253043   2.010   2.373   2.428 -0.9085  1.0776 -1.6945
10518TIP3   OH253044   4.376   5.394  13.799  0.5103  0.8076 -0.5487
10518TIP3    H153045   4.359   5.302  13.779 -2.2881  0.4607  2.4365
10518TIP3    H253046   4.456   5.393  13.851 -0.9456 -0.4820  1.8698
10519TIP3   OH253047   5.841   0.821  15.764  0.3570  0.5247 -0.2597
10519TIP3    H153048   5.832   0.836  15.858  1.2471  1.9097 -0.3695
10519TIP3    H253049   5.756   0.846  15.728  0.3319  0.9425  0.0805
10520TIP3   OH253050   5.137   6.097   5.659  0.1497 -0.7078  0.3038
10520TIP3    H153051   5.099   6.185   5.652  2.2546  0.2060 -0.5900
10520TIP3    H253052   5.124   6.073   5.751 -0.0133  0.7731  0.7019
10521TIP3   OH253053   5.471   6.243  13.141 -0.0628 -0.1995 -0.2378
10521TIP3    H153054   5.564   6.223  13.126 -0.5549 -2.3910 -0.6956
10521TIP3    H253055   5.443   6.181  13.208 -0.7198  1.9283  1.5821
10522TIP3   OH253056   3.973   4.257  16.948  0.0387  0.2116  0.2124
10522TIP3    H153057   4.046   4.254  17.010 -0.7946 -0.1223  1.2001
10522TIP3    H253058   4.003   4.204  16.874  0.8016  0.0801  0.5994
10523TIP3   OH253059   0.172   2.891  14.696  0.1316  0.4681 -0.3173
10523TIP3    H153060   0.081   2.919  14.705 -0.9664 -3.1218  1.7570
10523TIP3    H253061   0.216   2.929  14.771  0.1778  1.4721 -0.8326
10524TIP3   OH253062   4.389   4.267   0.303 -0.1606  0.4984  0.0056
10524TIP3    H153063   4.422   4.324   0.233  2.0388 -0.7037 -0.0439
10524TIP3    H253064   4.316   4.220   0.263  1.1436 -0.2827 -1.6077
10525TIP3   OH253065   0.778   5.522  16.511 -0.0130  0.0851  0.3634
10525TIP3    H153066   0.772   5.560  16.599  0.2058  0.0920  0.3761
10525TIP3    H253067   0.837   5.581  16.464 -1.5756  1.1388 -0.3477
10526TIP3   OH253068   1.365   4.387   4.155 -0.5954  0.3360 -0.3573
10526TIP3    H153069   1.352   4.327   4.081 -1.0332  0.4521 -0.3795
10526TIP3    H253070   1.373   4.473   4.115  1.5645  0.1470 -0.4453
10527TIP3   OH253071   5.151   1.875   4.850 -0.1636  0.1238  0.2854
10527TIP3    H153072   5.103   1.919   4.920  0.1556  3.4917 -1.4109
10527TIP3    H253073   5.237   1.917   4.849 -0.2300  0.3737 -2.2107
10528TIP3   OH253074   0.373   3.420  15.230 -0.3828 -0.3683  0.1950
10528TIP3    H153075   0.334   3.463  15.153 -0.6068  0.7672  0.9241
10528TIP3    H253076   0.322   3.452  15.304 -0.0559 -1.3193  0.8496
10529TIP3   OH253077   1.162   4.138   6.857 -0.0397  0.5558  0.0846
10529TIP3    H153078   1.097   4.206   6.874 -1.0672 -0.1380 -0.8672
10529TIP3    H253079   1.113   4.056   6.864  0.6078  0.0310 -1.1640
10530TIP3   OH253080   1.828   0.327   0.761 -0.2958 -0.4082  0.1055
10530TIP3    H153081   1.834   0.248   0.816 -0.7505  0.2122  1.0715
10530TIP3    H253082   1.852   0.297   0.674  1.2899 -1.2557  0.7951
10531TIP3   OH253083   4.448   3.893   0.806  0.2280 -0.0774  0.1316
10531TIP3    H153084   4.391   3.970   0.807  0.9763  0.5291 -1.0455
10531TIP3    H253085   4.488   3.891   0.893  0.8721  1.4077 -0.0936
10532TIP3   OH253086   5.193   3.894   5.006 -0.2161  0.4602 -0.8054
10532TIP3    H153087   5.136   3.896   5.083  0.5925  0.1026 -0.1899
10532TIP3    H253088   5.282   3.891   5.041  0.1482 -0.3672 -1.7481
10533TIP3   OH253089   0.250   5.311  15.160  0.8429  0.4264 -0.3393
10533TIP3    H153090   0.292   5.230  15.130  0.6445  0.7743 -1.5760
10533TIP3    H253091   0.294   5.381  15.112 -1.2585  0.7922 -1.8829
10534TIP3   OH253092   2.574   3.738  13.236  0.5092  0.1953  0.1588
10534TIP3    H153093   2.531   3.790  13.168  1.1877 -0.2651 -0.6397
10534TIP3    H253094   2.514   3.664  13.250  0.8803 -0.2883 -0.7386
10535TIP3   OH253095   2.199   3.321   0.627  0.1504 -0.6269 -0.1316
10535TIP3    H153096   2.272   3.341   0.686  0.0685 -1.3854  0.2423
10535TIP3    H253097   2.168   3.235   0.655 -1.0388 -0.2282 -0.1266
10536TIP3   OH253098   0.103   4.782   6.561 -0.1860 -0.5914 -0.3075
10536TIP3    H153099   0.028   4.770   6.503 -1.0681 -0.2240  0.7460
10536TIP3    H253100   0.161   4.708   6.540 -1.0840 -1.1809 -0.7458
10537TIP3   OH253101   4.655   5.032   5.542  0.3708 -0.0436 -0.1567
10537TIP3    H153102   4.667   5.014   5.636  1.0695 -1.1606 -0.4365
10537TIP3    H253103   4.705   5.112   5.527  2.4026 -1.2000 -0.0275
10538TIP3   OH253104   4.932   4.384   0.430 -0.5568  0.1536  0.3626
10538TIP3    H153105   4.924   4.339   0.514 -1.0082 -0.1595  0.1573
10538TIP3    H253106   4.880   4.331   0.369 -0.1671  0.3268 -0.1346
10539TIP3   OH253107   6.594   5.757  11.039 -0.3382  0.0032 -0.1536
10539TIP3    H153108   6.550   5.817  11.099 -0.9444 -2.9383  2.6401
10539TIP3    H253109   6.532   5.744  10.968 -1.0723  1.0633  0.2750
10540TIP3   OH253110   4.272   1.816  12.592 -1.0234  0.2385 -0.5891
10540TIP3    H153111   4.358   1.791  12.558 -0.2205  1.0423  0.7564
10540TIP3    H253112   4.234   1.734  12.623 -0.0158  0.1005  0.3451
10541TIP3   OH253113   0.161   5.212   2.906 -0.1944 -0.3948  0.2933
10541TIP3    H153114   0.213   5.292   2.914 -2.9325  1.4161  1.4591
10541TIP3    H253115   0.164   5.191   2.813  0.8854  0.8200  0.0150
10542TIP3   OH253116   5.958   4.652   0.581  0.8385  0.4167 -0.0017
10542TIP3    H153117   6.007   4.733   0.567  0.4692  0.5313 -0.6790
10542TIP3    H253118   5.872   4.670   0.543 -0.1573  0.6306  2.1524
10543TIP3   OH253119   1.343   2.855  12.163 -0.1105  0.0212 -0.1547
10543TIP3    H153120   1.290   2.785  12.200  1.7100 -0.2282  2.1751
10543TIP3    H253121   1.433   2.821  12.164  0.6059  1.7954 -0.4987
10544TIP3   OH253122   0.106   3.439   2.363 -0.1677  0.2096  0.3244
10544TIP3    H153123   0.193   3.461   2.397  0.7019  0.2109 -1.7228
10544TIP3    H253124   0.106   3.344   2.356 -2.0876 -0.3236  4.4859
10545TIP3   OH253125   6.786   5.042   6.114 -0.0596 -0.1065  0.1388
10545TIP3    H153126   6.777   5.100   6.189  1.8660 -0.0305  0.3758
10545TIP3    H253127   6.697   5.013   6.094 -0.8571  1.5416  1.1015
10546TIP3   OH253128   5.015   1.299   5.511 -0.0432 -0.1033 -0.0387
10546TIP3    H153129   5.015   1.386   5.552  0.0893 -0.6873  1.2211
10546TIP3    H253130   4.927   1.264   5.528  0.9265 -1.5371  2.3787
10547TIP3   OH253131   0.241   2.496  16.418 -0.5465 -0.4748 -0.2093
10547TIP3    H153132   0.174   2.428  16.406  0.4060 -1.6250  0.6722
10547TIP3    H253133   0.274   2.481  16.507  0.0394  0.8363 -0.1900
10548TIP3   OH253134   3.077   4.186  15.950 -0.5715 -0.2225  0.1642
10548TIP3    H153135   3.101   4.113  16.007  1.4859  0.0430 -0.2738
10548TIP3    H253136   3.149   4.193  15.888 -0.5052  2.3850  0.4070
10549TIP3   OH253137   0.192   5.622  11.526 -0.5202  0.0074  0.2731
10549TIP3    H153138   0.275   5.620  11.479 -0.7983  0.7832 -0.2890
10549TIP3    H253139   0.145   5.696  11.487 -0.7430  0.7218  1.8288
10550TIP3   OH253140   6.519   0.618  14.885 -0.0139 -0.5251 -0.2457
10550TIP3    H153141   6.533   0.639  14.977 -0.5351 -0.7556 -0.1064
10550TIP3    H253142   6.425   0.601  14.879 -0.0065 -0.3598 -0.8525
10551TIP3   OH253143   3.399   1.726  13.175  0.1395 -0.0888 -0.6337
10551TIP3    H153144   3.435   1.776  13.102  2.4822 -1.1032 -0.2491
10551TIP3    H253145   3.364   1.792  13.235  0.1981  0.8705 -1.6216
10552TIP3   OH253146   5.437   3.723   3.469  0.3044 -0.4956 -0.0559
10552TIP3    H153147   5.461   3.781   3.542  0.3891  0.2609 -0.6658
10552TIP3    H253148   5.491   3.754   3.396  2.9242 -3.4961  0.4129
10553TIP3   OH253149   5.772   4.248  12.984 -0.2626 -0.6174 -0.0215
10553TIP3    H153150   5.845   4.186  12.982 -0.1719 -0.5116 -0.0439
10553TIP3    H253151   5.804   4.324  12.934 -0.3475 -0.5264  0.0610
10554TIP3   OH253152   3.402   2.243  11.254  0.2667 -0.0612 -0.2376
10554TIP3    H153153   3.427   2.321  11.303 -0.0925 -0.7541  1.1061
10554TIP3    H253154   3.375   2.180  11.321 -2.2220 -0.3644 -1.3960
10555TIP3   OH253155   4.424   3.621  15.752  0.3363 -0.0312  0.1874
10555TIP3    H153156   4.502   3.668  15.722 -0.7583  0.9277 -1.2732
10555TIP3    H253157   4.459   3.550  15.807  2.5120 -1.6563 -2.9425
10556TIP3   OH253158   4.484   5.924  14.769  0.5425 -0.3965 -0.3195
10556TIP3    H153159   4.497   6.013  14.801  0.3955 -0.2257 -0.7293
10556TIP3    H253160   4.551   5.872  14.814  4.1277  0.7469 -3.8269
10557TIP3   OH253161   0.540   0.045  14.763 -0.1708  0.4569 -0.1890
10557TIP3    H153162   0.470  -0.017  14.743 -0.5724  0.5748  0.7805
10557TIP3    H253163   0.494   0.121  14.800  0.5725 -0.4774  2.9894
10558TIP3   OH253164   3.199   1.125  12.203 -0.3597 -0.4343 -0.7075
10558TIP3    H153165   3.107   1.112  12.179 -1.4117  0.6464  2.2200
10558TIP3    H253166   3.215   1.217  12.185 -0.4118 -0.2157  0.2965
10559TIP3   OH253167   2.960   1.001   2.647  0.5741 -0.1239  0.5126
10559TIP3    H153168   2.976   0.954   2.565  0.5870  0.1601  0.3548
10559TIP3    H253169   2.916   1.081   2.621  0.7393  0.0509  0.7684
10560TIP3   OH253170   6.151   6.746  12.773  0.0047  0.2048 -0.1105
10560TIP3    H153171   6.076   6.801  12.753 -1.0231 -1.0209  0.2474
10560TIP3    H253172   6.221   6.777  12.716 -0.6366  1.6545 -0.1325
10561TIP3   OH253173   1.532   2.082  16.902  0.0355  0.2785 -0.5779
10561TIP3    H153174   1.476   2.157  16.920 -0.7341 -0.0566 -1.4976
10561TIP3    H253175   1.612   2.119  16.865  0.5764  0.7818  0.9928
10562TIP3   OH253176   4.086   0.598  13.967  0.1166  0.0420  0.5291
10562TIP3    H153177   4.036   0.603  13.885 -0.4697  1.9050  0.9612
10562TIP3    H253178   4.177   0.594  13.939  0.0984  2.9351 -0.2804
10563TIP3   OH253179   2.825   6.149  15.731  0.2466  0.4903  0.3065
10563TIP3    H153180   2.789   6.141  15.819 -0.6957  0.6619 -0.0549
10563TIP3    H253181   2.919   6.163  15.744 -0.2586  3.6844  1.4207
10564TIP3   OH253182   5.026   0.860  15.550 -0.2430 -0.4275 -0.1528
10564TIP3    H153183   4.952   0.879  15.491 -1.0362 -0.1018  0.9200
10564TIP3    H253184   5.088   0.813  15.495 -0.2182  1.2924 -1.7047
10565TIP3   OH253185   1.692   1.901   5.429  0.2837 -0.3802  0.3727
10565TIP3    H153186   1.707   1.873   5.520 -1.1922 -0.3397  0.6458
10565TIP3    H253187   1.622   1.844   5.398 -0.1455  0.5015 -0.3054
10566TIP3   OH253188   4.057   2.238   2.563  0.4239 -0.4812  0.3415
10566TIP3    H153189   4.112   2.312   2.536 -0.6695 -0.1889 -1.2035
10566TIP3    H253190   3.997   2.225   2.489  0.0314 -2.3645  0.9558
10567TIP3   OH253191   4.508   3.971  16.358 -0.1423 -0.5409 -0.4297
10567TIP3    H153192   4.422   3.941  16.329 -0.7583  1.6840 -1.1152
10567TIP3    H253193   4.547   4.013  16.281  0.2140  1.2552  0.6595
10568TIP3   OH253194   4.819   4.456   5.548  0.0291  0.1718  0.1377
10568TIP3    H153195   4.853   4.521   5.609  0.6755  0.6284 -0.6888
10568TIP3    H253196   4.800   4.380   5.603  1.6350  0.1866  0.7770
10569TIP3   OH253197   5.468   4.659  14.743  0.0731  0.0414  0.2279
10569TIP3    H153198   5.494   4.743  14.781 -1.5672  0.7448 -0.1199
10569TIP3    H253199   5.520   4.651  14.664  0.4218  0.6173  0.3981
10570TIP3   OH253200   3.464   6.180  15.693 -0.2860  0.1750 -0.5098
10570TIP3    H153201   3.529   6.243  15.663  1.0061 -0.5188  0.6946
10570TIP3    H253202   3.405   6.230  15.748  0.1436  0.5313 -0.3707
10571TIP3   OH253203   3.046   5.919   3.801  0.3411  0.2418 -0.3919
10571TIP3    H153204   3.047   5.984   3.871  0.4977 -0.4160  0.2232
10571TIP3    H253205   3.074   5.837   3.843 -0.2027 -0.3065 -1.0714
10572TIP3   OH253206   2.883   2.574   4.963  0.2590 -0.6878 -0.0758
10572TIP3    H153207   2.831   2.526   4.899  0.5149 -1.5174  0.3119
10572TIP3    H253208   2.973   2.569   4.930 -0.1409  3.6393 -2.5644
10573TIP3   OH253209   1.580   3.467  16.166 -0.4815  0.5519 -0.7000
10573TIP3    H153210   1.673   3.459  16.147 -0.0575  0.6687  1.2065
10573TIP3    H253211   1.546   3.379  16.154  0.0688  0.3000 -0.4392
10574TIP3   OH253212   5.186   5.933  15.365 -0.1104  0.7306  0.5039
10574TIP3    H153213   5.134   5.852  15.359 -0.3485  1.0181 -2.7836
10574TIP3    H253214   5.268   5.905  15.407 -0.9393 -0.7641  1.2414
10575TIP3   OH253215   0.056   1.932  13.852 -0.5775 -0.3890  0.8251
10575TIP3    H153216   0.013   1.963  13.772 -0.2877  1.3387  1.2824
10575TIP3    H253217   0.050   2.007  13.912 -1.0333 -1.7214  2.5293
10576TIP3   OH253218   5.374   1.869  13.127  0.5808  0.3742  0.1351
10576TIP3    H153219   5.296   1.924  13.131  1.3709  1.5854 -0.3978
10576TIP3    H253220   5.447   1.929  13.142  1.4320 -0.7140  0.5630
10577TIP3   OH253221   4.697   0.544   4.629 -0.4282 -0.2796  1.0257
10577TIP3    H153222   4.631   0.596   4.581 -0.2270 -2.2104 -1.5723
10577TIP3    H253223   4.779   0.592   4.616 -0.8611  0.7806  2.0616
10578TIP3   OH253224   2.929   3.018  16.755 -0.1785 -0.0323 -0.3268
10578TIP3    H153225   2.900   3.107  16.773 -1.1306 -0.4270  0.1872
10578TIP3    H253226   2.918   3.007  16.661 -1.4281 -0.0668 -0.1864
10579TIP3   OH253227   3.353   4.031   1.483  0.1352  0.0747 -0.0135
10579TIP3    H153228   3.412   4.066   1.550  0.0069 -1.1725  0.7835
10579TIP3    H253229   3.346   3.937   1.503  0.6188 -0.4813 -2.1660
10580TIP3   OH253230   5.838   6.813   4.353  0.3802 -0.5654  0.2579
10580TIP3    H153231   5.811   6.770   4.271  0.5468 -1.4361  0.6520
10580TIP3    H253232   5.918   6.767   4.379 -0.9480 -1.9100  2.1535
10581TIP3   OH253233   2.896   0.335   2.813  0.0369 -0.6773  0.1513
10581TIP3    H153234   2.824   0.369   2.759 -0.5648  2.6857  2.7634
10581TIP3    H253235   2.853   0.280   2.878  0.2023 -0.8677  0.1027
10582TIP3   OH253236   3.439   5.079   3.785 -0.0647  0.3013 -0.2798
10582TIP3    H153237   3.412   4.987   3.791 -1.5085  0.7721  1.8097
10582TIP3    H253238   3.506   5.088   3.853 -0.4970  0.9297  0.0764
10583TIP3   OH253239   2.430   5.933   5.481 -0.5031  0.4741 -0.1905
10583TIP3    H153240   2.365   5.895   5.540  0.9091  1.2268  1.9607
10583TIP3    H253241   2.496   5.865   5.471 -0.3635  0.6238 -0.2864
10584TIP3   OH253242   3.995   4.959  16.518 -0.1824  0.0683  0.2516
10584TIP3    H153243   3.948   5.031  16.561  0.7154  0.2340  0.9804
10584TIP3    H253244   3.949   4.880  16.546 -0.9542  0.3311 -0.2619
10585TIP3   OH253245   1.362   5.267   5.020  0.2309 -0.1722 -0.1957
10585TIP3    H153246   1.266   5.275   5.026  0.3346  0.3584  1.4039
10585TIP3    H253247   1.377   5.193   4.961 -1.2196 -1.7471  1.2925
10586TIP3   OH253248   6.784   0.152   2.535 -0.2472  0.0979  0.8691
10586TIP3    H153249   6.816   0.186   2.619 -1.6052  1.3584  0.9126
10586TIP3    H253250   6.792   0.057   2.543  1.4344  0.2694  1.6716
10587TIP3   OH253251   3.095   1.707   3.162  0.2338 -0.3570 -0.1936
10587TIP3    H153252   3.002   1.688   3.176  0.2154 -1.0821 -1.1836
10587TIP3    H253253   3.130   1.720   3.250 -0.5276 -1.4339  0.2905
10588TIP3   OH253254   4.241   4.977   2.768 -0.3530  0.0410 -0.4064
10588TIP3    H153255   4.202   4.890   2.771  1.6298 -0.9547 -1.0858
10588TIP3    H253256   4.320   4.970   2.823  0.8036  0.8197 -1.8758
10589TIP3   OH253257   6.416   6.529  16.340  1.1867 -0.2333  0.4534
10589TIP3    H153258   6.469   6.552  16.263  2.1231 -1.3355  0.7353
10589TIP3    H253259   6.458   6.575  16.412  0.9617 -0.0639  0.4765
10590TIP3   OH253260   3.889   0.164   0.026  0.0938  0.5600 -0.0639
10590TIP3    H153261   3.807   0.132  -0.012 -0.2223  0.7855  0.4166
10590TIP3    H253262   3.957   0.128  -0.031 -0.3814  1.1644 -1.0558
10591TIP3   OH253263   3.444   5.382  16.272 -0.2968  0.0418  0.4477
10591TIP3    H153264   3.370   5.323  16.281 -1.8639  1.6207 -1.2226
10591TIP3    H253265   3.450   5.425  16.358 -1.0030 -0.4406  0.7517
10592TIP3   OH253266   3.891   4.951   1.406  0.1496 -0.5172 -0.0417
10592TIP3    H153267   3.876   4.911   1.492  0.4673  0.7314  0.6153
10592TIP3    H253268   3.869   4.882   1.344  0.2125 -1.5500  1.0428
10593TIP3   OH253269   4.468   1.812   4.594  0.1502  0.0420 -0.1485
10593TIP3    H153270   4.465   1.793   4.500 -0.7133  0.3015 -0.1903
10593TIP3    H253271   4.376   1.808   4.621  0.2579  1.1540  0.4317
10594TIP3   OH253272   5.951   3.986   5.568  0.0800 -0.4196 -0.0385
10594TIP3    H153273   5.920   3.961   5.655  0.7542  0.7005  0.5403
10594TIP3    H253274   5.995   4.070   5.580  0.5523 -0.4348 -1.3907
10595TIP3   OH253275   4.672   6.757   4.924  0.3960  0.7088 -0.2749
10595TIP3    H153276   4.667   6.674   4.970 -0.4802 -0.4378 -2.2925
10595TIP3    H253277   4.718   6.816   4.984  3.6198 -1.9689  0.1714
10596TIP3   OH253278   0.176   4.472  15.725 -0.1401  0.0343  0.2190
10596TIP3    H153279   0.250   4.503  15.673 -0.4131  0.4689  0.0836
10596TIP3    H253280   0.203   4.488  15.816  0.3063 -0.6586  0.2159
10597TIP3   OH253281   6.628   5.376  16.710 -0.2216  0.0150 -0.0010
10597TIP3    H153282   6.675   5.427  16.643 -1.4768  2.1958  0.7035
10597TIP3    H253283   6.572   5.318  16.659 -0.9899  1.4778 -0.8996
10598TIP3   OH253284   1.592   1.733   5.144 -0.2476  0.0976 -0.0413
10598TIP3    H153285   1.646   1.656   5.161  0.7784  1.0252  1.0807
10598TIP3    H253286   1.543   1.711   5.065  0.9086 -1.2294 -0.4203
10599TIP3   OH253287   4.465   4.497   0.474 -0.3816  0.1042 -0.3474
10599TIP3    H153288   4.416   4.423   0.438  0.2899 -0.3415 -0.3654
10599TIP3    H253289   4.438   4.502   0.566  0.4913 -0.9557 -0.0179
10600TIP3   OH253290   5.806   1.250   4.737 -0.2657  0.1798  0.6539
10600TIP3    H153291   5.767   1.284   4.657 -1.2255 -2.0436  0.1259
10600TIP3    H253292   5.833   1.329   4.786 -2.0316  1.6595 -0.6363
10601TIP3   OH253293   6.137   2.314  11.385  0.1879 -0.0798  0.1246
10601TIP3    H153294   6.174   2.372  11.318  1.5255 -2.8576 -1.7493
10601TIP3    H253295   6.090   2.246  11.335 -2.5016  0.0325  2.2378
10602TIP3   OH253296   4.211   3.195   4.391 -0.0449 -0.2209  0.3918
10602TIP3    H153297   4.242   3.188   4.301  0.0643  1.2549  0.3009
10602TIP3    H253298   4.175   3.108   4.410  1.8255 -1.2037 -0.3426
10603TIP3   OH253299   3.900   4.509  16.417 -0.3414 -0.1994 -0.7324
10603TIP3    H153300   3.994   4.520  16.431 -0.4651  0.2535 -0.2131
10603TIP3    H253301   3.887   4.414  16.417  0.1151 -0.2650 -0.8072
10604TIP3   OH253302   0.600   1.880  13.213  0.2877 -0.1452 -0.6027
10604TIP3    H153303   0.608   1.839  13.127 -0.4275 -1.1265 -0.2189
10604TIP3    H253304   0.577   1.808  13.271 -1.2845  0.8468  0.0443
10605TIP3   OH253305   4.515   0.675  13.249 -0.0286  0.4808 -0.5330
10605TIP3    H153306   4.516   0.770  13.253 -0.3095  0.6016 -2.3589
10605TIP3    H253307   4.430   0.653  13.211  0.4022 -0.4423 -0.9905
10606TIP3   OH253308   3.832   0.856  13.333  0.5977 -0.1677  0.7099
10606TIP3    H153309   3.804   0.880  13.422 -0.1134  1.0098  0.1839
10606TIP3    H253310   3.798   0.925  13.277  0.0655 -1.4727 -0.6430
10607TIP3   OH253311   2.281   5.953   3.105  0.2976 -0.4650  0.1223
10607TIP3    H153312   2.188   5.931   3.114  0.6141 -1.2184  2.2814
10607TIP3    H253313   2.301   6.004   3.183  1.8469 -0.9431  0.0778
10608TIP3   OH253314   2.905   0.103  13.201  0.4688  0.1154 -0.1810
10608TIP3    H153315   2.844   0.057  13.144  1.5038 -2.2287  0.4920
10608TIP3    H253316   2.860   0.185  13.222 -1.6573 -0.7178 -1.1438
10609TIP3   OH253317   3.439   2.254   1.111 -0.1116  0.1752  0.5713
10609TIP3    H153318   3.362   2.266   1.056  0.5628  0.5648 -0.3118
10609TIP3    H253319   3.494   2.330   1.092  1.3305 -1.0192 -0.2062
10610TIP3   OH253320   5.406   2.080  16.858  0.0263  0.4033 -0.2638
10610TIP3    H153321   5.390   2.117  16.771 -0.5796 -2.2934 -1.3951
10610TIP3    H253322   5.322   2.087  16.903 -0.1528  0.2007 -0.5615
10611TIP3   OH253323   1.688   2.899  13.405 -0.4386 -0.0359 -0.4143
10611TIP3    H153324   1.653   2.818  13.442  0.2332  0.6175  1.8379
10611TIP3    H253325   1.756   2.870  13.344  0.3854 -1.2178  0.9742
10612TIP3   OH253326   2.973   4.509  16.536  0.1500 -0.3214 -0.3387
10612TIP3    H153327   3.004   4.418  16.535 -0.4039 -0.5568  1.3904
10612TIP3    H253328   3.032   4.554  16.596 -0.5719  0.0770  0.0812
10613TIP3   OH253329   3.204   1.597  12.908  0.6156  0.3214  0.1128
10613TIP3    H153330   3.223   1.654  12.982 -0.5981 -2.9273  3.2357
10613TIP3    H253331   3.264   1.523  12.918 -0.7841 -1.0517 -1.0295
10614TIP3   OH253332   4.001   2.111  14.831  0.2589 -0.4251 -0.3352
10614TIP3    H153333   3.955   2.143  14.754 -1.4207 -1.3562  0.2241
10614TIP3    H253334   3.981   2.174  14.900 -3.7246 -2.7935  0.9820
10615TIP3   OH253335   5.790   3.043  14.017 -0.4016  0.3621  0.1509
10615TIP3    H153336   5.760   2.981  14.083 -1.2371  0.5619 -0.0228
10615TIP3    H253337   5.841   2.991  13.956 -0.1168  0.0667  0.6384
10616TIP3   OH253338   1.074   3.382   2.147  0.8263 -0.3691  0.2676
10616TIP3    H153339   1.068   3.448   2.078 -1.9650 -2.2008 -1.4294
10616TIP3    H253340   1.012   3.410   2.214  1.6854  0.0990  0.8935
10617TIP3   OH253341   5.355   0.665  12.578 -0.3513 -0.2594  0.0072
10617TIP3    H153342   5.427   0.602  12.577 -1.5342 -1.6400 -0.6813
10617TIP3    H253343   5.293   0.633  12.512 -1.8752  0.5603  0.9778
10618TIP3   OH253344   6.385   4.037  15.724 -0.8152 -0.0376 -0.0424
10618TIP3    H153345   6.371   3.971  15.792 -1.2785  0.4621  0.3528
10618TIP3    H253346   6.338   4.004  15.647  1.0456 -1.4147 -0.6709
10619TIP3   OH253347   1.504   5.996  14.810  0.5337  0.2779 -0.1725
10619TIP3    H153348   1.565   5.929  14.842  2.8605  1.8854 -0.9405
10619TIP3    H253349   1.460   6.028  14.889  1.5107 -0.1954  0.5908
10620TIP3   OH253350   0.074   0.515   4.098 -0.2490  0.0063  0.1448
10620TIP3    H153351   0.090   0.552   4.185 -0.2245 -1.4470  0.8060
10620TIP3    H253352  -0.017   0.538   4.079 -0.2683  0.3052  0.5751
10621TIP3   OH253353   3.659   2.802  11.478 -0.3385  0.0397  0.3208
10621TIP3    H153354   3.699   2.885  11.450  1.4640 -0.5686  0.9368
10621TIP3    H253355   3.631   2.761  11.396  0.3641  0.4933 -0.1646
10622TIP3   OH253356   5.488   4.720  11.709 -0.1104 -0.2456  0.3237
10622TIP3    H153357   5.449   4.774  11.640 -0.2624 -0.6246  0.1076
10622TIP3    H253358   5.561   4.771  11.742 -0.5353  0.2955  0.4449
10623TIP3   OH253359   6.622   5.667  12.375 -0.4566 -0.1229  0.3825
10623TIP3    H153360   6.642   5.727  12.303 -1.3184  0.2057  0.4124
10623TIP3    H253361   6.587   5.589  12.332 -0.1734 -0.2614  0.4001
10624TIP3   OH253362   1.725   1.879  16.028 -0.3569 -0.4252  0.2901
10624TIP3    H153363   1.746   1.970  16.009  3.4802 -1.0761  0.7014
10624TIP3    H253364   1.717   1.838  15.941 -0.2012 -0.0582  0.0995
10625TIP3   OH253365   1.175   5.128   1.442 -0.1477  0.0942 -0.2850
10625TIP3    H153366   1.095   5.077   1.460 -0.1595  1.2080  3.7104
10625TIP3    H253367   1.239   5.062   1.417 -0.8421 -1.7058  2.2261
10626TIP3   OH253368   5.695   0.257   3.613 -0.2155  0.0401  0.1936
10626TIP3    H153369   5.729   0.168   3.604 -2.0234 -0.7849  1.0919
10626TIP3    H253370   5.682   0.287   3.523  0.0310 -0.7556 -0.1190
10627TIP3   OH253371   1.995   3.186  11.429 -0.4593  0.1383 -0.2863
10627TIP3    H153372   2.035   3.272  11.411  2.0033 -1.1834 -1.7040
10627TIP3    H253373   1.993   3.143  11.343 -1.8190 -1.1783  0.3704
10628TIP3   OH253374   5.849   6.776  11.340 -0.0004 -0.1476 -0.3958
10628TIP3    H153375   5.793   6.711  11.382  0.2258  0.5781  1.0988
10628TIP3    H253376   5.829   6.769  11.246 -0.2854 -2.0462 -0.2203
10629TIP3   OH253377   2.264   5.720   3.286  0.1382 -0.4273  0.2108
10629TIP3    H153378   2.260   5.798   3.231  0.1031 -0.8858 -0.4453
10629TIP3    H253379   2.211   5.655   3.240 -0.2629 -0.6829  1.0085
10630TIP3   OH253380   1.096   0.870  14.430  0.0164 -0.2183 -0.1520
10630TIP3    H153381   1.167   0.840  14.373 -0.4827  0.5603 -1.2066
10630TIP3    H253382   1.058   0.790  14.466  3.2510 -0.6767  2.8449
10631TIP3   OH253383   3.266   5.167   5.520 -0.1221  0.0460  0.4994
10631TIP3    H153384   3.247   5.261   5.520 -0.6914 -0.0603 -0.1077
10631TIP3    H253385   3.302   5.150   5.433  0.7002 -0.1664  0.8721
10632TIP3   OH253386   3.967   5.485   4.155  0.0117 -0.1281  0.0048
10632TIP3    H153387   3.932   5.418   4.212  0.3430 -1.1394 -0.9383
10632TIP3    H253388   4.056   5.502   4.188 -0.1982  0.0972  0.4499
10633TIP3   OH253389   1.433   0.516  10.534 -0.2438  0.1304 -0.1019
10633TIP3    H153390   1.377   0.572  10.482  0.4572 -0.1354 -1.1733
10633TIP3    H253391   1.450   0.566  10.614 -0.2039  1.1355 -0.7279
10634TIP3   OH253392   4.850   0.740   4.337  0.0885 -0.1641  0.5745
10634TIP3    H153393   4.932   0.692   4.324 -0.3375 -1.5141  2.4537
10634TIP3    H253394   4.869   0.801   4.408 -0.6148 -0.7201  1.2498
10635TIP3   OH253395   5.475   1.568   2.389 -0.4356 -0.3854  0.6925
10635TIP3    H153396   5.392   1.616   2.388 -0.2933 -0.1003  1.5794
10635TIP3    H253397   5.542   1.635   2.376 -0.2618 -0.3833  1.5138
10636TIP3   OH253398   4.684   0.494  12.673 -0.4187 -0.0938  0.4677
10636TIP3    H153399   4.738   0.570  12.695  2.4048 -2.0309  0.6739
10636TIP3    H253400   4.689   0.488  12.578  0.2365 -0.5683  0.5213
10637TIP3   OH253401   1.893   3.466  16.687 -0.4708 -0.0063  0.0697
10637TIP3    H153402   1.854   3.552  16.702 -0.1153  0.0896  0.4626
10637TIP3    H253403   1.957   3.456  16.758 -1.1569 -0.9843  0.5677
10638TIP3   OH253404   3.603   2.090  12.653 -0.1317 -0.6117  0.3572
10638TIP3    H153405   3.645   2.088  12.567 -0.9978  0.1288 -0.0919
10638TIP3    H253406   3.516   2.127  12.637 -0.1037  0.0527  1.6415
10639TIP3   OH253407   2.894   3.907   0.995 -0.1043 -0.1481 -0.0878
10639TIP3    H153408   2.803   3.933   0.979  0.7752  3.2157 -0.4486
10639TIP3    H253409   2.930   3.890   0.908  0.0655  0.3531 -0.1191
10640TIP3   OH253410   3.943   2.955   3.103 -0.0394 -0.4715  0.2339
10640TIP3    H153411   3.967   2.990   3.189  0.6440 -3.9087  1.5721
10640TIP3    H253412   3.876   2.890   3.121  1.6672 -2.8694 -1.4883
10641TIP3   OH253413   3.066   2.622  13.234 -0.4045 -0.0768  0.0018
10641TIP3    H153414   3.142   2.614  13.176 -0.7354 -2.3056 -0.2053
10641TIP3    H253415   3.006   2.680  13.187  0.7464  0.9490 -0.2620
10642TIP3   OH253416   0.902   6.537  15.282  0.2242  0.2088  0.1533
10642TIP3    H153417   0.984   6.494  15.257  1.6641  2.0400  1.3461
10642TIP3    H253418   0.858   6.474  15.339  0.4111 -1.1150 -1.1164
10643TIP3   OH253419   0.345   0.716  10.631 -0.0471 -0.2663  0.3423
10643TIP3    H153420   0.358   0.797  10.581  0.0261 -1.1906 -1.1947
10643TIP3    H253421   0.434   0.689  10.654 -0.1390  0.8253  2.1416
10644TIP3   OH253422   4.594   5.028  12.089  0.2708 -0.3325  0.3683
10644TIP3    H153423   4.669   5.050  12.144  2.5484 -0.9124 -2.2753
10644TIP3    H253424   4.631   5.020  12.001 -2.2610 -4.0637 -0.5662
10645TIP3   OH253425   5.696   2.905  16.808  0.0090 -0.4037  0.6990
10645TIP3    H153426   5.772   2.959  16.789  1.1175 -2.1286  0.0168
10645TIP3    H253427   5.732   2.822  16.840 -1.5874 -1.1377  0.6982
10646TIP3   OH253428   1.091   0.384   5.781 -0.0001  0.3175  0.4622
10646TIP3    H153429   1.153   0.318   5.750 -1.7521 -1.5958  0.8595
10646TIP3    H253430   1.113   0.463   5.731  1.3911 -0.8705 -0.8902
10647TIP3   OH253431   5.112   5.773  16.122  0.4107  0.1096 -0.0543
10647TIP3    H153432   5.166   5.813  16.190 -0.5366  1.0557  0.1765
10647TIP3    H253433   5.080   5.847  16.070 -0.3975 -0.4477 -0.3729
10648TIP3   OH253434   0.527   1.189   3.908  0.2993 -0.1582  0.1019
10648TIP3    H153435   0.485   1.209   3.824 -0.1577  0.7159  0.5280
10648TIP3    H253436   0.621   1.189   3.888  0.2220  0.6041 -0.2973
10649TIP3   OH253437   3.886   2.322   2.001  0.2627  0.2729  0.1702
10649TIP3    H153438   3.898   2.417   1.996 -0.7648  0.3904 -0.1400
10649TIP3    H253439   3.802   2.310   2.044 -0.7260 -0.4338 -1.8037
10650TIP3   OH253440   4.414   3.565   1.611 -0.2401 -0.1544 -0.3736
10650TIP3    H153441   4.489   3.624   1.600 -0.1916  0.0580  0.8688
10650TIP3    H253442   4.454   3.480   1.632 -0.3370 -0.2730 -0.6636
10651TIP3   OH253443   2.522   4.852   3.167  0.1361 -0.5423 -0.1700
10651TIP3    H153444   2.591   4.900   3.212 -0.8826  0.5360  0.3199
10651TIP3    H253445   2.567   4.799   3.102  1.5110 -0.8865  1.0291
10652TIP3   OH253446   5.319   2.501   2.770  0.6481  0.1921  0.2724
10652TIP3    H153447   5.241   2.556   2.783  1.7697  1.4546  2.2050
10652TIP3    H253448   5.338   2.466   2.857  1.8335 -0.6917 -0.3178
10653TIP3   OH253449   3.469   2.075  10.785 -0.2065 -0.3284  0.3039
10653TIP3    H153450   3.390   2.127  10.769  0.8629  1.0450 -0.8201
10653TIP3    H253451   3.437   1.986  10.796 -1.8771  0.0895 -0.6949
10654TIP3   OH253452   1.550   5.917   5.637 -0.2140 -0.2982  0.1548
10654TIP3    H153453   1.522   6.001   5.673  0.0473  0.8420 -2.1852
10654TIP3    H253454   1.469   5.868   5.626 -0.2645 -0.9533  2.7495
10655TIP3   OH253455   1.749   4.788   0.679  0.5623 -0.2667  0.3410
10655TIP3    H153456   1.828   4.804   0.629  1.5523  0.9332  2.1838
10655TIP3    H253457   1.754   4.848   0.753 -2.6942  0.7683 -0.0843
10656TIP3   OH253458   4.043   4.595  16.825 -0.0748  0.9698  0.7876
10656TIP3    H153459   4.001   4.648  16.893 -0.0363  1.6119  0.3211
10656TIP3    H253460   4.136   4.602  16.843  0.0135  2.0957  0.0038
10657TIP3   OH253461   3.049   1.018   5.077  0.4672  0.1195  0.1645
10657TIP3    H153462   3.102   0.986   5.150  1.3043  2.2292  0.5411
10657TIP3    H253463   3.070   1.111   5.071 -2.9020  0.9920  0.0475
10658TIP3   OH253464   3.596   5.294   3.328 -0.0039  0.0184  0.0400
10658TIP3    H153465   3.536   5.366   3.309 -0.6803 -0.4086  0.4645
10658TIP3    H253466   3.564   5.221   3.274  0.6538  0.0264 -0.3652
10659TIP3   OH253467   4.103   3.907   5.953  0.2767 -0.4889  0.6736
10659TIP3    H153468   4.105   3.812   5.941  0.3959 -0.4571  0.4244
10659TIP3    H253469   4.148   3.941   5.876 -0.7844 -0.1791  0.1767
10660TIP3   OH253470   6.410   0.139  15.148 -0.5054 -0.2584  0.2052
10660TIP3    H153471   6.470   0.178  15.085 -0.8395 -1.8948 -1.1733
10660TIP3    H253472   6.412   0.046  15.130 -3.7346 -0.3804 -0.2072
10661TIP3   OH253473   4.497   6.439  16.328 -0.4182 -0.1306 -0.0015
10661TIP3    H153474   4.435   6.496  16.373 -2.1676 -2.1454  0.2950
10661TIP3    H253475   4.443   6.378  16.279  1.3576 -1.4412 -0.4491
10662TIP3   OH253476   4.966   5.248   4.230 -0.0284  0.5468  0.2485
10662TIP3    H153477   5.010   5.298   4.299  2.7584 -0.6081 -0.5600
10662TIP3    H253478   4.909   5.188   4.277  1.6389 -0.0590  1.6237
10663TIP3   OH253479   4.836   2.407  17.139 -0.3361 -0.0950  0.9088
10663TIP3    H153480   4.818   2.388  17.230  0.3815  1.5048  1.4245
10663TIP3    H253481   4.765   2.465  17.111  1.4639  2.7408  1.7143
10664TIP3   OH253482   4.925   5.266   3.613  0.6018 -0.7063  0.1378
10664TIP3    H153483   4.888   5.309   3.535  1.1836 -0.9311 -0.2674
10664TIP3    H253484   4.911   5.330   3.683 -0.7011 -0.8551  0.0372
10665TIP3   OH253485   1.005   5.090   2.513  0.4273  0.5904 -0.3449
10665TIP3    H153486   0.916   5.123   2.527  0.8954  1.2970  1.0576
10665TIP3    H253487   1.006   5.004   2.555  1.0157  1.5215  1.6481
10666TIP3   OH253488   0.485   4.335  12.866 -0.4514  0.2668  0.1893
10666TIP3    H153489   0.543   4.345  12.791 -0.1639  0.8678  0.4853
10666TIP3    H253490   0.407   4.385  12.842  0.1031  1.4546  0.7522
10667TIP3   OH253491   4.844   4.397  14.323  0.4829  0.1708 -0.3087
10667TIP3    H153492   4.781   4.447  14.270  0.9538  2.4078  1.0689
10667TIP3    H253493   4.816   4.306  14.315 -0.9792  0.7275 -2.2814
10668TIP3   OH253494   3.887   1.141  12.319 -0.0405 -0.1632  0.1474
10668TIP3    H153495   3.811   1.094  12.285 -1.1518  0.0344  2.2165
10668TIP3    H253496   3.859   1.232  12.325  0.5914  0.0275  0.3267
10669TIP3   OH253497   5.548   5.822   2.320  0.1821  0.1181  0.4505
10669TIP3    H153498   5.484   5.817   2.391  1.7912  1.1779  2.0763
10669TIP3    H253499   5.601   5.899   2.341  0.8369  0.3774 -1.8451
10670TIP3   OH253500   0.408   5.261   0.141  0.0002  0.0863  0.1362
10670TIP3    H153501   0.479   5.197   0.135 -0.2259 -0.2231  0.7573
10670TIP3    H253502   0.353   5.230   0.213  0.3437  1.4295  1.0043
10671TIP3   OH253503   5.016   2.291   1.239  0.2103  0.1602 -0.3481
10671TIP3    H153504   4.962   2.357   1.283 -0.3391 -1.0454  0.8604
10671TIP3    H253505   5.098   2.290   1.288  1.2674  1.7200 -1.9509
10672TIP3   OH253506   2.550   5.540   2.269  0.0998 -0.2396  0.3748
10672TIP3    H153507   2.532   5.550   2.363 -0.1448 -0.2998  0.3367
10672TIP3    H253508   2.495   5.606   2.227 -0.6205 -0.9243  0.2035
10673TIP3   OH253509   5.358   2.201   3.250  0.0226  0.0487  1.1813
10673TIP3    H153510   5.276   2.224   3.206  0.5653 -0.2242 -0.0010
10673TIP3    H253511   5.362   2.260   3.325 -0.9873  0.4373  0.9429
10674TIP3   OH253512   6.426   2.048  13.590 -0.2095 -0.0632  0.1529
10674TIP3    H153513   6.391   2.048  13.501  0.8375  2.0818 -0.3286
10674TIP3    H253514   6.349   2.054  13.647 -0.8065  0.1038 -0.6627
10675TIP3   OH253515   1.990   1.504  13.557 -0.0783  0.0158 -0.2433
10675TIP3    H153516   2.023   1.436  13.617  2.2702  1.4217  0.1833
10675TIP3    H253517   1.914   1.540  13.602  2.6244  2.2965  3.0580
10676TIP3   OH253518   3.095   4.853  15.798  0.1898 -0.0142 -0.1492
10676TIP3    H153519   3.067   4.763  15.780 -1.6581 -0.2688  3.1390
10676TIP3    H253520   3.145   4.847  15.879 -0.9586  1.9683  0.8083
10677TIP3   OH253521   0.335   1.700  13.413  0.0881  0.2978 -0.3140
10677TIP3    H153522   0.303   1.630  13.468 -0.0933 -0.3426 -1.2139
10677TIP3    H253523   0.355   1.658  13.329  2.4332  0.8342 -0.0785
10678TIP3   OH253524   0.325   1.746  11.353  0.0401  0.0218  0.1519
10678TIP3    H153525   0.252   1.787  11.399  1.6572  0.5570  2.4518
10678TIP3    H253526   0.340   1.801  11.276 -1.2099  0.5789  0.2897
10679TIP3   OH253527   0.862   3.577   0.910 -0.3638  0.3287  0.1708
10679TIP3    H153528   0.782   3.587   0.858 -1.2533 -0.2153  1.3907
10679TIP3    H253529   0.898   3.666   0.913  0.1815  0.2468 -2.0350
10680TIP3   OH253530   1.943   0.633  16.351  0.9415 -0.0702  0.0413
10680TIP3    H153531   2.033   0.612  16.374  1.3092  0.3206 -0.9969
10680TIP3    H253532   1.899   0.548  16.346  1.5116 -0.3408 -0.5008
10681TIP3   OH253533   4.850   6.129  10.640 -0.3216  0.0713  0.5881
10681TIP3    H153534   4.929   6.092  10.679  0.2392 -0.1808 -0.7179
10681TIP3    H253535   4.780   6.070  10.667  0.0363 -0.0689  1.2303
10682TIP3   OH253536   5.032   3.480   4.533 -0.2350  0.1351  0.3729
10682TIP3    H153537   5.070   3.423   4.599  0.0921 -1.4205 -1.0786
10682TIP3    H253538   5.107   3.519   4.488 -0.2960 -1.4641 -1.2448
10683TIP3   OH253539   1.852   2.086   6.816  0.3093 -0.3092  0.2363
10683TIP3    H153540   1.762   2.117   6.814  0.6611  0.7086 -0.7145
10683TIP3    H253541   1.845   1.992   6.799 -0.6317 -0.4138  1.1369
10684TIP3   OH253542   5.288   5.891  16.694 -0.0149 -0.3360  0.2410
10684TIP3    H153543   5.368   5.938  16.672 -0.3087  0.0995  0.0858
10684TIP3    H253544   5.218   5.940  16.651 -0.2767 -1.2704 -0.4476
10685TIP3   OH253545   3.720   2.797   0.177 -0.0698 -0.0083  0.5955
10685TIP3    H153546   3.682   2.738   0.112  2.4979 -0.2813 -0.8284
10685TIP3    H253547   3.646   2.827   0.230 -2.0153 -1.2652 -1.2611
10686TIP3   OH253548   3.455   2.794   2.866 -0.0753  0.0408 -0.4865
10686TIP3    H153549   3.495   2.741   2.935 -1.0113  0.2100  0.2106
10686TIP3    H253550   3.397   2.854   2.913  0.5118  1.3007 -1.3057
10687TIP3   OH253551   0.925   2.778   1.327 -0.1228 -0.7120 -1.0601
10687TIP3    H153552   0.894   2.865   1.303 -1.0793 -0.8289 -0.3033
10687TIP3    H253553   0.980   2.792   1.404 -1.1561 -0.8775 -0.2730
10688TIP3   OH253554   4.195   1.026  11.459  0.0839 -0.7095 -0.9109
10688TIP3    H153555   4.275   1.057  11.415 -0.0677 -1.2242 -1.5657
10688TIP3    H253556   4.226   0.970  11.529  0.3127 -0.6045 -0.9274
10689TIP3   OH253557   1.719   5.645   0.887 -0.4108  0.4348  0.5159
10689TIP3    H153558   1.742   5.737   0.870 -0.1213  0.3476  0.4461
10689TIP3    H253559   1.799   5.596   0.870 -0.7501  0.0848 -0.1285
10690TIP3   OH253560   4.109   6.447  15.965 -0.3238 -0.2968 -0.2380
10690TIP3    H153561   4.019   6.415  15.970 -0.5348  0.4274  1.0456
10690TIP3    H253562   4.133   6.436  15.873 -1.2971 -1.6166 -0.3648
10691TIP3   OH253563   1.726   1.661  11.862 -0.3015 -0.6573 -0.3405
10691TIP3    H153564   1.773   1.663  11.946  0.5300 -1.8842 -0.7434
10691TIP3    H253565   1.637   1.636  11.885  0.0751 -1.6231  0.1494
10692TIP3   OH253566   1.920   0.528  10.754  0.2858 -0.6414  0.3753
10692TIP3    H153567   2.011   0.503  10.737  0.3132  0.0040 -0.4680
10692TIP3    H253568   1.869   0.476  10.691  0.2031  0.1214 -0.1969
10693TIP3   OH253569   5.138   0.252   4.970 -0.1006 -0.1193 -0.5751
10693TIP3    H153570   5.207   0.186   4.964  1.0344  0.8284  1.1200
10693TIP3    H253571   5.171   0.325   4.917 -0.1781  0.0367 -0.4064
10694TIP3   OH253572   1.141   4.293  15.180  0.5811  0.1161 -0.1027
10694TIP3    H153573   1.171   4.266  15.093  1.4874 -1.2769  0.6037
10694TIP3    H253574   1.218   4.284  15.236  0.5227  2.7902  0.5362
10695TIP3   OH253575   5.566   1.265  14.056  0.8056 -0.4267 -0.2193
10695TIP3    H153576   5.584   1.172  14.043  0.4395 -0.3386 -1.4889
10695TIP3    H253577   5.650   1.308  14.045  1.0837 -0.6386  0.9323
10696TIP3   OH253578   4.662   0.734  16.469  0.0684 -0.1459 -0.1920
10696TIP3    H153579   4.573   0.769  16.460  0.3441  0.7107  0.4099
10696TIP3    H253580   4.658   0.679  16.547  0.3415  0.7521  0.4542
10697TIP3   OH253581   3.573   6.537  12.723 -0.3715 -0.0426  0.3252
10697TIP3    H153582   3.601   6.464  12.668 -0.5384  2.2753 -3.1282
10697TIP3    H253583   3.613   6.614  12.683 -2.0549  2.0661  2.3944
10698TIP3   OH253584   2.795   2.522  11.778 -0.3452  0.2723  0.3318
10698TIP3    H153585   2.873   2.479  11.812  0.5212  1.8641  0.4453
10698TIP3    H253586   2.799   2.612  11.812 -1.2552  0.9195 -1.1349
10699TIP3   OH253587   4.322   2.292  12.681 -0.2436  0.1096  0.3496
10699TIP3    H153588   4.313   2.337  12.765 -0.2076 -1.0026  0.9804
10699TIP3    H253589   4.315   2.199  12.704  0.5615 -0.2465 -0.7740
10700TIP3   OH253590   0.712   3.948   4.637 -0.6803  0.2886  0.2255
10700TIP3    H153591   0.692   3.902   4.718  0.0038  0.7715  0.6780
10700TIP3    H253592   0.808   3.942   4.629 -0.6523  1.0478 -0.0644
10701TIP3   OH253593   0.749   5.646   2.943  0.2513 -0.3425  0.0577
10701TIP3    H153594   0.777   5.555   2.937 -1.1514 -1.0151  2.3329
10701TIP3    H253595   0.794   5.681   3.020 -1.0268  0.1294  0.6267
10702TIP3   OH253596   3.022   3.956  11.750 -0.3327  0.1159  0.0006
10702TIP3    H153597   3.003   4.049  11.754 -0.1850  0.1779 -0.6133
10702TIP3    H253598   2.968   3.924  11.678  1.8099  0.2948 -1.7719
10703TIP3   OH253599   4.805   0.280  14.547 -0.1946  0.0360 -0.2124
10703TIP3    H153600   4.799   0.267  14.453  1.9739 -0.1252 -0.3855
10703TIP3    H253601   4.897   0.263  14.568 -0.1772  1.9082  1.6229
10704TIP3   OH253602   0.746   6.460   5.586 -0.5264 -0.1251 -0.8330
10704TIP3    H153603   0.715   6.539   5.630 -0.5021 -0.6796  0.2118
10704TIP3    H253604   0.755   6.485   5.494 -0.7012  1.0247 -0.5459
10705TIP3   OH253605   0.408   6.340   2.616  0.5114  0.7600  0.3520
10705TIP3    H153606   0.347   6.276   2.653  0.3272  0.0965 -1.0312
10705TIP3    H253607   0.491   6.293   2.609  1.2184  1.6361  2.1573
10706TIP3   OH253608   1.857   5.711  15.362 -0.0975  0.5109 -0.8711
10706TIP3    H153609   1.824   5.648  15.298  0.8903  0.5943 -1.4860
10706TIP3    H253610   1.855   5.795  15.317  0.3235  0.6179 -0.6943
10707TIP3   OH253611   3.604   3.486  15.525  0.4339 -0.0882  0.0128
10707TIP3    H153612   3.692   3.455  15.547 -0.1500 -2.0344 -0.1800
10707TIP3    H253613   3.616   3.538  15.446  1.7464  2.0066  1.4939
10708TIP3   OH253614   0.560   6.609   1.952  0.5790  0.1713 -0.1262
10708TIP3    H153615   0.586   6.528   1.995 -0.4001 -0.5034 -0.7516
10708TIP3    H253616   0.484   6.639   2.001  0.6244  0.4244 -0.2098
10709TIP3   OH253617   5.532   6.680   1.885 -0.1610  0.1318 -0.0137
10709TIP3    H153618   5.612   6.634   1.910  0.6601  1.5232 -0.0175
10709TIP3    H253619   5.506   6.639   1.803  0.1521 -0.7956  0.3312
10710TIP3   OH253620   6.089   3.924  12.140  0.0322 -0.1909 -0.1434
10710TIP3    H153621   6.074   4.008  12.184  0.9866  0.6654 -1.3800
10710TIP3    H253622   6.128   3.868  12.208  0.1836  0.6435  0.4673
10711TIP3   OH253623   5.014   1.219  13.076 -0.6710  0.0992 -0.0190
10711TIP3    H153624   5.055   1.277  13.140  1.0499  0.2314 -1.1755
10711TIP3    H253625   4.921   1.218  13.101 -0.7398  3.0859  0.2603
10712TIP3   OH253626   5.418   3.784  15.986 -0.3339 -0.1935  0.2305
10712TIP3    H153627   5.496   3.761  15.935  1.5578 -0.2608  2.8901
10712TIP3    H253628   5.377   3.700  16.007  0.0447 -0.3218  0.4732
10713TIP3   OH253629   3.344   3.206  14.011  0.0553 -0.4349  0.3297
10713TIP3    H153630   3.305   3.179  13.928  1.3169 -2.0004  0.1852
10713TIP3    H253631   3.312   3.141  14.074  1.1367 -0.8047  0.5152
10714TIP3   OH253632   5.797   3.145   4.719 -0.1206 -0.4993  0.1500
10714TIP3    H153633   5.793   3.077   4.787  1.5236 -2.0512 -1.1760
10714TIP3    H253634   5.891   3.157   4.704 -0.3128  2.8729  1.0093
10715TIP3   OH253635   3.780   2.319   3.439  0.1022 -0.3308 -0.4539
10715TIP3    H153636   3.866   2.278   3.450  0.8727  1.5116  0.7635
10715TIP3    H253637   3.752   2.340   3.528 -0.3598  1.5144 -0.9932
10716TIP3   OH253638   0.823   3.789   3.934 -0.3423 -0.2635 -0.4011
10716TIP3    H153639   0.855   3.878   3.945  2.5502 -1.1949 -0.5375
10716TIP3    H253640   0.878   3.736   3.991 -0.1560 -2.3041 -2.3306
10717TIP3   OH253641   3.526   4.308   0.744  0.2303  0.3961 -0.7453
10717TIP3    H153642   3.515   4.385   0.800  0.5441 -0.7372  0.9560
10717TIP3    H253643   3.437   4.279   0.725  0.1239  0.4539 -0.3386
10718TIP3   OH253644   0.815   1.215   4.685  0.5707  0.9781  0.0679
10718TIP3    H153645   0.721   1.205   4.670  0.5278  1.4333  0.0222
10718TIP3    H253646   0.855   1.149   4.628  0.2725  0.5882  0.2979
10719TIP3   OH253647   0.094   0.422  11.252  0.3382  0.3369  0.1249
10719TIP3    H153648   0.079   0.491  11.187 -0.8139 -0.2175 -0.2180
10719TIP3    H253649   0.044   0.347  11.220  1.1261 -0.4942  0.7798
10720TIP3   OH253650   6.555   2.464   5.511 -0.3277  0.4279  0.3878
10720TIP3    H153651   6.636   2.506   5.540  0.4861 -0.3881 -0.6251
10720TIP3    H253652   6.584   2.394   5.453 -1.8193  1.4413 -1.7185
10721TIP3   OH253653   3.826   5.652  16.069  0.4433 -0.0907  0.0164
10721TIP3    H153654   3.734   5.626  16.074  0.6681 -0.7409  1.1130
10721TIP3    H253655   3.835   5.722  16.133  0.5728  0.4805 -0.6058
10722TIP3   OH253656   5.870   4.259  15.706 -0.0554  0.3132 -0.9976
10722TIP3    H153657   5.881   4.205  15.783  1.6356 -0.2454 -1.5963
10722TIP3    H253658   5.958   4.289  15.683 -0.2771 -0.6623 -3.4899
10723TIP3   OH253659   2.792   1.972   6.091  0.0204  0.6526  0.2322
10723TIP3    H153660   2.860   1.951   6.155 -0.1549 -0.0817  0.1859
10723TIP3    H253661   2.784   2.067   6.095  1.5167  0.8317 -0.2252
10724TIP3   OH253662   1.624   2.177  14.381  0.0078  0.1069 -0.0626
10724TIP3    H153663   1.638   2.271  14.376  0.2190  0.0361 -1.2459
10724TIP3    H253664   1.603   2.152  14.291  1.8593 -1.2531 -0.1855
10725TIP3   OH253665   5.662   0.094  17.004 -0.5876 -0.1802  0.0623
10725TIP3    H153666   5.708   0.021  17.046  0.6394  0.4583 -0.1454
10725TIP3    H253667   5.651   0.066  16.913 -1.6602 -0.8081  0.3574
10726TIP3   OH253668   2.713   1.781  14.620  0.3287 -0.3337 -0.0820
10726TIP3    H153669   2.681   1.768  14.531  0.9477 -0.6130 -0.2758
10726TIP3    H253670   2.719   1.876  14.631  1.5752 -0.2978 -0.8438
10727TIP3   OH253671   1.900   1.379   4.800 -0.3574 -0.7707 -0.3913
10727TIP3    H153672   1.982   1.404   4.842 -0.3083 -2.9342  0.9774
10727TIP3    H253673   1.837   1.445   4.829  0.7626  0.6678 -1.1117
10728TIP3   OH253674   6.725   1.042   4.123 -0.3762  0.4403 -0.4422
10728TIP3    H153675   6.697   1.114   4.066 -1.3590 -0.0053 -0.5355
10728TIP3    H253676   6.714   1.077   4.212 -1.7746  0.1179 -0.4530
10729TIP3   OH253677   2.852   6.488   6.178 -0.2431  0.6586  0.5721
10729TIP3    H153678   2.773   6.523   6.219  0.5741  0.5347  2.2983
10729TIP3    H253679   2.919   6.493   6.246  1.0483  0.0145 -0.6108
10730TIP3   OH253680   4.475   2.279  15.750  0.2978  0.0490  0.0922
10730TIP3    H153681   4.518   2.275  15.664 -0.0446 -0.1862 -0.0683
10730TIP3    H253682   4.541   2.246  15.811 -0.5721 -3.0005 -0.4909
10731TIP3   OH253683   3.288   0.373   5.639  0.4229  0.6274 -0.1127
10731TIP3    H153684   3.331   0.410   5.562  0.8934  0.5030  0.0880
10731TIP3    H253685   3.352   0.382   5.709 -0.2107  1.2357  0.3921
10732TIP3   OH253686   3.857   2.153  13.923 -0.0942  0.2924 -0.4203
10732TIP3    H153687   3.891   2.226  13.974  1.4667 -0.7761  0.1762
10732TIP3    H253688   3.840   2.084  13.988 -2.1809  0.3042 -0.8856
10733TIP3   OH253689   5.562   2.257   0.594 -0.8638 -0.5762  0.3302
10733TIP3    H153690   5.569   2.329   0.532  1.9343 -0.3653  0.7759
10733TIP3    H253691   5.471   2.259   0.622 -0.7435  3.3735  0.9916
10734TIP3   OH253692   4.918   3.104   5.296  0.3520 -0.0446  0.5700
10734TIP3    H153693   4.895   3.197   5.294  0.3561 -0.0500  0.1077
10734TIP3    H253694   4.959   3.092   5.382  0.0985  0.3170  0.7468
10735TIP3   OH253695   3.640   0.720  15.248  0.1363  0.2108 -0.3854
10735TIP3    H153696   3.668   0.743  15.160  1.6201 -1.8325 -0.5210
10735TIP3    H253697   3.718   0.731  15.302 -0.5599  0.7307  0.5507
10736TIP3   OH253698   3.495   1.225  14.444  0.1076 -0.0196  0.3995
10736TIP3    H153699   3.581   1.219  14.402 -0.4511  1.0801 -1.0045
10736TIP3    H253700   3.448   1.149  14.412 -0.5864  1.2306 -1.7522
10737TIP3   OH253701   1.030   4.075   6.210 -0.1646  0.3827  0.1105
10737TIP3    H153702   0.988   4.007   6.263  1.8963 -0.3303  0.9140
10737TIP3    H253703   1.015   4.156   6.259  1.2140 -0.1832  1.5404
10738TIP3   OH253704   5.285   2.505  16.331 -0.5344 -0.1071 -0.0929
10738TIP3    H153705   5.306   2.420  16.291 -0.5846  0.2438 -0.8860
10738TIP3    H253706   5.306   2.569  16.263  2.6572  0.8256  1.5791
10739TIP3   OH253707   3.060   3.824   1.492  0.3370  0.7254  0.1154
10739TIP3    H153708   2.997   3.776   1.438 -1.1742  1.5548  1.0712
10739TIP3    H253709   3.013   3.842   1.574  1.6188  1.8911  0.6329
10740TIP3   OH253710   4.697   4.491   3.387  0.2468  0.0743  0.2462
10740TIP3    H153711   4.655   4.412   3.352  2.4304 -0.2205 -1.9621
10740TIP3    H253712   4.656   4.563   3.338  0.2824  0.0328  0.1534
10741TIP3   OH253713   2.567   4.735  17.221  0.2167 -0.3640  0.1683
10741TIP3    H153714   2.580   4.733  17.315  0.4977 -4.0752  0.1939
10741TIP3    H253715   2.656   4.726  17.185  0.1751  1.5358 -0.5561
10742TIP3   OH253716   2.999   3.762   3.392  0.3382 -0.1689  0.7749
10742TIP3    H153717   3.071   3.702   3.408  0.3327 -0.3345  0.2120
10742TIP3    H253718   3.041   3.844   3.365  0.3182 -0.9621 -1.9411
10743TIP3   OH253719   4.968   5.112   6.284 -0.1622 -0.0776  0.4788
10743TIP3    H153720   4.993   5.202   6.307 -4.0337  1.2656  0.1609
10743TIP3    H253721   4.973   5.064   6.367  3.6044 -0.2067  0.3607
10744TIP3   OH253722   3.155   3.983  16.118  0.0901 -0.2972 -0.6568
10744TIP3    H153723   3.212   3.951  16.048  0.2256 -0.7699 -0.3354
10744TIP3    H253724   3.116   3.904  16.155  1.5377 -0.2321  1.1265
10745TIP3   OH253725   4.567   3.756   1.332  0.1995 -0.2919  0.4383
10745TIP3    H153726   4.610   3.833   1.294 -0.9044  0.2906  0.3314
10745TIP3    H253727   4.623   3.732   1.406  0.0300  1.2661  1.1181
10746TIP3   OH253728   2.195   2.215  15.499  0.0309 -0.2244  0.0701
10746TIP3    H153729   2.238   2.253  15.422 -2.0471 -0.8844 -1.5303
10746TIP3    H253730   2.197   2.285  15.565  0.6767  0.8672 -1.0606
10747TIP3   OH253731   6.691   0.063  11.747  0.2297  0.6054  0.2744
10747TIP3    H153732   6.628   0.135  11.740 -0.7014 -0.0470  1.5897
10747TIP3    H253733   6.756   0.095  11.809 -1.8997 -0.7891  3.4473
10748TIP3   OH253734   6.166   6.607   5.335  0.0406  0.1449 -0.3249
10748TIP3    H153735   6.085   6.561   5.314  0.8115 -1.1003 -0.6419
10748TIP3    H253736   6.163   6.687   5.282 -1.0050  0.1586 -0.2616
10749TIP3   OH253737   4.551   0.488   3.520 -0.2052  0.8015 -0.0626
10749TIP3    H153738   4.459   0.507   3.539 -0.4960 -0.5270 -0.0380
10749TIP3    H253739   4.590   0.468   3.605 -0.4605 -0.8357 -0.2877
10750TIP3   OH253740   3.581   6.371   3.774  0.0766 -0.4084 -0.0622
10750TIP3    H153741   3.579   6.332   3.687  1.5058 -0.0496 -0.2928
10750TIP3    H253742   3.539   6.456   3.764  0.5449 -0.2208 -0.4965
10751TIP3   OH253743   2.558   3.230   4.301 -0.0599  0.2023  0.4469
10751TIP3    H153744   2.488   3.293   4.285  0.7923  1.4045  1.2446
10751TIP3    H253745   2.629   3.257   4.242  0.2439 -0.1214  0.6579
10752TIP3   OH253746   0.482   2.748   2.565  0.0379 -0.0805  0.0627
10752TIP3    H153747   0.513   2.680   2.504  1.1525 -0.0916  0.6199
10752TIP3    H253748   0.442   2.699   2.636 -0.6302 -0.0893 -0.3101
10753TIP3   OH253749   2.167   1.595   0.920 -0.2572  0.6636 -0.5775
10753TIP3    H153750   2.104   1.624   0.855  1.7437  2.0268 -2.0283
10753TIP3    H253751   2.201   1.511   0.886 -0.4392  0.5197 -0.4055
10754TIP3   OH253752   4.641   1.006   3.357 -0.2633  0.4241  0.0689
10754TIP3    H153753   4.588   0.930   3.334 -0.8142  0.5541  0.8725
10754TIP3    H253754   4.642   1.007   3.453  2.1538 -0.2238  0.0940
10755TIP3   OH253755   4.249   4.387  13.472  0.2132 -0.3932 -0.2365
10755TIP3    H153756   4.212   4.320  13.529 -0.4668  0.1461 -0.0284
10755TIP3    H253757   4.339   4.358  13.456  0.7806 -0.0255  1.9665
10756TIP3   OH253758   2.793   2.243   6.182 -0.4132  0.2876 -0.1119
10756TIP3    H153759   2.727   2.250   6.251 -1.0378  0.5931 -0.7351
10756TIP3    H253760   2.877   2.245   6.229 -0.6958  3.5764  0.4674
10757TIP3   OH253761   3.952   6.107   2.132  0.1407 -0.7281 -0.3301
10757TIP3    H153762   3.993   6.021   2.120  0.2260 -0.6588 -0.5321
10757TIP3    H253763   4.025   6.168   2.134  0.0954 -0.6827  0.0370
10758TIP3   OH253764   1.290   1.746  11.577  0.4713  0.7733 -0.3428
10758TIP3    H153765   1.283   1.701  11.493  3.1982  0.8656 -0.7051
10758TIP3    H253766   1.334   1.829  11.556 -1.0367  1.9408  0.8611
10759TIP3   OH253767   0.314   6.548  11.441  0.6136  0.3742  0.2464
10759TIP3    H153768   0.391   6.603  11.431  0.2670  0.8810  0.3344
10759TIP3    H253769   0.321   6.513  11.530 -0.9700  3.1222  1.5709
10760TIP3   OH253770   0.275   1.607   0.958  0.7918  0.3950  0.1605
10760TIP3    H153771   0.335   1.533   0.949  0.0205 -0.4949  1.7786
10760TIP3    H253772   0.295   1.664   0.884  1.7871 -1.1592 -0.8243
10761TIP3   OH253773   1.062   3.761   3.101 -0.1767 -0.1419 -0.2212
10761TIP3    H153774   1.013   3.843   3.095 -0.7940 -0.4972 -0.1453
10761TIP3    H253775   1.106   3.765   3.186  0.6904  0.5916 -0.6902
10762TIP3   OH253776   0.499   6.216   3.821 -0.2345  0.1801 -0.4032
10762TIP3    H153777   0.519   6.210   3.728  1.9901 -0.4908  0.0564
10762TIP3    H253778   0.531   6.133   3.858 -0.9787  0.4743  0.9752
10763TIP3   OH253779   3.272   0.378   3.746  0.2487 -0.2402 -0.6582
10763TIP3    H153780   3.330   0.406   3.817 -1.2858  0.0100  0.5540
10763TIP3    H253781   3.205   0.447   3.741 -1.3673 -1.7125 -0.2886
10764TIP3   OH253782   6.676   2.481  13.653  0.4148 -0.3905 -0.4069
10764TIP3    H153783   6.620   2.408  13.625 -0.2708 -0.1110  0.2013
10764TIP3    H253784   6.619   2.558  13.648  1.3534  0.2576 -1.8030
10765TIP3   OH253785   4.345   0.223   0.535  0.3861  0.1904  0.5144
10765TIP3    H153786   4.314   0.150   0.482  1.2500 -0.2219  0.5568
10765TIP3    H253787   4.288   0.223   0.612  1.2226 -1.3462  1.2003
10766TIP3   OH253788   0.333   6.033  11.514 -0.8676 -0.6303  0.5121
10766TIP3    H153789   0.240   6.056  11.503 -0.9108  0.1832  2.3278
10766TIP3    H253790   0.333   5.960  11.575 -0.4019 -2.3407 -1.4086
10767TIP3   OH253791   3.210   1.534  14.456 -0.0777 -0.3027 -0.3339
10767TIP3    H153792   3.121   1.560  14.483 -0.3173 -1.8196  0.4213
10767TIP3    H253793   3.197   1.452  14.409  0.8605 -0.1107 -0.9456
10768TIP3   OH253794   1.174   2.165  15.161 -0.3637  0.1316 -0.3652
10768TIP3    H153795   1.254   2.167  15.109 -0.2815 -0.7826 -0.2920
10768TIP3    H253796   1.117   2.104  15.115 -0.0823 -1.1236  0.8917
10769TIP3   OH253797   5.428   5.583  16.406  0.2393  0.1176 -0.1543
10769TIP3    H153798   5.501   5.534  16.445 -0.3064  0.6458  1.6086
10769TIP3    H253799   5.471   5.655  16.359  1.0388 -1.8418 -2.6520
10770TIP3   OH253800   0.668   0.524  11.377 -0.1428 -0.5659  0.3249
10770TIP3    H153801   0.660   0.610  11.337 -1.7230 -0.7072  0.2697
10770TIP3    H253802   0.601   0.471  11.333 -0.0971 -1.4519  1.2906
10771TIP3   OH253803   2.199   2.385  11.562 -0.4258  0.2334  0.0622
10771TIP3    H153804   2.232   2.296  11.574 -0.3826 -0.1044 -2.0689
10771TIP3    H253805   2.111   2.373  11.525  0.0765  1.0215 -1.4720
10772TIP3   OH253806   2.569   5.506   2.737 -0.0878  0.5130 -0.5542
10772TIP3    H153807   2.608   5.591   2.754  0.7885  0.1986 -0.9179
10772TIP3    H253808   2.581   5.457   2.819  0.4720  0.3561 -0.7226
10773TIP3   OH253809   5.969   0.848  12.425  0.0925  0.6646 -0.0022
10773TIP3    H153810   5.878   0.880  12.422 -0.1408 -0.0508 -0.9446
10773TIP3    H253811   5.961   0.753  12.426  0.8285  0.6007  0.7598
10774TIP3   OH253812   3.347   0.195  16.040  0.2228  0.2392 -0.0915
10774TIP3    H153813   3.397   0.115  16.025 -1.4537 -0.7789 -0.6056
10774TIP3    H253814   3.262   0.177  15.999 -1.0438  1.3275  1.9167
10775TIP3   OH253815   3.522   2.502  13.330  0.5028  0.1646  0.0349
10775TIP3    H153816   3.483   2.486  13.416  0.0054 -0.3796 -0.2854
10775TIP3    H253817   3.451   2.486  13.268  0.0749  3.1424 -0.3825
10776TIP3   OH253818   5.263   6.652  14.326  0.1801 -0.5962 -0.4164
10776TIP3    H153819   5.336   6.628  14.383  0.7415  1.0059 -0.4047
10776TIP3    H253820   5.236   6.570  14.286  1.0439 -1.4481  0.6763
10777TIP3   OH253821   2.101   1.886  10.806  0.0117  0.4219 -0.6063
10777TIP3    H153822   2.083   1.853  10.894  0.1026  1.5354 -0.1449
10777TIP3    H253823   2.170   1.830  10.772 -1.6248 -1.5101 -0.9123
10778TIP3   OH253824   6.095   4.682  13.776 -0.6604  0.2527  0.6081
10778TIP3    H153825   6.016   4.629  13.789 -0.8321  0.5923  0.9972
10778TIP3    H253826   6.160   4.621  13.741 -1.8097  0.4666 -2.1644
10779TIP3   OH253827   5.713   4.813  12.202 -0.1753  0.0285 -0.1286
10779TIP3    H153828   5.708   4.741  12.265  0.4028  0.9423  0.9926
10779TIP3    H253829   5.793   4.860  12.225 -1.2019  1.7960  0.0260
10780TIP3   OH253830   4.831   0.903  13.381 -0.2641  0.0140  0.6979
10780TIP3    H153831   4.862   0.994  13.386  0.2844  0.2580 -3.5682
10780TIP3    H253832   4.738   0.909  13.402 -0.0964  1.3966  1.1961
10781TIP3   OH253833   3.879   3.330   0.870  0.2028  0.1259  0.2435
10781TIP3    H153834   3.918   3.362   0.952 -1.4391  0.0078  1.1047
10781TIP3    H253835   3.818   3.262   0.898 -1.2937  0.9361 -0.9678
10782TIP3   OH253836   4.943   0.007  16.956  0.0197  0.1048  0.3409
10782TIP3    H153837   4.867   0.043  16.911  1.1355  3.5690  0.8942
10782TIP3    H253838   4.928   0.028  17.048  1.4703  0.5843  0.4887
10783TIP3   OH253839   2.619   6.312  16.126  0.4810 -0.2335  0.1940
10783TIP3    H153840   2.608   6.235  16.181 -0.7208 -1.7949 -2.0268
10783TIP3    H253841   2.695   6.292  16.072  1.3195  1.0228  0.8664
10784TIP3   OH253842   1.762   4.693  11.542  0.1016 -0.0367  0.0423
10784TIP3    H153843   1.815   4.627  11.499  2.2663  0.7525  1.3738
10784TIP3    H253844   1.776   4.679  11.635  3.0032  3.9161  0.4674
10785TIP3   OH253845   4.011   0.337  12.590 -0.5915  0.3628  0.6488
10785TIP3    H153846   4.064   0.325  12.511 -0.0095  0.6372  0.9912
10785TIP3    H253847   4.056   0.285  12.657 -1.3825 -0.3134  0.6750
10786TIP3   OH253848   3.980   3.319  12.086  0.3130 -0.5941  0.0480
10786TIP3    H153849   3.995   3.385  12.018 -1.3304  0.2471  0.4413
10786TIP3    H253850   3.908   3.266  12.051 -0.3628 -0.3174  0.9916
10787TIP3   OH253851   3.840   1.963   3.167  0.2303 -0.3256 -0.2723
10787TIP3    H153852   3.827   1.965   3.262  1.0793  1.8233 -0.1469
10787TIP3    H253853   3.758   1.927   3.133 -1.2030  1.3543  1.1553
10788TIP3   OH253854   0.101   0.777   3.019  0.5904  0.3284 -0.0729
10788TIP3    H153855   0.103   0.684   2.998 -0.8864  0.3233 -0.3015
10788TIP3    H253856   0.159   0.818   2.955  2.8829 -0.6192  1.2900
10789TIP3   OH253857   1.682   5.932  11.845  0.2758 -0.1930 -0.6467
10789TIP3    H153858   1.761   5.957  11.796  0.5312  0.0237 -0.1351
10789TIP3    H253859   1.658   6.011  11.892  0.9815 -0.8371  0.8520
10790TIP3   OH253860   2.405   0.374   0.057  0.1609  0.1484  0.6814
10790TIP3    H153861   2.311   0.390   0.069  0.1009 -0.8906  1.7718
10790TIP3    H253862   2.442   0.461   0.040 -1.0982  0.4747 -0.6715
10791TIP3   OH253863   5.515   0.264  15.300 -0.1944  0.0879 -0.1204
10791TIP3    H153864   5.469   0.183  15.322  0.2338  0.0338  0.5892
10791TIP3    H253865   5.579   0.276  15.370 -0.2183  1.0182 -0.2363
10792TIP3   OH253866   5.704   6.551  15.803 -0.1430 -0.2484  0.1695
10792TIP3    H153867   5.774   6.487  15.795  0.4927  0.5869 -1.3676
10792TIP3    H253868   5.744   6.625  15.848 -0.0775  0.1597 -0.5504
10793TIP3   OH253869   6.729   6.709   2.822 -0.0904 -0.1848  0.4367
10793TIP3    H153870   6.768   6.695   2.908 -1.9087 -1.4695  1.1428
10793TIP3    H253871   6.803   6.711   2.761  1.1284 -1.4525  1.7891
10794TIP3   OH253872   3.797   6.459  16.365 -0.1586  0.1528 -0.1740
10794TIP3    H153873   3.814   6.466  16.271 -1.1908 -1.0325 -0.4715
10794TIP3    H253874   3.858   6.522  16.405 -0.7301  1.7886 -1.7178
10795TIP3   OH253875   1.194   3.478  16.841  0.2008 -0.4692  0.0507
10795TIP3    H153876   1.121   3.528  16.805  1.1006  1.3091  0.6028
10795TIP3    H253877   1.226   3.425  16.768 -0.6745 -0.1361 -0.5890
10796TIP3   OH253878   4.145   2.496   2.173  0.2351  0.0665 -0.3231
10796TIP3    H153879   4.173   2.587   2.164  0.0442  0.0297 -1.3869
10796TIP3    H253880   4.066   2.490   2.120  0.4829 -0.8221 -0.6036
10797TIP3   OH253881   4.793   1.127   1.999  0.3303  0.1331  0.0612
10797TIP3    H153882   4.880   1.093   1.976  1.2066  0.6161  2.3796
10797TIP3    H253883   4.806   1.222   2.008 -0.5539  0.2703 -0.0083
10798TIP3   OH253884   2.303   0.506   4.036 -0.0426 -0.0685 -0.5529
10798TIP3    H153885   2.270   0.594   4.052 -1.6340 -0.2158 -2.5584
10798TIP3    H253886   2.245   0.449   4.088 -1.5206 -0.1378 -2.1641
10799TIP3   OH253887   3.041   3.242  17.069 -0.4392 -0.3654  0.1536
10799TIP3    H153888   3.088   3.272  16.991  0.0393  0.5542  0.7817
10799TIP3    H253889   2.948   3.253  17.046 -0.3027  1.4768  0.2636
10800TIP3   OH253890   1.149   3.273  16.018  0.1546  0.3367 -0.0735
10800TIP3    H153891   1.179   3.183  16.029  0.9930  0.7933  1.7203
10800TIP3    H253892   1.101   3.272  15.935 -1.6779 -2.2291  0.8867
10801TIP3   OH253893   0.152   0.662  14.286 -0.4463  0.3028  0.0493
10801TIP3    H153894   0.159   0.622  14.200 -1.9223  0.7201 -0.2915
10801TIP3    H253895   0.183   0.595  14.347  0.9744  0.1502 -0.8200
10802TIP3   OH253896   4.680   2.785   5.276  0.6193 -0.4472  0.6601
10802TIP3    H153897   4.758   2.757   5.325  1.7837  0.3981 -0.6603
10802TIP3    H253898   4.709   2.860   5.225 -1.2817  0.3713  0.7049
10803TIP3   OH253899   4.832   5.084   0.025 -0.4349 -0.2014  0.0217
10803TIP3    H153900   4.811   4.991   0.020 -0.1367 -0.3209  0.8554
10803TIP3    H253901   4.749   5.126   0.046 -0.1126 -0.5683  2.2816
10804TIP3   OH253902   6.012   0.160   2.831  0.1064  0.3382  0.0713
10804TIP3    H153903   5.918   0.144   2.840  0.4002 -0.2057  3.0774
10804TIP3    H253904   6.031   0.229   2.895  2.0340 -0.9069  0.9230
10805TIP3   OH253905   1.329   6.515   3.350  0.3932 -0.2425  0.0135
10805TIP3    H153906   1.387   6.591   3.349  0.9526 -0.6495  0.5019
10805TIP3    H253907   1.279   6.525   3.431 -0.7407  0.4777 -0.7535
10806TIP3   OH253908   1.884   6.711  13.062  0.2897  0.1670  0.0997
10806TIP3    H153909   1.898   6.645  13.131 -2.7119 -2.4808 -1.5832
10806TIP3    H253910   1.929   6.675  12.986 -1.1180  0.1398 -0.7522
10807TIP3   OH253911   0.414   3.427   6.369  0.2684  0.4236  0.0527
10807TIP3    H153912   0.327   3.436   6.408 -0.0428  0.4281 -0.6173
10807TIP3    H253913   0.472   3.410   6.443 -0.1514  1.3635  0.6157
10808TIP3   OH253914   3.654   1.359   4.837  0.7639  0.1703  0.2216
10808TIP3    H153915   3.722   1.293   4.824  1.0815  0.6343 -0.5696
10808TIP3    H253916   3.688   1.438   4.795 -0.3432  0.3629 -0.3751
10809TIP3   OH253917   4.594   3.801   0.250  0.0237  0.0271 -0.4352
10809TIP3    H153918   4.646   3.873   0.214  0.0557  0.1888 -0.0685
10809TIP3    H253919   4.652   3.759   0.313 -0.9345  1.4443  1.4884
10810TIP3   OH253920   6.810   2.679  12.685 -0.7500 -0.6303  0.6621
10810TIP3    H153921   6.817   2.664  12.591 -1.0614 -0.1534  0.5570
10810TIP3    H253922   6.767   2.764  12.692  0.0996 -0.2311  1.2332
10811TIP3   OH253923   5.507   5.385  13.034 -0.3489 -0.5402  0.1964
10811TIP3    H153924   5.423   5.415  13.068 -0.3017  0.5589 -0.6381
10811TIP3    H253925   5.561   5.464  13.028  1.1309 -1.3597  1.7126
10812TIP3   OH253926   6.632   4.995   2.728  0.3409 -0.1552  0.1588
10812TIP3    H153927   6.697   4.931   2.754  0.4102  0.1784  0.8298
10812TIP3    H253928   6.631   5.059   2.800  0.3647  0.6607 -0.5493
10813TIP3   OH253929   1.941   5.555  11.787  0.0917  0.5096 -0.0219
10813TIP3    H153930   1.853   5.591  11.779 -0.4105 -0.8184 -0.7017
10813TIP3    H253931   1.956   5.509  11.705  0.3878 -1.5026  1.0949
10814TIP3   OH253932   1.323   0.027  14.066  0.1369 -0.1999  0.6482
10814TIP3    H153933   1.366  -0.049  14.027 -0.6299  0.9416 -2.8250
10814TIP3    H253934   1.239  -0.006  14.098  0.1088 -0.9856 -0.1999
10815TIP3   OH253935   5.066   4.240  12.982 -0.7889  0.7236  0.3093
10815TIP3    H153936   5.004   4.312  12.977 -0.5967  0.8532 -0.2331
10815TIP3    H253937   5.103   4.247  13.070  0.7422  2.5773 -0.3995
10816TIP3   OH253938   5.930   3.296   2.197 -0.5178  0.2140  0.2920
10816TIP3    H153939   5.839   3.323   2.208 -0.9124 -0.8754 -0.1511
10816TIP3    H253940   5.972   3.315   2.281 -1.7443 -1.4901  1.3493
10817TIP3   OH253941   2.512   1.270  16.077  0.0466  0.2199 -0.5678
10817TIP3    H153942   2.588   1.288  16.022 -1.5365  0.5389 -2.7888
10817TIP3    H253943   2.463   1.353  16.078  0.1442  0.3204  1.6206
10818TIP3   OH253944   2.971   3.615  13.743  0.4072  0.0606 -0.0760
10818TIP3    H153945   2.913   3.639  13.671 -0.1916 -1.1057 -0.0198
10818TIP3    H253946   3.047   3.671  13.733  0.5520 -0.3924 -1.9021
10819TIP3   OH253947   2.514   0.709   5.138 -0.2336  0.1496  0.4619
10819TIP3    H153948   2.572   0.761   5.194  1.3617 -0.5205 -0.4670
10819TIP3    H253949   2.549   0.620   5.144 -0.6498 -0.1225 -0.7867
10820TIP3   OH253950   2.245   4.996  14.604 -0.5200 -0.5106  0.3346
10820TIP3    H153951   2.241   4.970  14.696  1.7664  0.0489  0.6557
10820TIP3    H253952   2.246   5.092  14.606  3.5983 -0.3635  0.1556
10821TIP3   OH253953   4.258   0.959  17.025 -0.1836 -0.7007 -0.4873
10821TIP3    H153954   4.303   0.879  17.052  0.2716 -0.8274 -1.5585
10821TIP3    H253955   4.326   1.012  16.983 -0.8021 -0.4480 -1.2003
10822TIP3   OH253956   1.479   6.731   3.434  0.4645 -0.3331 -0.1772
10822TIP3    H153957   1.476   6.776   3.518  0.5673 -0.3285 -0.1760
10822TIP3    H253958   1.572   6.723   3.414  0.4267  0.5794 -0.7797
10823TIP3   OH253959   1.868   0.694  16.665 -0.1591 -0.1805 -0.0607
10823TIP3    H153960   1.778   0.663  16.680 -0.5088  0.9427  0.2742
10823TIP3    H253961   1.860   0.752  16.590  0.3373 -0.2726 -0.1829
10824TIP3   OH253962   4.489   2.052  11.150  0.6851 -0.7879 -0.3682
10824TIP3    H153963   4.432   2.052  11.073 -0.8417 -2.4042  0.6531
10824TIP3    H253964   4.574   2.022  11.118  0.1756 -1.0678 -1.4947
10825TIP3   OH253965   1.064   5.567   6.123  0.5011 -0.0553  0.0387
10825TIP3    H153966   0.983   5.518   6.108  0.9047 -1.0682  1.0670
10825TIP3    H253967   1.035   5.649   6.163 -0.1928  0.6638 -1.8103
10826TIP3   OH253968   1.329   5.591  11.613  0.7218  0.0407  0.0813
10826TIP3    H153969   1.392   5.524  11.587  1.2791  0.4746  0.2837
10826TIP3    H253970   1.381   5.671  11.618 -0.2649  0.9007 -2.0467
10827TIP3   OH253971   3.751   3.812  17.120 -0.3893  0.1900 -0.0450
10827TIP3    H153972   3.786   3.848  17.038 -0.8524  1.4750  0.3111
10827TIP3    H253973   3.820   3.752  17.150 -0.5231 -0.8851 -1.7381
10828TIP3   OH253974   1.122   1.081  15.777  0.3263  0.2766 -0.5919
10828TIP3    H153975   1.049   1.092  15.838  2.9636  0.3547  2.8953
10828TIP3    H253976   1.165   1.166  15.775  2.2518 -0.6008  0.3198
10829TIP3   OH253977   4.944   2.712  14.019 -0.0573 -0.1931  0.4526
10829TIP3    H153978   4.981   2.647  14.079  0.0947 -0.3993  0.1410
10829TIP3    H253979   4.872   2.751  14.068 -0.2552 -0.7136  0.5863
10830TIP3   OH253980   1.271   2.397   3.379  0.0078  0.5345  0.0104
10830TIP3    H153981   1.267   2.320   3.322 -0.7448  0.2262  0.4640
10830TIP3    H253982   1.364   2.422   3.379 -0.0872  1.1100 -2.0675
10831TIP3   OH253983   2.038   0.248  12.597  0.0472 -0.0118  0.3592
10831TIP3    H153984   1.988   0.197  12.661 -0.0383 -1.1595 -0.5800
10831TIP3    H253985   2.081   0.316  12.648  1.0870 -1.7128  1.8678
10832TIP3   OH253986   6.200   5.587   6.244 -0.8674  0.2274  0.0292
10832TIP3    H153987   6.205   5.635   6.328 -1.8915 -2.1993  1.5919
10832TIP3    H253988   6.253   5.509   6.258  0.2074  0.4826 -2.2162
10833TIP3   OH253989   1.872   4.895  12.807  0.0040 -0.1872 -0.2264
10833TIP3    H153990   1.865   4.800  12.817  0.7514 -0.3010 -0.6765
10833TIP3    H253991   1.952   4.918  12.855  1.0474 -0.1048 -1.9245
10834TIP3   OH253992   6.775   6.287  16.221 -0.3367 -0.0364 -0.2855
10834TIP3    H153993   6.707   6.271  16.155 -0.1229  0.1702 -0.5605
10834TIP3    H253994   6.754   6.373  16.257 -0.2525  0.0060 -0.3351
10835TIP3   OH253995   5.612   0.325  12.320  0.0950  0.4678  0.2809
10835TIP3    H153996   5.613   0.307  12.226  0.8027  2.0550 -0.0523
10835TIP3    H253997   5.703   0.310  12.348  0.3956  2.0510  0.2490
10836TIP3   OH253998   4.744   6.728   2.739  0.1269  0.9666  0.0401
10836TIP3    H153999   4.836   6.749   2.755  0.5273 -0.2398 -0.5695
10836TIP3    H254000   4.706   6.719   2.826  1.0480 -0.4328  0.3234
10837TIP3   OH254001   6.508   4.460  16.460 -0.1158 -0.0721 -0.8487
10837TIP3    H154002   6.504   4.476  16.366 -2.5049  0.1359 -0.7732
10837TIP3    H254003   6.425   4.494  16.493  0.2564 -1.0394  1.1939
10838TIP3   OH254004   2.547   2.135  13.126  0.1057  0.4260  0.3407
10838TIP3    H154005   2.636   2.163  13.102 -0.8623  1.2687 -2.6990
10838TIP3    H254006   2.552   2.039  13.123  0.8565  0.4620  0.0100
10839TIP3   OH254007   2.729   1.541   3.825 -0.0575  0.0180 -0.1357
10839TIP3    H154008   2.786   1.602   3.874 -0.7453  0.7887 -0.2740
10839TIP3    H254009   2.692   1.594   3.755  0.0947 -0.8238 -0.8581
10840TIP3   OH254010   3.294   2.423   3.484  0.7151 -0.6216  0.1800
10840TIP3    H154011   3.364   2.365   3.454  0.8234 -0.7292  0.6236
10840TIP3    H254012   3.331   2.511   3.478  1.2022 -0.7353  1.1988
10841TIP3   OH254013   6.547   5.645   5.277 -0.1389 -0.2310  0.4207
10841TIP3    H154014   6.528   5.692   5.358  2.1220  0.0134  0.8854
10841TIP3    H254015   6.641   5.658   5.263  0.3605 -3.4572 -0.1484
10842TIP3   OH254016   3.598   5.914  14.388 -0.1122  0.0645  0.2594
10842TIP3    H154017   3.569   5.830  14.351  1.2788  0.1133 -1.0661
10842TIP3    H254018   3.525   5.943  14.442 -1.8743 -0.5559 -1.6382
10843TIP3   OH254019   2.455   5.616   3.768  0.0384  0.6175 -0.2162
10843TIP3    H154020   2.450   5.521   3.764  0.5743  0.4142  2.3304
10843TIP3    H254021   2.540   5.634   3.809 -0.3821  2.1598  0.0322
10844TIP3   OH254022   5.100   4.461   1.848 -0.3332  0.2758 -0.0354
10844TIP3    H154023   5.105   4.498   1.936 -0.0531  0.3599 -0.0863
10844TIP3    H254024   5.068   4.372   1.862  0.9856 -0.1803  0.2874
10845TIP3   OH254025   5.106   6.610   0.258  0.2719  0.0836  0.1605
10845TIP3    H154026   5.081   6.566   0.177 -1.5071  1.4743 -0.1043
10845TIP3    H254027   5.154   6.687   0.230 -0.4178  0.6136  0.4033
10846TIP3   OH254028   3.397   5.963   3.643 -0.0180 -0.2510 -0.8518
10846TIP3    H154029   3.330   5.965   3.576 -0.5845 -1.5965 -0.3620
10846TIP3    H254030   3.351   5.935   3.722  0.1949  3.1774  0.6772
10847TIP3   OH254031   1.342   4.354   2.409 -0.2034  0.2653 -0.2994
10847TIP3    H154032   1.306   4.383   2.325  0.9795 -0.7213 -1.1906
10847TIP3    H254033   1.360   4.261   2.397  0.2174  0.1601  0.9665
10848TIP3   OH254034   2.500   4.714  13.755 -0.6047 -0.0535 -0.4221
10848TIP3    H154035   2.406   4.694  13.754 -1.2139  1.9205  2.7396
10848TIP3    H254036   2.505   4.808  13.735  0.6539 -0.0298 -0.0812
10849TIP3   OH254037   4.239   5.934  13.008  0.0987  0.4181 -0.4023
10849TIP3    H154038   4.305   5.994  12.973  0.4153 -1.6538 -3.7962
10849TIP3    H254039   4.289   5.872  13.062  0.3393  0.9514 -0.0036
10850TIP3   OH254040   0.694   4.939  12.385 -0.1178 -0.3691 -0.9314
10850TIP3    H154041   0.639   4.954  12.308  0.0739 -0.6099 -1.1184
10850TIP3    H254042   0.728   5.025  12.408 -0.4369 -0.2469 -0.9187
10851TIP3   OH254043   5.746   5.466   0.248  0.1281 -0.3002 -0.1967
10851TIP3    H154044   5.766   5.383   0.204  2.2265  0.9830 -1.8836
10851TIP3    H254045   5.814   5.475   0.315  2.4145  1.6950 -2.5422
10852TIP3   OH254046   3.119   6.282  11.752  0.1906  0.2848 -0.2602
10852TIP3    H154047   3.158   6.213  11.805  0.9214  0.1661 -0.9438
10852TIP3    H254048   3.138   6.258  11.662  0.8518  1.5923 -0.4976
10853TIP3   OH254049   3.603   3.342  12.015 -0.0809 -0.1108  1.2053
10853TIP3    H154050   3.614   3.390  11.933  0.8203  0.6799  1.7619
10853TIP3    H254051   3.587   3.252  11.989  0.5912  0.0548  0.1659
10854TIP3   OH254052   1.539   1.740   5.944 -0.2931  0.1549  0.3522
10854TIP3    H154053   1.613   1.714   5.890 -1.5026  0.2224 -1.4404
10854TIP3    H254054   1.566   1.721   6.034  0.4803 -3.4110 -0.4796
10855TIP3   OH254055   0.378   3.635   1.855 -0.2278 -0.2948 -0.0337
10855TIP3    H154056   0.341   3.701   1.914  0.5783  1.3818 -1.3020
10855TIP3    H254057   0.350   3.551   1.892 -3.5899  0.7688  0.2007
10856TIP3   OH254058   1.186   3.075   0.993 -0.6168  0.5462  0.4341
10856TIP3    H154059   1.111   3.088   1.051  0.2285 -1.6606  2.1531
10856TIP3    H254060   1.236   3.156   0.998 -1.9198  1.3636  0.6864
10857TIP3   OH254061   4.580   4.502   0.210 -0.0540  0.1370 -0.6471
10857TIP3    H154062   4.658   4.449   0.227  1.2094  1.3891 -2.2631
10857TIP3    H254063   4.546   4.523   0.296  1.1547 -0.7810  0.0833
10858TIP3   OH254064   3.073   1.926   3.797 -0.6024  0.0421  0.1245
10858TIP3    H154065   3.148   1.869   3.814  0.7085  1.3387 -1.0551
10858TIP3    H254066   3.021   1.879   3.732  0.1400 -0.1028 -0.3757
10859TIP3   OH254067   3.347   3.228  11.470  0.5816  0.0705 -0.0814
10859TIP3    H154068   3.313   3.290  11.534 -0.9028 -0.7065 -0.0531
10859TIP3    H254069   3.269   3.183  11.437  1.4607 -0.6526 -1.2728
10860TIP3   OH254070   0.502   2.496   4.309 -0.6722  0.0484 -0.8868
10860TIP3    H154071   0.530   2.583   4.339  3.0425 -1.5371  0.8193
10860TIP3    H254072   0.550   2.483   4.227  1.3782 -1.4459  0.4273
10861TIP3   OH254073   5.527   0.351  16.291  0.0922  0.3923  0.1705
10861TIP3    H154074   5.454   0.291  16.302 -0.6272  0.7729 -2.0348
10861TIP3    H254075   5.582   0.311  16.224  2.3422 -0.2037  2.2116
10862TIP3   OH254076   0.523   4.490  15.519  0.0360  0.1063 -0.2210
10862TIP3    H154077   0.463   4.464  15.449  0.6591 -2.5727  0.1470
10862TIP3    H254078   0.603   4.440  15.502  1.2707  1.6522  0.7593
10863TIP3   OH254079   2.074   6.586  13.956  0.4406  0.1847 -0.2756
10863TIP3    H154080   1.985   6.564  13.929  0.4286 -1.7474  1.1311
10863TIP3    H254081   2.129   6.522  13.911  0.5892 -1.8526  2.5562
10864TIP3   OH254082   4.757   4.204  15.747  0.3035  0.4761 -0.2179
10864TIP3    H154083   4.831   4.232  15.801 -0.1762  1.1070  0.1344
10864TIP3    H254084   4.724   4.286  15.709 -0.5898  0.2860  0.1254
10865TIP3   OH254085   4.948   1.944   0.995  0.0859  0.2118 -0.2016
10865TIP3    H154086   4.937   1.931   0.900  1.7717 -0.3832 -0.3554
10865TIP3    H254087   4.923   2.035   1.009 -1.9360 -0.1732 -0.8881
10866TIP3   OH254088   3.050   4.634  15.055 -0.0264  0.1449  0.2886
10866TIP3    H154089   2.963   4.673  15.067  0.5487  1.3783  0.5755
10866TIP3    H254090   3.103   4.706  15.020  0.8912 -0.5849  0.1653
10867TIP3   OH254091   0.990   3.340  12.421 -0.2635  0.0925 -0.1845
10867TIP3    H154092   0.905   3.357  12.460 -1.0522  2.1261 -2.5391
10867TIP3    H254093   1.052   3.346  12.494 -1.7379  2.4640  0.9921
10868TIP3   OH254094   4.788   5.496  17.112  0.0063  0.1563 -0.5559
10868TIP3    H154095   4.772   5.556  17.039 -0.0981  0.3167 -0.4055
10868TIP3    H254096   4.756   5.412  17.083 -0.3024  0.2845 -0.5869
10869TIP3   OH254097   4.209   2.277  15.399 -0.0117  0.3094  0.1383
10869TIP3    H154098   4.237   2.318  15.481  0.8619 -0.0981  0.0525
10869TIP3    H254099   4.284   2.225  15.371 -0.6751 -0.3885 -0.3872
10870TIP3   OH254100   3.890   0.215  13.564  0.0026 -0.0825  0.1926
10870TIP3    H154101   3.847   0.169  13.492 -0.8748  2.3358 -0.9007
10870TIP3    H254102   3.867   0.307  13.552  2.4339  0.8291  1.7502
10871TIP3   OH254103   0.549   4.812   2.076  0.4858  0.5111  0.1120
10871TIP3    H154104   0.497   4.815   1.996  0.6750  0.6519 -0.0071
10871TIP3    H254105   0.576   4.721   2.084  0.4972  0.5049 -0.0039
10872TIP3   OH254106   3.629   5.524  17.146  0.1052 -0.0882  0.0320
10872TIP3    H154107   3.573   5.494  17.218 -0.9551 -0.7207 -1.0078
10872TIP3    H254108   3.568   5.554  17.079  1.0786  0.8314 -0.4739
10873TIP3   OH254109   2.741   6.354   4.768 -0.2185 -0.5643  0.2913
10873TIP3    H154110   2.676   6.356   4.698  1.9925  0.7981 -1.8995
10873TIP3    H254111   2.818   6.314   4.727  0.2331 -2.6354  2.9388
10874TIP3   OH254112   2.172   2.825  12.247  0.6246  0.0393 -0.6404
10874TIP3    H154113   2.148   2.844  12.157  0.7010 -1.6828 -1.0642
10874TIP3    H254114   2.237   2.755  12.241 -0.3788 -1.0874  0.7550
10875TIP3   OH254115   1.038   3.215  17.246  0.5062 -0.3373  0.4975
10875TIP3    H154116   0.979   3.247  17.314 -0.2380 -0.7015  0.0278
10875TIP3    H254117   1.002   3.130  17.220  2.6756 -1.8183  2.0177
10876TIP3   OH254118   1.547   2.599   5.780 -0.4118  0.5467  0.1204
10876TIP3    H154119   1.513   2.522   5.735  0.6779 -0.1718  0.4745
10876TIP3    H254120   1.472   2.659   5.786 -0.6958  0.5034 -2.2344
10877TIP3   OH254121   2.242   5.899  13.488  0.2085  0.6830  0.0190
10877TIP3    H154122   2.250   5.967  13.555  1.3485  0.5762  0.0216
10877TIP3    H254123   2.207   5.823  13.534 -0.7421  1.1489  0.0912
10878TIP3   OH254124   0.424   1.373   1.021 -0.0344 -0.5599 -0.2530
10878TIP3    H154125   0.463   1.382   0.934 -0.4426 -2.0279 -0.6026
10878TIP3    H254126   0.489   1.325   1.072 -0.7116 -1.6380 -0.3903
10879TIP3   OH254127   1.685   5.926  13.948  0.4327  0.2665 -0.0442
10879TIP3    H154128   1.730   5.902  14.029  0.9407  2.0574  0.2509
10879TIP3    H254129   1.618   5.859  13.937  1.1256 -0.6780  1.2113
10880TIP3   OH254130   5.245   6.311  15.875  0.0888 -0.1972  0.5207
10880TIP3    H154131   5.161   6.313  15.921  0.2651 -0.9856  0.8956
10880TIP3    H254132   5.309   6.292  15.944  0.4445 -0.6297  0.0747
10881TIP3   OH254133   4.116   0.526   1.973 -0.1952 -0.9121 -0.3284
10881TIP3    H154134   4.196   0.556   1.930  0.0670 -0.9532  0.1237
10881TIP3    H254135   4.147   0.478   2.050 -0.6381 -1.4148 -0.4590
10882TIP3   OH254136   4.334   0.406  10.788 -0.4491 -0.6610 -0.0504
10882TIP3    H154137   4.339   0.483  10.732  0.2009 -1.3022 -0.9113
10882TIP3    H254138   4.351   0.332  10.729 -1.5495 -1.5178  0.6457
10883TIP3   OH254139   1.676   2.076  10.883  0.5948  0.2584  0.3692
10883TIP3    H154140   1.615   2.016  10.839  1.0191  1.4468 -2.0010
10883TIP3    H254141   1.621   2.151  10.909  0.2435 -0.6447  2.5088
10884TIP3   OH254142   5.129   1.931   1.417  0.1102 -0.5084 -0.4032
10884TIP3    H154143   5.044   1.975   1.425  0.2439 -0.0057 -1.5311
10884TIP3    H254144   5.113   1.859   1.356  0.6474  0.0375 -1.2066
10885TIP3   OH254145   5.279   1.279  16.557  0.1180 -0.5583  0.8760
10885TIP3    H154146   5.320   1.220  16.494  0.0011 -0.6769  0.9105
10885TIP3    H254147   5.313   1.366  16.534 -1.9819 -0.1609 -1.1091
10886TIP3   OH254148   1.680   1.732   1.512  0.6207  0.7488  0.0884
10886TIP3    H154149   1.599   1.699   1.472  0.5284  2.0088 -0.7954
10886TIP3    H254150   1.656   1.749   1.603  0.2336 -0.0536  0.1447
10887TIP3   OH254151   6.793   3.263  15.420  0.4039 -0.0069 -0.0677
10887TIP3    H154152   6.791   3.265  15.324  1.8076  1.2019 -0.1121
10887TIP3    H254153   6.754   3.346  15.446 -0.1204 -0.4048  0.4295
10888TIP3   OH254154   5.940   1.329   3.146  0.3691  0.6955  0.0178
10888TIP3    H154155   5.905   1.256   3.094  1.1311  0.6681 -0.4758
10888TIP3    H254156   5.884   1.332   3.223 -0.8750  0.8230 -0.8543
10889TIP3   OH254157   4.231   5.984   3.447 -0.4915  0.3888  0.1363
10889TIP3    H154158   4.226   5.911   3.386 -2.7786  1.3192 -0.8885
10889TIP3    H254159   4.282   6.051   3.400  0.7862 -0.1347  0.7076
10890TIP3   OH254160   3.709   4.870   1.824  0.8433 -0.4162  0.3300
10890TIP3    H154161   3.668   4.897   1.741  2.9115  0.9929 -0.3198
10890TIP3    H254162   3.702   4.948   1.880  1.2762 -0.6791  0.7504
10891TIP3   OH254163   0.124   4.952   3.079 -0.0185  0.1540  0.0701
10891TIP3    H154164   0.144   4.963   3.172 -2.7445  1.7816  0.5873
10891TIP3    H254165   0.102   5.040   3.048  1.1733 -0.2741 -2.2519
10892TIP3   OH254166   4.499   0.174  11.126  0.3552  0.6216  0.4445
10892TIP3    H154167   4.452   0.257  11.134  0.0576  0.3103  2.3758
10892TIP3    H254168   4.577   0.196  11.075 -0.3281  1.8022 -0.1397
10893TIP3   OH254169   0.842   5.994   3.441 -0.4066  0.6220 -0.2750
10893TIP3    H154170   0.854   6.069   3.384 -1.1392  0.2156 -0.9813
10893TIP3    H254171   0.831   6.031   3.528  0.8191  1.2439 -0.3668
10894TIP3   OH254172   2.126   1.880   3.867  0.0068  0.5910  0.3498
10894TIP3    H154173   2.198   1.888   3.929  1.4827 -0.3304 -1.1776
10894TIP3    H254174   2.133   1.958   3.812  2.3558 -1.3031 -2.2650
10895TIP3   OH254175   4.284   4.732   0.302  0.6777  0.2388 -0.3535
10895TIP3    H154176   4.352   4.798   0.288  1.7972 -0.4092  1.6370
10895TIP3    H254177   4.329   4.648   0.292 -0.4002 -0.2498 -1.3903
10896TIP3   OH254178   4.286   3.316   3.608 -0.3622 -0.4810 -0.0597
10896TIP3    H154179   4.260   3.253   3.541  2.1249 -1.1368 -0.4915
10896TIP3    H254180   4.273   3.402   3.567  1.9640 -0.8827 -1.8058
10897TIP3   OH254181   0.419   0.772  11.241  0.7266 -0.3539  0.1619
10897TIP3    H154182   0.503   0.795  11.202  0.7706 -0.1654  0.3690
10897TIP3    H254183   0.362   0.753  11.166  1.4499 -2.2465  0.0431
10898TIP3   OH254184   4.898   4.350   0.950  0.2129  0.4086 -0.6301
10898TIP3    H154185   4.981   4.396   0.965  1.4538 -0.3114 -4.2930
10898TIP3    H254186   4.845   4.412   0.899  0.0986 -0.4986 -1.6642
10899TIP3   OH254187   0.437   0.449  13.147 -0.2329 -0.5324 -0.2368
10899TIP3    H154188   0.372   0.447  13.076 -1.6198 -1.4824  0.9956
10899TIP3    H254189   0.417   0.528  13.196  0.2847 -0.2366 -0.4932
10900TIP3   OH254190   3.738   1.670   2.565 -0.0300 -0.2158  0.1395
10900TIP3    H154191   3.652   1.634   2.583  0.2822 -0.5753  0.9533
10900TIP3    H254192   3.799   1.599   2.584  0.3640 -0.6280 -2.3188
10901TIP3   OH254193   5.930   5.819  15.032  0.4879 -0.5453  0.2191
10901TIP3    H154194   5.967   5.735  15.007  2.6806  0.8546 -1.6629
10901TIP3    H254195   5.883   5.802  15.113  2.4872 -3.1732  0.9539
10902TIP3   OH254196   3.933   2.411   4.465  0.2896 -0.1946  0.4781
10902TIP3    H154197   3.997   2.393   4.534 -0.1478 -1.7713  0.5289
10902TIP3    H254198   3.978   2.385   4.384  0.2534  0.1795  0.3355
10903TIP3   OH254199   2.546   0.133  12.975 -0.0094  0.4378 -0.1719
10903TIP3    H154200   2.563   0.161  13.065  0.7992  0.8685 -0.4449
10903TIP3    H254201   2.454   0.106  12.975  0.1292 -0.0901  0.9108
10904TIP3   OH254202   4.975   4.723   3.215 -0.3915  0.0923 -0.0443
10904TIP3    H154203   4.992   4.683   3.300  1.0811 -0.8588 -0.7415
10904TIP3    H254204   4.993   4.653   3.152  0.6248  1.3764 -1.2345
10905TIP3   OH254205   4.253   4.243   1.831  0.3301 -0.2970  0.2700
10905TIP3    H154206   4.195   4.169   1.816 -0.1447 -0.2168  1.5346
10905TIP3    H254207   4.231   4.305   1.762 -0.7669 -0.4625  0.4469
10906TIP3   OH254208   1.438   5.017   4.931 -0.0567 -0.4896 -0.4082
10906TIP3    H154209   1.516   5.057   4.970  0.2776 -0.9219 -0.6289
10906TIP3    H254210   1.438   4.927   4.962  0.1889 -0.8321 -1.3606
10907TIP3   OH254211   4.380   3.490  13.747 -0.0229  0.8299 -0.2694
10907TIP3    H154212   4.473   3.493  13.771  0.3443  3.4785 -1.6612
10907TIP3    H254213   4.359   3.579  13.719 -2.0270 -0.4680 -3.5179
10908TIP3   OH254214   2.927   4.128   1.996 -0.3483  0.2627 -0.8352
10908TIP3    H154215   2.957   4.184   1.924  0.4968 -0.7439 -1.2970
10908TIP3    H254216   2.854   4.077   1.958 -0.4808  0.3595 -0.7107
10909TIP3   OH254217   0.290   1.160  12.958  0.6182 -0.4019 -0.0244
10909TIP3    H154218   0.282   1.224  13.028  0.3238 -0.6212  0.1457
10909TIP3    H254219   0.204   1.161  12.915  0.8477 -0.1510 -0.4857
10910TIP3   OH254220   3.048   5.449   5.425 -0.3405 -0.1958 -0.3239
10910TIP3    H154221   3.070   5.401   5.345 -0.0906 -2.1347  0.8449
10910TIP3    H254222   2.963   5.414   5.451  0.2171 -0.6261  0.9940
10911TIP3   OH254223   6.447   5.104   0.838 -0.0961 -0.0959  0.5384
10911TIP3    H154224   6.537   5.073   0.849  0.5560  0.7719 -1.9136
10911TIP3    H254225   6.439   5.176   0.901  2.2244  2.2977 -1.6733
10912TIP3   OH254226   2.719   4.083  15.930  0.0024  0.5239  0.4096
10912TIP3    H154227   2.769   4.006  15.956 -0.6919  0.2206  0.8854
10912TIP3    H254228   2.754   4.107  15.845  0.2451 -0.3036  0.2684
10913TIP3   OH254229   5.972   2.326  14.553 -0.3376  0.4032 -0.1050
10913TIP3    H154230   5.974   2.269  14.477  0.9025  0.4703 -0.1510
10913TIP3    H254231   5.962   2.266  14.628 -0.9440  0.2896 -0.2729
10914TIP3   OH254232   6.695   2.085   5.618 -0.0241 -0.1616 -0.2598
10914TIP3    H154233   6.692   2.123   5.530  0.3060  0.5644  0.0304
10914TIP3    H254234   6.604   2.087   5.648 -0.1029 -0.2000 -0.5025
10915TIP3   OH254235   1.338   5.974  11.815 -0.7030  0.2886 -0.0207
10915TIP3    H154236   1.248   5.944  11.808 -1.5160  2.2405  1.1451
10915TIP3    H254237   1.335   6.045  11.880  1.6879  0.3460  0.1311
10916TIP3   OH254238   4.152   2.738  12.076  0.4897  0.4576 -0.1358
10916TIP3    H154239   4.058   2.721  12.077 -0.4907  4.1050 -3.5202
10916TIP3    H254240   4.180   2.709  11.990  2.1105  0.8420  0.2350
10917TIP3   OH254241   3.959   4.689   2.809 -0.4720  0.2638 -0.1154
10917TIP3    H154242   3.958   4.595   2.793 -1.9554  0.4562 -1.3778
10917TIP3    H254243   3.918   4.699   2.895  0.9474 -0.3009  0.6611
10918TIP3   OH254244   4.022   5.500   3.714 -0.3859 -0.8214 -0.0107
10918TIP3    H154245   3.990   5.565   3.777  0.5280  1.4056 -1.7043
10918TIP3    H254246   3.943   5.470   3.668 -0.7979 -0.7350  0.6337
10919TIP3   OH254247   0.546   3.135  13.540  0.2451  0.1379  0.3043
10919TIP3    H154248   0.609   3.064  13.550  0.2696 -0.0967 -1.2106
10919TIP3    H254249   0.461   3.093  13.555  0.3365  0.0317  0.5204
10920TIP3   OH254250   1.708   6.321   4.209  0.4587  0.4731  0.5104
10920TIP3    H154251   1.630   6.264   4.207  1.9097 -1.6279  0.9005
10920TIP3    H254252   1.708   6.358   4.297 -0.4477  1.0390  0.2915
10921TIP3   OH254253   3.992   3.609   5.877 -0.1889 -0.0329 -0.0850
10921TIP3    H154254   3.999   3.604   5.972  0.2228  1.0179 -0.0422
10921TIP3    H254255   3.898   3.609   5.860 -0.3205  1.4274  0.4598
10922TIP3   OH254256   6.352   0.903  14.872  0.1764 -0.1744  0.3176
10922TIP3    H154257   6.304   0.866  14.946  0.6121  0.0379  0.7118
10922TIP3    H254258   6.360   0.996  14.893  1.4588 -0.3348  0.6703
10923TIP3   OH254259   4.734   5.452   1.148 -0.7545  0.0280  0.4464
10923TIP3    H154260   4.651   5.499   1.145 -0.2628  1.1461  2.3404
10923TIP3    H254261   4.720   5.381   1.210 -0.3358  0.1749  0.7172
10924TIP3   OH254262   4.154   5.654  11.887 -0.2364  0.4555  0.4562
10924TIP3    H154263   4.074   5.606  11.866  1.4651 -2.5084  0.0440
10924TIP3    H254264   4.146   5.674  11.980 -1.4710  0.2401  0.4132
10925TIP3   OH254265   4.161   5.517   0.172 -0.0132  0.0751 -0.0568
10925TIP3    H154266   4.103   5.453   0.213 -1.1753  0.3926 -1.1529
10925TIP3    H254267   4.214   5.551   0.244  0.7225 -2.1686  0.5400
10926TIP3   OH254268   1.999   4.109  11.868 -0.2351 -0.4950  0.2546
10926TIP3    H154269   2.012   4.138  11.958 -0.2267  0.7490 -0.1253
10926TIP3    H254270   1.995   4.191  11.817  3.2354 -1.1699 -1.3949
10927TIP3   OH254271   4.334   2.403  10.986 -0.1202 -0.0651 -0.2707
10927TIP3    H154272   4.256   2.347  10.992 -0.3729  0.4513  2.9503
10927TIP3    H254273   4.301   2.489  10.961 -0.0140 -0.6541 -2.7586
10928TIP3   OH254274   2.407   1.851  15.218  0.2709 -0.3101 -0.3338
10928TIP3    H154275   2.462   1.778  15.247 -0.6196 -0.8039  0.1667
10928TIP3    H254276   2.326   1.810  15.189 -0.9680  0.5457  1.6313
10929TIP3   OH254277   6.128   5.278   0.128 -0.1337 -0.2014  0.2198
10929TIP3    H154278   6.172   5.201   0.094  1.3786  1.4659 -1.8841
10929TIP3    H254279   6.137   5.271   0.223  1.1646 -1.9025  0.0167
10930TIP3   OH254280   2.239   3.802  15.070  0.3033  1.3767 -0.3920
10930TIP3    H154281   2.321   3.787  15.117  0.2344  1.4227 -0.2574
10930TIP3    H254282   2.239   3.735  15.001 -1.1696 -0.9844  1.7065
10931TIP3   OH254283   5.150   4.464   4.095  0.8145  1.0931  0.1044
10931TIP3    H154284   5.176   4.417   4.016  1.7506 -2.3196  2.2503
10931TIP3    H254285   5.215   4.534   4.104  2.2451 -0.0681 -0.7804
10932TIP3   OH254286   6.334   0.390   1.544 -0.0015  0.2756 -0.0476
10932TIP3    H154287   6.366   0.451   1.477 -1.3662  0.4776 -0.5421
10932TIP3    H254288   6.401   0.391   1.612  1.2057  0.4166 -1.1965
10933TIP3   OH254289   6.538   5.256  13.907 -0.3665  0.5527 -0.0048
10933TIP3    H154290   6.501   5.315  13.973  0.5093  0.3383  0.6944
10933TIP3    H254291   6.571   5.181  13.958 -0.1019  0.1652 -0.7323
10934TIP3   OH254292   5.783   6.531   4.499  0.0372  0.2337  0.9018
10934TIP3    H154293   5.764   6.605   4.556 -2.5780  0.2727  0.1100
10934TIP3    H254294   5.702   6.479   4.499  1.3523 -1.9465  0.4145
10935TIP3   OH254295   4.539   2.661  14.578 -0.2837 -0.0263  0.2877
10935TIP3    H154296   4.543   2.654  14.674 -1.3156  0.7723  0.3997
10935TIP3    H254297   4.623   2.625  14.549 -1.6193 -4.6448  1.2147
10936TIP3   OH254298   2.239   4.647   4.720 -0.5112 -0.6385 -0.4213
10936TIP3    H154299   2.144   4.631   4.721 -0.4480 -1.0071  0.6302
10936TIP3    H254300   2.266   4.638   4.811  0.2598  1.3065 -0.4097
10937TIP3   OH254301   3.977   0.450   5.611  0.5701  0.3464 -0.3244
10937TIP3    H154302   3.990   0.538   5.576  0.6785 -0.4586 -2.4651
10937TIP3    H254303   4.055   0.402   5.584  0.3671 -0.5085  0.5496
10938TIP3   OH254304   0.864   0.782  13.818  0.2828 -0.0513 -0.8112
10938TIP3    H154305   0.866   0.724  13.894  0.0961  0.5419 -0.3469
10938TIP3    H254306   0.886   0.725  13.744 -1.7113 -1.1282 -0.6323
10939TIP3   OH254307   3.045   4.903   1.098  0.6162  0.0767 -0.1497
10939TIP3    H154308   3.095   4.850   1.159 -0.3973 -1.8785 -0.9212
10939TIP3    H254309   3.058   4.861   1.013 -1.0996  0.3796 -0.6098
10940TIP3   OH254310   2.315   6.436  15.107 -0.0226  0.1925  0.1614
10940TIP3    H154311   2.330   6.510  15.048  0.2787 -1.1676 -1.5527
10940TIP3    H254312   2.400   6.420  15.147  0.6793 -0.9152 -1.6072
10941TIP3   OH254313   5.533   6.056   4.449 -0.0865 -0.3697 -0.0358
10941TIP3    H154314   5.477   6.112   4.397  0.1404 -0.1873 -0.0873
10941TIP3    H254315   5.483   5.975   4.461 -1.1849  0.5006  1.5808
10942TIP3   OH254316   1.092   4.774   5.173 -0.0478  0.3480 -0.6928
10942TIP3    H154317   1.031   4.714   5.131 -0.4824  2.3295 -3.1496
10942TIP3    H254318   1.172   4.768   5.121  0.0738  1.4673 -0.6664
10943TIP3   OH254319   0.374   6.571   4.422  0.0464 -0.1210  0.2059
10943TIP3    H154320   0.341   6.503   4.481 -1.1248 -0.6590 -1.0184
10943TIP3    H254321   0.309   6.576   4.352  1.1370  0.8536 -0.7870
10944TIP3   OH254322   6.384   4.279  14.653 -0.1682  0.1713  0.3021
10944TIP3    H154323   6.436   4.328  14.589 -0.8433 -0.1949 -0.5378
10944TIP3    H254324   6.294   4.293  14.626 -0.4363 -0.3627  0.9151
10945TIP3   OH254325   1.709   2.251   3.983  0.5346  0.1319 -0.0156
10945TIP3    H154326   1.766   2.311   4.032  0.6134  0.5141 -0.5763
10945TIP3    H254327   1.769   2.193   3.936  0.4943 -1.4639  1.7703
10946TIP3   OH254328   1.973   4.495  11.548 -0.5050 -0.1456 -0.0647
10946TIP3    H154329   2.002   4.494  11.457 -0.2629  0.5608 -0.0018
10946TIP3    H254330   2.028   4.430  11.592 -1.1190 -1.0300 -0.5599
10947TIP3   OH254331   3.228   4.804   2.065  0.2154  0.2543  0.2071
10947TIP3    H154332   3.187   4.784   2.150  0.4402  1.4056  0.5979
10947TIP3    H254333   3.291   4.733   2.052  1.8639  1.2708  2.1412
10948TIP3   OH254334   0.250   6.265  16.842  0.1230  0.1402 -0.8501
10948TIP3    H154335   0.210   6.286  16.926  0.8406  0.9383 -0.6963
10948TIP3    H254336   0.180   6.280  16.778  0.1589  1.5654 -0.5940
10949TIP3   OH254337   1.469   1.250  16.243  0.2184  0.7081  0.0501
10949TIP3    H154338   1.427   1.296  16.316  0.6953  0.6668  0.3485
10949TIP3    H254339   1.438   1.160  16.251  1.9780  0.1877  1.5175
10950TIP3   OH254340   1.312   3.087  12.281 -0.1420  0.3752 -0.3470
10950TIP3    H154341   1.320   3.010  12.224 -0.5219  1.0188 -1.2862
10950TIP3    H254342   1.226   3.122  12.262  0.1032  1.1406 -0.0631
10951TIP3   OH254343   4.971   4.775  11.955  0.0145 -0.0859 -0.2731
10951TIP3    H154344   5.047   4.794  12.010 -0.3943 -1.0254  0.6365
10951TIP3    H254345   4.998   4.699  11.903  0.0206  0.1467 -0.6115
10952TIP3   OH254346   3.199   0.927  12.561  0.3403  0.1568 -1.3030
10952TIP3    H154347   3.216   0.951  12.652  0.2170  0.4064 -1.3459
10952TIP3    H254348   3.222   0.834  12.556 -1.6055 -0.4210 -0.4997
10953TIP3   OH254349   6.187   1.233   4.769 -0.5589  0.2547 -0.3118
10953TIP3    H154350   6.125   1.161   4.780  0.5473 -0.6320  0.2644
10953TIP3    H254351   6.175   1.287   4.847  1.6935 -1.7508  1.5991
10954TIP3   OH254352   3.796   3.340  13.006 -0.0361  0.5188  0.8465
10954TIP3    H154353   3.863   3.296  13.058  0.2736  0.4557  0.4075
10954TIP3    H254354   3.843   3.413  12.964 -0.7762  2.0175  2.4666
10955TIP3   OH254355   3.932   1.616   4.240 -0.3012  0.0738 -0.0283
10955TIP3    H154356   4.009   1.569   4.208 -0.0021  2.0386 -2.4614
10955TIP3    H254357   3.915   1.683   4.174 -3.9010 -0.0112  0.5801
10956TIP3   OH254358   4.155   0.188  12.323 -0.1741  0.8241  0.1007
10956TIP3    H154359   4.163   0.249  12.250  0.5302  2.5049  1.5100
10956TIP3    H254360   4.233   0.203  12.376 -0.4683 -0.6323  1.0158
10957TIP3   OH254361   2.964   0.475  15.265 -0.2755  0.2043 -0.1931
10957TIP3    H154362   2.908   0.478  15.343 -0.2873 -2.1492 -0.0379
10957TIP3    H254363   3.051   0.453  15.299  0.4168  2.0762 -0.6117
10958TIP3   OH254364   1.433   5.667   1.007 -0.0378 -0.3241  0.1699
10958TIP3    H154365   1.366   5.683   0.940 -0.5914 -0.3680  0.7048
10958TIP3    H254366   1.515   5.663   0.958 -0.1078  2.0860 -0.2601
10959TIP3   OH254367   0.495   5.696   4.391 -0.3216 -0.0613 -0.0168
10959TIP3    H154368   0.583   5.659   4.387 -0.5219 -0.4595 -1.3719
10959TIP3    H254369   0.438   5.626   4.357 -0.6599  1.4946 -3.0637
10960TIP3   OH254370   3.687   3.051  13.292  0.8536  0.8677 -0.4415
10960TIP3    H154371   3.725   3.139  13.295  1.9196  0.5398 -2.3119
10960TIP3    H254372   3.720   3.008  13.371  0.5975  2.0207  0.3205
10961TIP3   OH254373   3.564   4.420   1.868 -0.2554  0.1075 -0.4552
10961TIP3    H154374   3.645   4.458   1.901 -0.7246  0.8008 -0.0879
10961TIP3    H254375   3.549   4.343   1.924  0.0999  0.0213 -0.4757
10962TIP3   OH254376   6.414   1.239  11.869 -0.0774  0.5364 -0.1854
10962TIP3    H154377   6.464   1.185  11.931 -0.7557  0.8583  0.6466
10962TIP3    H254378   6.400   1.181  11.794 -0.6623 -0.4176  0.6301
10963TIP3   OH254379   6.174   0.742  12.589  0.4067  0.4217  0.0332
10963TIP3    H154380   6.237   0.685  12.634  0.0879 -0.2644 -0.3673
10963TIP3    H254381   6.201   0.742  12.498  1.1101  1.8986  0.2186
10964TIP3   OH254382   1.633   5.578  14.033  0.1187 -0.4098  0.3714
10964TIP3    H154383   1.585   5.600  13.953 -1.5857 -1.0696  1.1690
10964TIP3    H254384   1.605   5.643  14.097  1.8360  0.4058  0.3492
10965TIP3   OH254385   3.740   5.302   1.217 -0.2835  0.0747 -0.3339
10965TIP3    H154386   3.827   5.284   1.252  0.2916  0.3961 -1.5284
10965TIP3    H254387   3.712   5.382   1.261  0.4644  0.5226 -0.6493
10966TIP3   OH254388   2.400   3.330  16.160 -0.3384 -1.0454  0.6688
10966TIP3    H154389   2.437   3.299  16.078 -0.4514  0.2799  0.0927
10966TIP3    H254390   2.367   3.251  16.203  1.6383 -2.0617  0.4473
10967TIP3   OH254391   0.728   1.505   0.563 -0.5612  0.0634  0.4020
10967TIP3    H154392   0.809   1.526   0.609 -0.3839  0.4804 -0.0908
10967TIP3    H254393   0.694   1.427   0.607 -0.8804  0.9981  1.8598
10968TIP3   OH254394   6.421   4.792   2.685 -0.1145 -0.7702 -0.9246
10968TIP3    H154395   6.340   4.844   2.689  0.6659  0.6003 -2.0752
10968TIP3    H254396   6.485   4.844   2.734  0.3939 -1.1884 -1.1410
10969TIP3   OH254397   0.802   5.367  11.778  0.2162 -0.4599 -0.6070
10969TIP3    H154398   0.888   5.356  11.737  0.4506  1.5672 -0.8004
10969TIP3    H254399   0.822   5.405  11.864 -0.4662  0.3371 -0.7832
10970TIP3   OH254400   3.913   3.453  11.525 -0.6584 -0.3370 -0.6847
10970TIP3    H154401   3.965   3.478  11.449  0.3819 -0.7768 -0.1345
10970TIP3    H254402   3.928   3.523  11.588  0.6793 -1.3307  0.1248
10971TIP3   OH254403   2.245   2.328   0.800  0.5910  0.4482 -0.0908
10971TIP3    H154404   2.229   2.281   0.882  1.1788 -0.4073 -0.4648
10971TIP3    H254405   2.327   2.375   0.815 -0.3476  2.0073  0.5461
10972TIP3   OH254406   0.530   2.443  12.081 -0.6395  0.3326 -0.0980
10972TIP3    H154407   0.596   2.432  12.150 -0.8169 -2.8641 -0.3140
10972TIP3    H254408   0.565   2.395  12.006 -0.6780  3.3223 -2.2200
10973TIP3   OH254409   6.153   1.386  12.193 -0.5135 -0.0347  0.8957
10973TIP3    H154410   6.096   1.440  12.138 -1.1081 -0.4778  1.0690
10973TIP3    H254411   6.234   1.436  12.199 -0.4000 -0.0220 -0.4681
10974TIP3   OH254412   1.557   3.060  11.623 -0.2344 -0.0788  0.0612
10974TIP3    H154413   1.649   3.083  11.631 -0.0853 -0.1189 -1.4120
10974TIP3    H254414   1.513   3.115  11.689  0.9708 -1.1510  1.8495
10975TIP3   OH254415   4.208   2.409  12.323  0.5119  0.5051 -0.6983
10975TIP3    H154416   4.243   2.494  12.295 -0.3350  0.6065 -1.4760
10975TIP3    H254417   4.126   2.400  12.275 -1.0272  0.6711  1.7628
10976TIP3   OH254418   3.764   3.989  15.187 -0.1008 -0.5991  0.0876
10976TIP3    H154419   3.815   4.069  15.204 -1.9128  0.9520 -1.3101
10976TIP3    H254420   3.715   3.974  15.268  0.8776 -0.8140  0.6543
10977TIP3   OH254421   6.617   3.111  17.146  0.2968  0.5582 -0.1723
10977TIP3    H154422   6.709   3.091  17.133  0.0455 -0.8083  0.0465
10977TIP3    H254423   6.613   3.147  17.235  0.4802 -0.4194  0.2442
10978TIP3   OH254424   0.572   1.938  11.304  0.0134  0.1447 -0.5247
10978TIP3    H154425   0.482   1.904  11.295 -0.3281  0.6427  0.7785
10978TIP3    H254426   0.626   1.876  11.254 -1.0794  0.0191 -1.6038
10979TIP3   OH254427   4.647   1.919   0.641  0.0487  0.0449 -0.0597
10979TIP3    H154428   4.570   1.958   0.682 -1.3589 -2.0642 -0.5645
10979TIP3    H254429   4.697   1.882   0.713  0.7104  1.5294  0.2826
10980TIP3   OH254430   2.833   4.622   0.445 -0.6249  0.0155 -0.0364
10980TIP3    H154431   2.830   4.569   0.524 -2.1071  0.9751  0.5924
10980TIP3    H254432   2.912   4.675   0.454 -0.4838 -0.2841  0.5298
10981TIP3   OH254433   0.257   4.035  10.905  0.1589 -0.3501 -0.0364
10981TIP3    H154434   0.259   4.106  10.840  2.6586  0.6257  0.9789
10981TIP3    H254435   0.195   4.065  10.971 -2.5172 -1.4116 -1.9193
10982TIP3   OH254436   4.888   4.815  17.243  0.0852  0.1862  0.7898
10982TIP3    H154437   4.903   4.798  17.150  0.5640 -0.5612  0.9887
10982TIP3    H254438   4.976   4.823  17.281 -0.1088  0.6525  1.1466
10983TIP3   OH254439   5.480   5.742   0.516 -0.0410 -0.1990 -0.5060
10983TIP3    H154440   5.467   5.648   0.503 -1.4123 -0.0147 -0.6478
10983TIP3    H254441   5.548   5.766   0.453  1.3972 -1.3337  0.5300
10984TIP3   OH254442   2.353   3.624   4.680  0.1540 -0.4213 -0.1608
10984TIP3    H154443   2.311   3.675   4.610 -0.5493 -0.9798 -0.1500
10984TIP3    H254444   2.301   3.642   4.758 -1.1857 -2.4952 -0.5121
10985TIP3   OH254445   1.823   0.704   5.308 -0.4973 -0.4496 -0.9066
10985TIP3    H154446   1.884   0.776   5.321  0.8132 -1.2317 -2.4864
10985TIP3    H254447   1.751   0.723   5.368  0.4222  1.4674 -0.3430
10986TIP3   OH254448   1.419   0.159  12.851  0.5868 -0.4329 -0.0416
10986TIP3    H154449   1.397   0.159  12.758 -1.1082 -0.5693  0.3136
10986TIP3    H254450   1.481   0.086  12.861  1.5808  0.2228 -1.1996
10987TIP3   OH254451   2.719   3.311  11.187  0.7224 -0.6443  0.0825
10987TIP3    H154452   2.664   3.345  11.117  1.1433  0.5772  0.3089
10987TIP3    H254453   2.665   3.246  11.231 -0.6922  0.7527  0.5112
10988TIP3   OH254454   4.373   1.488   4.750 -0.2517 -0.0772 -0.1180
10988TIP3    H154455   4.383   1.557   4.815  2.2673  0.2225 -0.7002
10988TIP3    H254456   4.304   1.519   4.692  1.4930  2.5481 -0.9884
10989TIP3   OH254457   4.262   1.010  16.501  0.0611 -0.0973 -0.9439
10989TIP3    H154458   4.324   0.959  16.449 -1.5050 -3.3064  0.1055
10989TIP3    H254459   4.178   1.000  16.455 -0.3611  1.3848 -0.5519
10990TIP3   OH254460   6.685   3.417  12.848  0.1495 -0.7057  0.2903
10990TIP3    H154461   6.707   3.327  12.871 -1.8753 -1.6579 -1.1742
10990TIP3    H254462   6.734   3.434  12.767  0.8107 -0.3555  0.7612
10991TIP3   OH254463   1.724   5.470   4.713  0.0993  0.6168  0.0786
10991TIP3    H154464   1.776   5.430   4.783 -0.4926 -1.7851 -0.7618
10991TIP3    H254465   1.783   5.533   4.672  0.9091  1.0660  1.8224
10992TIP3   OH254466   3.071   5.086   6.180  0.0594 -0.2335  0.9698
10992TIP3    H154467   3.107   5.061   6.265 -0.8225 -0.7181  1.2099
10992TIP3    H254468   2.996   5.142   6.201  2.0075  2.7882  0.4645
10993TIP3   OH254469   3.596   1.052  15.367 -0.2325 -0.0615  0.1023
10993TIP3    H154470   3.565   1.123  15.423 -1.1923 -1.9034  2.0262
10993TIP3    H254471   3.522   0.991  15.363  0.1776 -0.4968 -2.3816
10994TIP3   OH254472   1.145   0.581   3.119  0.1194  0.3682  0.1799
10994TIP3    H154473   1.233   0.616   3.133 -0.9765  2.8379  1.4765
10994TIP3    H254474   1.100   0.594   3.203 -1.4709 -0.9841 -0.3965
10995TIP3   OH254475   3.152   0.885   6.101  0.0670  0.7696 -0.2626
10995TIP3    H154476   3.171   0.937   6.023  1.2533 -0.3086 -0.7395
10995TIP3    H254477   3.178   0.940   6.174  0.6256  1.1339 -0.7247
10996TIP3   OH254478   1.402   0.051   6.474  0.1979  0.3151  0.0828
10996TIP3    H154479   1.372   0.024   6.561  0.4110 -0.5019 -0.0876
10996TIP3    H254480   1.401   0.146   6.477  0.4624  0.3003  1.0751
10997TIP3   OH254481   5.134   0.835  16.918  0.0631 -0.1358 -0.2358
10997TIP3    H154482   5.194   0.882  16.860  0.3255  0.6614  0.6414
10997TIP3    H254483   5.051   0.833  16.871 -0.2266  2.0956  0.0675
10998TIP3   OH254484   6.689   6.530   6.407  0.4818  0.4447  0.3452
10998TIP3    H154485   6.778   6.553   6.382 -0.0654  1.2116 -1.0184
10998TIP3    H254486   6.682   6.436   6.387  0.9589  0.3989  0.3899
10999TIP3   OH254487   4.130   0.104  15.419  0.4943 -0.2644 -0.0463
10999TIP3    H154488   4.170   0.027  15.378  0.6127 -0.6102  0.7023
10999TIP3    H254489   4.048   0.072  15.455 -0.1998  0.3131 -1.0679
11000TIP3   OH254490   6.032   0.856   6.153 -0.5259 -0.0595 -0.0009
11000TIP3    H154491   6.083   0.925   6.195 -0.8705 -0.1448  0.5667
11000TIP3    H254492   5.941   0.882   6.165 -0.6936 -0.9569  0.8491
11001TIP3   OH254493   4.413   3.601  14.024 -0.0772  0.1749 -0.3217
11001TIP3    H154494   4.475   3.579  14.093 -0.2871  0.0697 -0.1633
11001TIP3    H254495   4.379   3.516  13.995  1.3179  0.0697 -1.8031
11002TIP3   OH254496   4.335   0.185  12.763 -0.1163 -0.2058 -0.8133
11002TIP3    H154497   4.245   0.153  12.773  0.3659 -1.5753 -0.7674
11002TIP3    H254498   4.333   0.273  12.802 -0.5285 -1.6767  2.9101
11003TIP3   OH254499   1.986   3.801  15.512 -0.0731 -0.2189 -0.0094
11003TIP3    H154500   1.928   3.748  15.457 -1.3117  0.7730  0.2952
11003TIP3    H254501   2.004   3.746  15.588  1.4685 -1.5133 -1.2367
11004TIP3   OH254502   4.903   6.472  15.220  0.3479 -0.6129 -0.2622
11004TIP3    H154503   4.887   6.427  15.303  1.3051 -0.0634  0.2300
11004TIP3    H254504   4.968   6.418  15.175  1.5519  0.2843  0.3595
11005TIP3   OH254505   2.967   1.310  11.619 -0.3841  0.2865  0.1502
11005TIP3    H154506   2.943   1.240  11.679  0.3972 -0.1757 -0.0663
11005TIP3    H254507   2.989   1.265  11.537  2.4352  0.4954  0.6654
11006TIP3   OH254508   3.907   0.007   2.170  0.4718  0.4042  0.1487
11006TIP3    H154509   3.936  -0.013   2.081  1.3518 -1.7386  0.8411
11006TIP3    H254510   3.815  -0.018   2.171  0.7779 -0.7872  0.1466
11007TIP3   OH254511   5.035   5.505  11.379 -0.2541  0.4350 -1.0811
11007TIP3    H154512   4.972   5.482  11.311  0.2208 -0.4419 -1.2549
11007TIP3    H254513   5.003   5.461  11.458  0.3562 -0.3849 -1.2749
11008TIP3   OH254514   2.492   5.093  15.906  0.1261 -0.6255 -0.3025
11008TIP3    H154515   2.564   5.155  15.921 -0.3030 -0.5396  1.6421
11008TIP3    H254516   2.482   5.047  15.989 -3.1522  0.5096  0.0818
11009TIP3   OH254517   3.714   6.324  14.252  0.7055 -0.0200 -0.4021
11009TIP3    H154518   3.792   6.376  14.273  1.8318 -2.1359  0.9302
11009TIP3    H254519   3.657   6.335  14.328  0.3553  0.3223 -0.7119
11010TIP3   OH254520   5.271   5.899   0.322 -0.1826  0.1823 -0.4798
11010TIP3    H154521   5.359   5.892   0.285  0.5135  1.5323  0.8478
11010TIP3    H254522   5.283   5.938   0.408 -1.9951 -0.5947  0.1832
11011TIP3   OH254523   6.577   4.734  11.652 -0.4567  0.0606  0.3351
11011TIP3    H154524   6.631   4.804  11.690  0.8458 -0.2122 -0.9302
11011TIP3    H254525   6.551   4.769  11.567  0.7354 -1.2007 -0.5862
11012TIP3   OH254526   6.619   0.240   0.565 -0.6908  0.4513 -0.5884
11012TIP3    H154527   6.631   0.174   0.496 -0.9806  0.7142 -0.8923
11012TIP3    H254528   6.532   0.278   0.547 -0.0369  1.7517 -1.1309
11013TIP3   OH254529   4.581   1.829   4.343  0.0498 -0.4381  0.1387
11013TIP3    H154530   4.614   1.766   4.279 -0.0371 -0.7613  0.4065
11013TIP3    H254531   4.556   1.906   4.291  2.8234  0.5289  0.0715
11014TIP3   OH254532   5.794   4.368   2.936 -0.0230 -0.3484  0.4940
11014TIP3    H154533   5.790   4.383   3.030  1.0328  0.0524  0.4939
11014TIP3    H254534   5.711   4.325   2.915  0.1531 -1.3964  1.7825
11015TIP3   OH254535   5.177   6.361  17.089  0.3120 -0.4750  0.2374
11015TIP3    H154536   5.236   6.285  17.087  0.1503 -0.6560  1.6807
11015TIP3    H254537   5.236   6.437  17.090  0.4852 -0.4601 -2.6082
11016TIP3   OH254538   1.989   4.020   0.890 -0.3958 -0.1551  0.1788
11016TIP3    H154539   2.048   4.031   0.964  3.0142  0.6859 -2.4389
11016TIP3    H254540   1.977   3.925   0.883 -0.6316 -0.2580  1.6292
11017TIP3   OH254541   1.298   3.775   1.029 -0.5212 -0.6455 -0.0680
11017TIP3    H154542   1.277   3.699   0.974 -0.7287 -0.3719 -0.3712
11017TIP3    H254543   1.231   3.774   1.098 -1.1905 -0.1157 -0.6948
11018TIP3   OH254544   1.523   5.816  12.502  0.5500  0.5150  0.0992
11018TIP3    H154545   1.517   5.901  12.545  2.0519  0.9025 -0.3908
11018TIP3    H254546   1.550   5.755  12.571 -2.2067  0.0062  0.8692
11019TIP3   OH254547   2.533   4.440   4.122  0.0507  0.0230 -0.3741
11019TIP3    H154548   2.539   4.533   4.104  0.8588  0.1997  0.7059
11019TIP3    H254549   2.507   4.434   4.214 -2.9497 -0.8383 -1.1571
11020TIP3   OH254550   3.828   2.024  12.207  0.6913 -0.0569  0.3359
11020TIP3    H154551   3.814   2.080  12.130  0.9557 -2.7459 -1.8085
11020TIP3    H254552   3.911   1.980  12.190  0.5898 -0.9677  2.0280
11021TIP3   OH254553   3.099   3.593   0.750  0.5345 -0.5708  0.2888
11021TIP3    H154554   3.109   3.540   0.829  1.3200 -0.2674  0.4018
11021TIP3    H254555   3.081   3.681   0.783 -0.9011 -0.7691  0.1029
11022TIP3   OH254556   0.087   6.496  14.616 -0.4935 -0.2460  0.3555
11022TIP3    H154557   0.080   6.490  14.711  0.5591 -0.7645  0.4114
11022TIP3    H254558   0.120   6.584  14.600 -0.5104 -0.2157  0.4844
11023TIP3   OH254559   1.484   2.155  11.187 -0.4088 -0.4587 -0.5346
11023TIP3    H154560   1.416   2.204  11.233 -0.4880  1.3869 -2.4516
11023TIP3    H254561   1.489   2.197  11.101  2.2127 -1.4296 -0.9332
11024TIP3   OH254562   2.673   0.900   4.032  0.7113 -0.0442  0.6412
11024TIP3    H154563   2.643   0.846   3.959  0.4592  0.5593  0.2874
11024TIP3    H254564   2.769   0.900   4.024  0.9008 -2.3633  2.0545
11025TIP3   OH254565   4.475   6.025   2.348 -0.0124  0.0993  0.1224
11025TIP3    H154566   4.476   5.977   2.432  1.2394  1.5961  1.0066
11025TIP3    H254567   4.566   6.025   2.320 -0.3944 -0.1842 -1.1477
11026TIP3   OH254568   0.844   5.211  11.471 -0.1961  0.2895 -0.1768
11026TIP3    H154569   0.791   5.155  11.528 -0.5201  0.5897 -0.1725
11026TIP3    H254570   0.828   5.178  11.383  0.9296 -0.6849 -0.0462
11027TIP3   OH254571   1.048   5.637  11.631  0.2092  0.0544 -0.1013
11027TIP3    H154572   1.016   5.547  11.622 -0.0679  0.1036  0.3886
11027TIP3    H254573   1.143   5.628  11.638  0.1161 -0.2748  0.8720
11028TIP3   OH254574   2.612   0.814   4.841 -0.0315 -0.3627 -0.2096
11028TIP3    H154575   2.545   0.790   4.905 -0.8814  3.0654  0.3958
11028TIP3    H254576   2.686   0.845   4.894 -0.1529  1.0519 -0.8038
11029TIP3   OH254577   6.188   5.430  11.375  0.4751  0.4886  0.1574
11029TIP3    H154578   6.263   5.394  11.421  1.4151 -0.7967 -2.2223
11029TIP3    H254579   6.225   5.467  11.294 -1.4808 -0.8503 -1.4453
11030TIP3   OH254580   3.677   0.338  12.808 -0.0956  0.2802  0.4467
11030TIP3    H154581   3.649   0.334  12.716 -0.8986  0.3771  0.6747
11030TIP3    H254582   3.690   0.247  12.834 -0.0944  0.2401  0.3037
11031TIP3   OH254583   3.444   6.578   6.186 -0.2923  0.0011 -0.7629
11031TIP3    H154584   3.451   6.661   6.232 -0.2231 -0.3085 -0.1998
11031TIP3    H254585   3.512   6.581   6.119 -0.0262  0.2323 -0.4816
11032TIP3   OH254586   5.803   2.481  14.360 -0.7321  0.1524  0.1112
11032TIP3    H154587   5.777   2.479  14.452 -0.0871  1.8204  0.3696
11032TIP3    H254588   5.892   2.515  14.362 -0.5246 -0.2840 -1.1120
11033TIP3   OH254589   2.508   5.421  17.016 -0.0516  0.2305  0.5553
11033TIP3    H154590   2.445   5.352  17.039 -0.8822  0.0300 -2.0043
11033TIP3    H254591   2.566   5.381  16.951 -1.7418  2.3137 -2.5075
11034TIP3   OH254592   0.462   2.197   2.631 -0.1798  0.3253  0.0991
11034TIP3    H154593   0.390   2.213   2.691  0.0142  0.3407  0.3267
11034TIP3    H254594   0.527   2.150   2.683  0.4131  1.2158  0.1820
11035TIP3   OH254595   3.879   1.644  17.161  0.3307  0.0512  0.1810
11035TIP3    H154596   3.957   1.640  17.106  1.0605  0.1621  1.1775
11035TIP3    H254597   3.809   1.606  17.107  0.9356  0.4792 -0.9354
11036TIP3   OH254598   5.825   3.604   3.384  0.0686 -0.0446 -0.0166
11036TIP3    H154599   5.809   3.512   3.405  0.4890 -0.2485 -0.5744
11036TIP3    H254600   5.747   3.630   3.334  0.5090 -0.4661 -0.9611
11037TIP3   OH254601   3.679   2.441   5.483  0.2091  0.1269 -0.4123
11037TIP3    H154602   3.667   2.519   5.536 -0.3020  0.9957 -1.7661
11037TIP3    H254603   3.592   2.420   5.450  0.0826 -1.8021  0.9309
11038TIP3   OH254604   0.349   3.253   4.345 -0.0429 -0.1508  0.0105
11038TIP3    H154605   0.313   3.266   4.257  1.5074  1.4547 -0.4344
11038TIP3    H254606   0.276   3.275   4.404 -0.6175  0.3205 -0.8566
11039TIP3   OH254607   3.707   0.922  12.985 -0.0086  0.1502  0.0936
11039TIP3    H154608   3.750   1.002  13.015 -0.2173  0.8935 -1.4975
11039TIP3    H254609   3.763   0.851  13.017 -0.0823  0.8721  1.9514
11040TIP3   OH254610   0.233   2.104   0.078  0.0638 -0.4068 -0.2629
11040TIP3    H154611   0.145   2.122   0.111  0.9073 -1.7772  3.2027
11040TIP3    H254612   0.288   2.169   0.122  1.0784 -1.2446 -0.2631
11041TIP3   OH254613   5.958   5.081  11.499  0.0291  0.5008  0.0779
11041TIP3    H154614   5.911   5.000  11.477 -0.6521  0.2981  2.0839
11041TIP3    H254615   6.046   5.069  11.463 -0.0724 -1.1172  0.3227
11042TIP3   OH254616   6.784   1.867  15.276 -0.2346  0.4997  0.2295
11042TIP3    H154617   6.784   1.792  15.217  0.6566  0.0931  0.7208
11042TIP3    H254618   6.875   1.897  15.275 -0.7587  2.1792 -0.7008
11043TIP3   OH254619   1.396   5.818   0.476 -0.2848  0.7361  0.2170
11043TIP3    H154620   1.392   5.898   0.527 -3.3428  0.1314  1.1410
11043TIP3    H254621   1.324   5.826   0.413 -0.2563 -0.9895 -0.0956
11044TIP3   OH254622   5.930   3.072   6.438 -0.6082 -0.1115 -0.0559
11044TIP3    H154623   5.906   3.090   6.348 -1.3695 -0.1369  0.1330
11044TIP3    H254624   5.897   2.983   6.454  2.0922 -1.3226 -0.6376
11045TIP3   OH254625   0.487   3.810   2.230  0.8182  0.0827  0.3790
11045TIP3    H154626   0.398   3.819   2.264  0.5434 -0.7588 -0.0942
11045TIP3    H254627   0.533   3.757   2.295 -0.2284 -3.1782 -1.3518
11046TIP3   OH254628   0.257   3.789  10.998  0.1602  0.2303  0.2800
11046TIP3    H154629   0.284   3.718  10.940  1.1262 -0.4018  1.4617
11046TIP3    H254630   0.245   3.864  10.939  2.9106  0.1060 -0.5868
11047TIP3   OH254631   0.230   4.295   4.783 -0.4053  0.0349  0.1326
11047TIP3    H154632   0.300   4.280   4.846  0.3555  0.1633 -0.6613
11047TIP3    H254633   0.252   4.379   4.742 -0.5093 -0.3700 -0.7776
11048TIP3   OH254634   6.300   2.628  11.279 -0.0351  0.1141  0.0757
11048TIP3    H154635   6.355   2.642  11.356 -1.1628 -0.0689  0.9575
11048TIP3    H254636   6.359   2.636  11.205  0.9522  1.0467  0.9273
11049TIP3   OH254637   4.489   0.449   3.189  0.0338  0.6856 -0.0585
11049TIP3    H154638   4.570   0.425   3.234 -0.2957 -1.7541 -0.6154
11049TIP3    H254639   4.517   0.507   3.118  1.3740 -0.4685 -0.5249
11050TIP3   OH254640   1.233   6.089   1.521  0.1484  0.2112  0.3733
11050TIP3    H154641   1.282   6.170   1.536  1.3458 -0.0532 -1.7004
11050TIP3    H254642   1.256   6.033   1.595  1.7519  0.6912  0.2865
11051TIP3   OH254643   1.470   3.484   5.435 -0.7393 -0.1247 -0.0739
11051TIP3    H154644   1.380   3.461   5.413 -0.7248 -1.5824  1.2584
11051TIP3    H254645   1.497   3.418   5.499  1.2391  0.3518 -0.3559
11052TIP3   OH254646   5.731   6.703  16.376  0.0437 -0.3635  0.0341
11052TIP3    H154647   5.770   6.718  16.462 -0.1863 -0.0664  0.0910
11052TIP3    H254648   5.653   6.649  16.394 -0.6376  0.6362  0.1512
11053TIP3   OH254649   3.224   1.967  17.188 -0.8479  0.2011  0.3293
11053TIP3    H154650   3.163   2.017  17.133 -2.0438  1.4240  2.6465
11053TIP3    H254651   3.291   2.030  17.214 -0.1397 -0.4363  0.0982
11054TIP3   OH254652   3.860   5.998  16.952 -0.0499 -0.2150  0.6711
11054TIP3    H154653   3.900   5.913  16.969  0.3348  0.2642  2.2546
11054TIP3    H254654   3.772   5.990  16.987 -0.3941 -0.3019 -0.1824
11055TIP3   OH254655   5.861   4.020   2.680  0.0456 -0.2520  0.5115
11055TIP3    H154656   5.895   4.035   2.768  0.9935 -0.7517  0.2457
11055TIP3    H254657   5.938   4.023   2.623 -0.6912  1.2729 -0.4847
11056TIP3   OH254658   5.670   4.137  11.938  0.2070 -0.7235 -0.3676
11056TIP3    H154659   5.718   4.055  11.922 -1.7942 -2.2029  0.7355
11056TIP3    H254660   5.642   4.131  12.029  1.0502  1.8207  0.1219
11057TIP3   OH254661   0.007   1.323  13.177  0.1875 -0.0865  0.3342
11057TIP3    H154662  -0.015   1.415  13.188  1.0482  0.1007  0.5674
11057TIP3    H254663   0.094   1.314  13.217  0.3028 -0.8999 -0.0758
11058TIP3   OH254664   5.971   1.588  14.291  0.2913 -0.2759 -0.0924
11058TIP3    H154665   6.057   1.606  14.253 -0.1299 -0.7367 -1.3030
11058TIP3    H254666   5.990   1.547  14.375  1.2556  1.6514  0.7098
11059TIP3   OH254667   1.964   5.717   1.059 -0.3411  1.0350  0.3973
11059TIP3    H154668   1.913   5.783   1.012 -1.7411 -0.6022 -0.4886
11059TIP3    H254669   2.047   5.712   1.011 -0.2418  2.0460  0.4273
11060TIP3   OH254670   0.320   4.246   1.545  0.3451  0.0063  0.0815
11060TIP3    H154671   0.409   4.265   1.575  0.4095  0.2332 -0.2361
11060TIP3    H254672   0.327   4.246   1.449 -0.1099  0.6185  0.0368
11061TIP3   OH254673   4.667   4.641   6.178 -0.4125 -0.1603  0.3945
11061TIP3    H154674   4.723   4.719   6.188  0.4214 -0.8250  1.0877
11061TIP3    H254675   4.686   4.588   6.256 -1.0304 -1.0186 -0.0261
11062TIP3   OH254676   2.917   0.486  12.182 -0.6669 -0.1798  0.6351
11062TIP3    H154677   2.996   0.468  12.132 -0.7335  1.2452 -0.0360
11062TIP3    H254678   2.851   0.427  12.146 -0.7777  0.9816 -1.1664
11063TIP3   OH254679   0.672   3.800  13.508 -0.1100 -0.0601 -0.3757
11063TIP3    H154680   0.748   3.858  13.510 -0.3481  0.3535 -1.9469
11063TIP3    H254681   0.601   3.852  13.546 -0.4977  1.0248 -2.4167
11064TIP3   OH254682   1.480   1.863  10.835 -0.1617 -0.3071 -0.1876
11064TIP3    H154683   1.395   1.847  10.794 -0.0477 -0.2818 -0.4351
11064TIP3    H254684   1.530   1.783  10.820 -0.4549 -0.6832  0.7619
11065TIP3   OH254685   5.556   5.746  13.436 -0.0054 -0.0929  0.5376
11065TIP3    H154686   5.550   5.651  13.422 -0.0213 -0.4164  2.4600
11065TIP3    H254687   5.646   5.760  13.466  0.1248  0.5623 -0.1606
11066TIP3   OH254688   0.522   1.954   5.801  0.0355  0.0561  0.0647
11066TIP3    H154689   0.487   1.868   5.781 -1.0470  0.2814  0.8876
11066TIP3    H254690   0.509   1.964   5.895 -1.6969  1.8896 -0.2969
11067TIP3   OH254691   6.608   0.158  13.595  0.6428  0.0012 -0.0194
11067TIP3    H154692   6.685   0.125  13.549 -0.0226 -2.2125  0.3491
11067TIP3    H254693   6.572   0.225  13.536  1.4313 -0.6971 -1.3439
11068TIP3   OH254694   1.838   6.367   3.942 -0.0419  0.3012  0.3851
11068TIP3    H154695   1.803   6.284   3.911  0.8025  0.2397 -0.4619
11068TIP3    H254696   1.820   6.368   4.036 -1.3553 -0.1803  0.1570
11069TIP3   OH254697   6.136   4.058   3.179 -0.5359 -0.1902  0.0001
11069TIP3    H154698   6.231   4.052   3.185 -0.5426 -0.8101 -0.4430
11069TIP3    H254699   6.105   4.041   3.268 -0.3387 -2.7827 -0.3434
11070TIP3   OH254700   1.791   4.660   1.605 -0.0556  0.4560  0.3741
11070TIP3    H154701   1.821   4.578   1.566  1.3588  2.1470 -2.4263
11070TIP3    H254702   1.704   4.674   1.567 -0.5011  0.0920  1.2172
11071TIP3   OH254703   5.958   2.017   5.022  0.2154  0.3301 -0.4882
11071TIP3    H154704   5.902   1.942   5.041 -0.4612  0.4672 -1.8924
11071TIP3    H254705   5.944   2.076   5.097  0.8515 -0.9575  0.6994
11072TIP3   OH254706   3.446   4.260  14.942 -0.1329 -0.0203 -0.0025
11072TIP3    H154707   3.540   4.249  14.927 -0.6100 -4.0476 -1.1051
11072TIP3    H254708   3.413   4.300  14.862  0.4841  0.6896  0.0821
11073TIP3   OH254709   2.490   4.136  13.357 -0.3425  0.2592 -0.0853
11073TIP3    H154710   2.554   4.200  13.388  0.9092 -1.1856  0.3841
11073TIP3    H254711   2.523   4.109  13.271  0.3954 -1.4187  0.6992
11074TIP3   OH254712   4.887   4.437  13.922  0.1610  0.0356  0.1422
11074TIP3    H154713   4.865   4.436  13.829 -0.1003 -0.3097  0.2074
11074TIP3    H254714   4.945   4.362  13.934 -0.8263 -0.6888  0.5009
11075TIP3   OH254715   3.181   1.323   5.993  0.1464  0.0333 -0.0500
11075TIP3    H154716   3.226   1.382   5.932 -2.7285  1.5759 -0.8430
11075TIP3    H254717   3.216   1.236   5.971  1.9149  0.9779 -1.2995
11076TIP3   OH254718   4.888   3.057   4.851 -0.4655  0.1907  0.7069
11076TIP3    H154719   4.868   3.064   4.758 -0.1168 -0.3239  0.5910
11076TIP3    H254720   4.983   3.069   4.856 -0.4858  0.2347  0.9987
11077TIP3   OH254721   0.875   0.189  16.736 -0.2121  0.2726  0.6838
11077TIP3    H154722   0.816   0.242  16.683 -0.3768 -1.4575 -0.9700
11077TIP3    H254723   0.845   0.099  16.722  3.0662 -0.7405 -0.6585
11078TIP3   OH254724   0.629   6.206  16.260  0.8881  0.3508  0.1645
11078TIP3    H154725   0.672   6.236  16.340  1.7087 -0.0198 -0.1264
11078TIP3    H254726   0.671   6.255  16.190 -1.0876  2.0582  0.0709
11079TIP3   OH254727   0.885   1.576   3.261 -0.6109  0.0434 -0.5458
11079TIP3    H154728   0.961   1.555   3.315 -1.6958 -0.2949  0.8853
11079TIP3    H254729   0.921   1.585   3.172  1.2237  0.7554  0.2295
11080TIP3   OH254730   0.271   1.412   3.055 -0.1106 -0.2391 -0.1014
11080TIP3    H154731   0.192   1.364   3.080  0.9322 -0.9360  2.1186
11080TIP3    H254732   0.333   1.344   3.027  0.1618  0.1531 -0.4635
11081TIP3   OH254733   4.333   5.206   4.184 -0.3046  0.2468 -0.4236
11081TIP3    H154734   4.327   5.249   4.269 -0.3705 -1.5348  0.5252
11081TIP3    H254735   4.252   5.154   4.178  0.4858 -0.9763 -0.7885
11082TIP3   OH254736   0.700   0.503   1.485  0.3629  0.7835  0.0376
11082TIP3    H154737   0.626   0.451   1.517  1.2178  0.2791  1.2574
11082TIP3    H254738   0.710   0.573   1.549  1.7631  0.0723  0.6397
11083TIP3   OH254739   3.634   0.813   2.921 -0.2738 -0.1590  0.5272
11083TIP3    H154740   3.708   0.759   2.948 -2.0633 -2.2730  1.4686
11083TIP3    H254741   3.614   0.783   2.832 -0.0337  0.3977  0.2802
11084TIP3   OH254742   1.917   0.017  15.112 -0.1766 -0.6936 -0.0226
11084TIP3    H154743   1.885   0.101  15.081 -1.2008 -1.3606 -0.8282
11084TIP3    H254744   1.931   0.030  15.206 -0.8703  0.2184 -0.0321
11085TIP3   OH254745   5.367   1.063   2.846 -0.2682 -0.5052 -0.0810
11085TIP3    H154746   5.293   1.100   2.797 -0.3819  0.1880  0.5986
11085TIP3    H254747   5.363   1.106   2.931  1.1178 -0.2155 -0.1520
11086TIP3   OH254748   6.000   0.879   0.262 -0.1295  0.5371  0.1301
11086TIP3    H154749   5.925   0.865   0.203 -0.0288  2.0871 -0.4212
11086TIP3    H254750   5.968   0.852   0.348 -0.2942 -1.7456 -0.5982
11087TIP3   OH254751   2.040   2.490   4.759 -0.2603  0.8768 -0.5033
11087TIP3    H154752   2.050   2.568   4.813 -0.7762  0.0004  0.9182
11087TIP3    H254753   2.015   2.421   4.820 -0.2044 -0.3288 -1.7720
11088TIP3   OH254754   3.482   1.886   5.784  0.1822  0.6476  0.3988
11088TIP3    H154755   3.503   1.794   5.798 -0.5434  0.0434 -1.9573
11088TIP3    H254756   3.563   1.925   5.752 -0.3467 -0.1265 -2.1917
11089TIP3   OH254757   2.676   1.307   4.959 -0.0920  0.0902  0.0048
11089TIP3    H154758   2.676   1.214   4.983  2.9165 -0.3607 -1.2680
11089TIP3    H254759   2.766   1.335   4.971 -0.8731  2.8477  0.1674
11090TIP3   OH254760   5.639   4.567   3.398 -0.0616  0.1714  0.0406
11090TIP3    H154761   5.700   4.501   3.429  0.0943  0.3590  0.1389
11090TIP3    H254762   5.658   4.644   3.452 -0.5551  0.1542  0.2465
11091TIP3   OH254763   3.721   0.208   4.086  0.1149  0.1600 -0.0273
11091TIP3    H154764   3.653   0.236   4.025 -0.1750 -0.1312  0.1609
11091TIP3    H254765   3.673   0.180   4.164  0.4353 -0.3554 -0.0143
11092TIP3   OH254766   5.591   5.804   5.462 -0.3480 -0.1998  0.5225
11092TIP3    H154767   5.506   5.831   5.429 -0.4667 -0.9374  0.1980
11092TIP3    H254768   5.575   5.718   5.501  0.5352 -1.1167 -1.0057
11093TIP3   OH254769   0.804   3.689  12.209  0.5617 -0.0156 -0.3813
11093TIP3    H154770   0.834   3.754  12.145 -0.2887  1.3571  0.5801
11093TIP3    H254771   0.875   3.625  12.213  1.8808  1.3803 -0.6119
11094TIP3   OH254772   5.336   0.266  12.499 -0.7018 -0.2100 -0.2222
11094TIP3    H154773   5.251   0.266  12.545 -0.7618  0.2790 -0.3225
11094TIP3    H254774   5.346   0.356  12.469  1.3060  0.6288  2.4990
11095TIP3   OH254775   5.271   5.273   1.037  0.1075  0.4892  0.1340
11095TIP3    H154776   5.194   5.313   0.998 -0.4381  0.3501  1.0414
11095TIP3    H254777   5.301   5.338   1.101  0.7183  0.5230 -0.1801
11096TIP3   OH254778   6.415   2.011  15.446 -0.3674 -0.0864  0.0390
11096TIP3    H154779   6.487   2.066  15.414 -0.0872 -1.6108 -2.2043
11096TIP3    H254780   6.344   2.072  15.464  0.7019  1.2218  0.0169
11097TIP3   OH254781   4.850   1.926   6.099 -0.3516 -0.3464  0.2648
11097TIP3    H154782   4.757   1.905   6.099 -0.4639  0.0754 -0.9327
11097TIP3    H254783   4.859   1.994   6.033  0.1967  2.5261  3.0720
11098TIP3   OH254784   0.568   2.326   1.932 -0.0252 -0.2558  0.2118
11098TIP3    H154785   0.481   2.296   1.957 -0.5328 -1.0279 -2.2113
11098TIP3    H254786   0.621   2.247   1.926  0.0585 -0.1319 -1.0273
11099TIP3   OH254787   6.621   5.765  14.377 -0.4506  0.3279  0.0891
11099TIP3    H154788   6.677   5.705  14.328  1.3432 -1.0665  3.4914
11099TIP3    H254789   6.630   5.849  14.332  1.3672 -0.7171 -1.6561
11100TIP3   OH254790   3.526   0.401   5.527 -0.3518 -0.2095 -0.1353
11100TIP3    H154791   3.553   0.310   5.515 -1.9767 -0.5469 -1.7400
11100TIP3    H254792   3.546   0.421   5.618  2.2421 -1.3823 -0.3802
11101TIP3   OH254793   3.171   0.264   1.300 -0.3805  0.1504 -0.3405
11101TIP3    H154794   3.215   0.268   1.215 -1.0826 -0.0966 -0.7209
11101TIP3    H254795   3.224   0.320   1.356  0.7505 -0.5724 -0.6336
11102TIP3   OH254796   6.607   2.828   3.848 -0.8061 -0.1895 -0.0958
11102TIP3    H154797   6.623   2.782   3.765 -1.3861 -1.5623  0.5223
11102TIP3    H254798   6.688   2.874   3.866 -0.0012 -1.4171 -0.4767
11103TIP3   OH254799   0.851   0.583   5.947 -0.1560 -0.2384 -0.3615
11103TIP3    H154800   0.840   0.529   5.868 -0.1606 -0.3845 -0.2627
11103TIP3    H254801   0.882   0.667   5.915 -0.8920 -0.0476 -0.5835
11104TIP3   OH254802   2.444   0.377  14.309 -0.1139 -0.2212  0.4274
11104TIP3    H154803   2.493   0.321  14.248  0.4344 -0.7247  1.3147
11104TIP3    H254804   2.354   0.345  14.303 -0.8073  1.9048 -2.6023
11105TIP3   OH254805   2.026   0.556  15.034 -0.0679 -0.3265  0.5529
11105TIP3    H154806   2.064   0.643  15.040 -1.3246  0.2319  0.7139
11105TIP3    H254807   1.981   0.544  15.118 -1.3033 -0.4401 -0.1110
11106TIP3   OH254808   2.393   1.397  13.331  0.5541  0.1834 -0.4353
11106TIP3    H154809   2.441   1.355  13.401  1.4004 -0.1796 -1.2125
11106TIP3    H254810   2.303   1.366  13.341  1.1777 -1.9976 -1.1030
11107TIP3   OH254811   2.176   4.181   0.712 -0.4528 -0.1334 -0.1567
11107TIP3    H154812   2.181   4.166   0.617 -2.2047  2.3991 -0.7513
11107TIP3    H254813   2.107   4.122   0.742 -0.3358 -0.4879 -0.5805
11108TIP3   OH254814   5.933   2.296  15.585  0.3326  0.3791  0.1514
11108TIP3    H154815   5.909   2.387  15.573  0.6435  0.2174 -2.0125
11108TIP3    H254816   5.878   2.248  15.523 -0.3065 -1.0165  1.7052
11109TIP3   OH254817   2.389   4.900   4.452  0.4141 -0.2399 -0.4874
11109TIP3    H154818   2.311   4.918   4.505  0.4437  0.7907 -0.7669
11109TIP3    H254819   2.451   4.863   4.515  0.4842  1.0659  0.2641
11110TIP3   OH254820   0.647   0.407  15.188 -0.0369 -0.1611 -0.1858
11110TIP3    H154821   0.728   0.437  15.229 -0.0592 -0.0388 -0.2317
11110TIP3    H254822   0.656   0.432  15.096  0.2757 -0.9695 -0.3841
11111TIP3   OH254823   1.125   6.403   1.718 -0.4361  0.8793  0.7357
11111TIP3    H154824   1.178   6.360   1.651 -2.8846  0.0148 -0.8020
11111TIP3    H254825   1.187   6.454   1.770  2.3201 -2.5477  1.1182
11112TIP3   OH254826   5.387   1.583  12.752  0.1617  0.3937 -0.0965
11112TIP3    H154827   5.402   1.674  12.777  0.4023  0.1894  0.5273
11112TIP3    H254828   5.312   1.556  12.805 -0.4429  0.4741 -0.8978
11113TIP3   OH254829   4.913   1.426  14.487 -0.5896 -0.3855  0.0509
11113TIP3    H154830   4.892   1.511  14.524 -2.9021 -0.5359 -0.7482
11113TIP3    H254831   4.988   1.442  14.429  0.7023  0.5323  1.8673
11114TIP3   OH254832   0.926   1.929  15.027 -0.5122  0.1075 -0.4295
11114TIP3    H154833   0.846   1.891  15.062 -0.4954  0.6444  0.2196
11114TIP3    H254834   0.994   1.903  15.090 -0.1902 -0.2737 -0.9311
11115TIP3   OH254835   4.947   1.430   1.887 -0.1485 -0.4919  0.0097
11115TIP3    H154836   4.930   1.416   1.980  0.1403  0.8464  0.2827
11115TIP3    H254837   4.954   1.525   1.878 -0.7156 -0.5673 -1.4748
11116TIP3   OH254838   6.783   5.979   1.232  0.1060 -0.4188 -0.2797
11116TIP3    H154839   6.779   5.996   1.138 -0.6415  0.4626 -0.1053
11116TIP3    H254840   6.822   5.892   1.239 -1.0897 -1.0900 -1.4563
11117TIP3   OH254841   0.910   1.293   3.328  0.8140  0.9853 -0.3962
11117TIP3    H154842   0.849   1.368   3.332 -0.7201 -0.2620  2.3017
11117TIP3    H254843   0.941   1.283   3.418  1.9525 -0.8887 -0.9533
11118TIP3   OH254844   1.766   1.829   4.672 -0.3343 -0.6090 -0.4538
11118TIP3    H154845   1.765   1.867   4.760  1.1107 -1.4083 -0.0668
11118TIP3    H254846   1.803   1.897   4.617 -3.3480  0.7986 -0.9602
11119TIP3   OH254847   2.793   2.431  10.635  0.1304  0.5866 -0.0719
11119TIP3    H154848   2.764   2.377  10.561  0.6382  2.3471 -1.6652
11119TIP3    H254849   2.887   2.414  10.641  0.0864  0.4351  0.1601
11120TIP3   OH254850   0.483   2.413   4.836  0.4717  0.5238  0.2879
11120TIP3    H154851   0.505   2.321   4.828 -0.7943  0.2275 -0.0593
11120TIP3    H254852   0.508   2.451   4.751  1.4877  0.6286  0.6200
11121TIP3   OH254853   1.245   4.640  14.730 -0.9868 -0.0110  0.0454
11121TIP3    H154854   1.315   4.669  14.670 -1.0206 -0.5465 -0.2613
11121TIP3    H254855   1.274   4.668  14.816  0.2561 -1.3619  0.1048
11122TIP3   OH254856   3.994   4.213   0.406 -0.3515 -0.4148 -0.0680
11122TIP3    H154857   4.079   4.202   0.363 -1.3540  0.4201 -2.4233
11122TIP3    H254858   3.959   4.295   0.370 -3.0149 -1.7474 -0.7940
11123TIP3   OH254859   0.369   6.180  16.595  0.2837 -0.1700 -0.1747
11123TIP3    H154860   0.339   6.226  16.674 -2.1886 -1.4520 -0.2505
11123TIP3    H254861   0.464   6.173  16.606 -0.0307 -0.9562  3.0955
11124TIP3   OH254862   1.774   6.763   3.317  0.3099 -0.2334 -0.1863
11124TIP3    H154863   1.866   6.788   3.309 -0.1759  2.1938  1.0091
11124TIP3    H254864   1.753   6.779   3.409 -1.7276  0.8574 -0.7848
11125TIP3   OH254865   0.676   4.494   5.569 -0.2705 -0.5975 -0.2737
11125TIP3    H154866   0.714   4.528   5.488  0.7249  1.9304  1.1394
11125TIP3    H254867   0.705   4.403   5.573  2.0944  0.0312 -1.3603
11126TIP3   OH254868   3.046   3.086  16.018  0.0092 -0.2026  0.3131
11126TIP3    H154869   3.076   3.005  16.060  0.9526 -0.6186 -1.0731
11126TIP3    H254870   3.115   3.150  16.038 -0.3265  0.0340  0.7184
11127TIP3   OH254871   5.832   0.277   4.298  0.0444 -0.2184 -0.0721
11127TIP3    H154872   5.834   0.181   4.307 -0.5386 -0.2110  0.1131
11127TIP3    H254873   5.824   0.292   4.203 -1.7000 -0.3805  0.0269
11128TIP3   OH254874   4.066   4.722   4.711  0.3850 -0.0993 -0.0232
11128TIP3    H154875   4.108   4.807   4.699  0.9509 -0.2499  0.7845
11128TIP3    H254876   4.034   4.699   4.624  1.6516  0.1915 -0.5996
11129TIP3   OH254877   4.597   0.044   1.943 -0.3017 -0.2576 -0.6299
11129TIP3    H154878   4.529  -0.024   1.949 -0.1553 -0.3051  0.7381
11129TIP3    H254879   4.549   0.126   1.949 -0.1673 -0.2957  1.8521
11130TIP3   OH254880   0.961   2.541  14.119  0.0273  0.0469  0.2073
11130TIP3    H154881   1.041   2.489  14.125  0.0425 -0.0565 -0.7177
11130TIP3    H254882   0.949   2.557  14.025 -0.5096  0.8899  0.4011
11131TIP3   OH254883   2.415   1.704   0.843  0.4178 -0.2047  0.0887
11131TIP3    H154884   2.325   1.689   0.872  0.6220 -0.7728  0.4490
11131TIP3    H254885   2.409   1.778   0.782 -0.0215  0.9928  1.5295
11132TIP3   OH254886   3.406   3.911   5.123 -0.6012  0.1103  0.7399
11132TIP3    H154887   3.438   4.001   5.127 -0.0057 -0.0059 -0.6373
11132TIP3    H254888   3.481   3.861   5.091 -1.4518 -0.5728 -0.2484
11133TIP3   OH254889   4.851   3.919   3.164  0.1549 -0.2837  0.0741
11133TIP3    H154890   4.911   3.975   3.213 -1.0834  0.6121  0.6146
11133TIP3    H254891   4.886   3.919   3.075  0.0151  1.6787 -0.0312
11134TIP3   OH254892   2.634   4.276  17.241  0.2806  0.2753  0.4494
11134TIP3    H154893   2.559   4.266  17.182 -0.3633 -0.0802  1.3087
11134TIP3    H254894   2.676   4.357  17.212 -1.1681  1.1612  0.7325
11135TIP3   OH254895   0.404   6.626  14.769  0.7694  0.1359  0.2049
11135TIP3    H154896   0.420   6.553  14.828 -0.7218  0.1841  0.7156
11135TIP3    H254897   0.381   6.584  14.685  1.6709  0.0594 -0.0169
11136TIP3   OH254898   0.626   1.795  14.758  0.2417  0.2435 -0.3729
11136TIP3    H154899   0.643   1.850  14.682  1.0013 -0.1017 -0.4593
11136TIP3    H254900   0.712   1.768  14.788 -0.1188 -1.0909 -0.4770
11137TIP3   OH254901   4.731   6.261   1.540  0.3424  0.2143  0.1829
11137TIP3    H154902   4.700   6.202   1.608 -1.4053 -0.3896 -1.0695
11137TIP3    H254903   4.812   6.221   1.509  1.1181  0.4553  1.8116
11138TIP3   OH254904   3.152   4.154   2.725  0.8424  0.5690  0.1964
11138TIP3    H154905   3.245   4.139   2.709  0.6798 -1.4271  0.8167
11138TIP3    H254906   3.136   4.115   2.811 -0.8655 -0.6119 -0.5972
11139TIP3   OH254907   6.007   3.586  16.336 -0.1786 -0.2595 -0.4597
11139TIP3    H154908   5.931   3.528  16.339  0.6156 -1.3063 -0.2312
11139TIP3    H254909   6.047   3.569  16.252 -0.4492  0.6555 -0.7915
11140TIP3   OH254910   4.477   0.045   4.735  0.4165  0.0671  0.0380
11140TIP3    H154911   4.535  -0.003   4.795  0.6363  2.1980  1.6325
11140TIP3    H254912   4.521   0.129   4.721 -0.5509  0.3274 -1.6526
11141TIP3   OH254913   6.457   3.546  16.989  0.3989 -0.1820 -0.2286
11141TIP3    H154914   6.511   3.591  16.924  1.3194  2.4035  2.1197
11141TIP3    H254915   6.517   3.527  17.061 -0.2014 -4.4679 -0.6039
11142TIP3   OH254916   4.318   6.164  12.022 -0.0107  0.5042  0.3632
11142TIP3    H154917   4.386   6.174  11.955 -0.3667 -0.2409 -0.1166
11142TIP3    H254918   4.340   6.231  12.088  0.3400  1.2503 -0.4877
11143TIP3   OH254919   0.780   1.593  15.443 -0.1736  0.1129  0.4102
11143TIP3    H154920   0.868   1.606  15.480  0.2998  0.1626 -0.6809
11143TIP3    H254921   0.782   1.505  15.407 -0.1787  0.5070 -0.5992
11144TIP3   OH254922   6.229   1.213   0.023  0.0434 -0.0604 -0.8368
11144TIP3    H154923   6.256   1.200  -0.068 -2.7142 -1.2473 -1.5685
11144TIP3    H254924   6.281   1.149   0.073  0.9536  0.0095 -1.6716
11145TIP3   OH254925   2.513   2.376   1.118 -0.4534  0.3715 -0.0894
11145TIP3    H154926   2.452   2.449   1.106 -0.4386  0.1656 -1.5949
11145TIP3    H254927   2.460   2.308   1.161 -0.9292  0.6452 -0.2340
11146TIP3   OH254928   6.497   5.391  11.587  0.0906  0.0329 -0.0979
11146TIP3    H154929   6.454   5.306  11.585  0.2052 -0.0211 -2.2177
11146TIP3    H254930   6.547   5.395  11.505  0.6273  1.8655  0.2729
11147TIP3   OH254931   2.261   4.959  13.628 -0.3973 -0.4631 -0.0606
11147TIP3    H154932   2.176   4.916  13.617 -1.2143  1.5860 -2.7131
11147TIP3    H254933   2.289   4.979  13.538  2.5134 -0.3158  0.7957
11148TIP3   OH254934   3.048   2.049   2.152  0.2936 -0.2667  0.5015
11148TIP3    H154935   3.074   1.974   2.205  0.4326  0.1541  1.0283
11148TIP3    H254936   3.072   2.024   2.062 -0.2418 -1.1092  0.5850
11149TIP3   OH254937   2.139   0.550  15.812 -0.3337 -0.2920 -0.0369
11149TIP3    H154938   2.052   0.569  15.777  0.1577  1.5246 -0.3597
11149TIP3    H254939   2.123   0.507  15.896 -1.6800  3.7839  2.0320
11150TIP3   OH254940   6.164   3.533  16.118  0.3956  0.5609  0.3843
11150TIP3    H154941   6.250   3.520  16.158 -0.3951 -1.2613  1.5949
11150TIP3    H254942   6.115   3.454  16.140 -1.2267  1.0419 -1.2754
11151TIP3   OH254943   6.214   3.060   3.375 -0.0197  0.2667 -0.5292
11151TIP3    H154944   6.190   3.126   3.440 -0.3094  0.4280 -0.7973
11151TIP3    H254945   6.306   3.080   3.354  0.7292 -0.9913  1.2694
11152TIP3   OH254946   1.031   2.443   1.940 -0.5447 -0.1261 -0.3187
11152TIP3    H154947   0.980   2.384   1.995 -0.3943  2.2553  2.5985
11152TIP3    H254948   0.971   2.514   1.919  1.0467  2.0789  2.0903
11153TIP3   OH254949   3.351   0.526  11.806  0.0476  0.3962 -0.2815
11153TIP3    H154950   3.428   0.536  11.749  0.2559 -0.3672 -0.1502
11153TIP3    H254951   3.378   0.565  11.889  0.9603 -1.3793  0.3241
11154TIP3   OH254952   1.542   4.640  11.362  0.0950 -0.0586 -0.3848
11154TIP3    H154953   1.467   4.580  11.366 -0.4476  0.6432  0.4204
11154TIP3    H254954   1.569   4.652  11.453  0.7511  0.2375 -0.6075
11155TIP3   OH254955   1.590   3.535  14.040  0.0600 -0.4356 -0.5775
11155TIP3    H154956   1.602   3.551  13.947  0.6228  0.2556 -0.3982
11155TIP3    H254957   1.504   3.573  14.060  0.0639 -0.3334 -0.7552
11156TIP3   OH254958   2.041   4.452   4.877  0.2052  0.1785  0.1113
11156TIP3    H154959   1.988   4.470   4.799 -0.0649  2.0511  0.6799
11156TIP3    H254960   2.021   4.524   4.937 -0.8973 -2.0684  2.6415
11157TIP3   OH254961   0.902   1.501   0.300  0.2359 -0.5528  0.1606
11157TIP3    H154962   0.913   1.590   0.334  0.0638 -0.6090  0.3672
11157TIP3    H254963   0.832   1.463   0.354 -0.4764 -0.4412 -0.6738
11158TIP3   OH254964   3.914   1.172  16.827 -0.3774  0.5091  0.1185
11158TIP3    H154965   3.969   1.123  16.766 -1.0105  0.8864 -0.7868
11158TIP3    H254966   3.885   1.249  16.777 -2.3014 -0.0384  0.2984
11159TIP3   OH254967   6.374   4.259  16.075  0.0749  0.0841  0.0798
11159TIP3    H154968   6.297   4.217  16.115 -0.0073 -0.6860 -0.8305
11159TIP3    H254969   6.343   4.288  15.989  0.2171  1.7962  0.5777
11160TIP3   OH254970   5.541   4.371  14.304  0.2368 -0.3418  0.4663
11160TIP3    H154971   5.587   4.418  14.234 -0.9916  0.7987  0.3895
11160TIP3    H254972   5.606   4.310  14.339  1.0696 -0.4869 -1.2376
11161TIP3   OH254973   0.657   3.686   6.189  0.4987 -0.5116 -0.0819
11161TIP3    H154974   0.582   3.646   6.144  0.0022  1.2953 -0.9829
11161TIP3    H254975   0.621   3.716   6.273  0.2704  0.0258 -0.3608
11162TIP3   OH254976   6.647   2.968  13.815  0.3901 -0.2801 -0.7891
11162TIP3    H154977   6.583   2.955  13.885 -2.6367  1.0483 -3.0939
11162TIP3    H254978   6.685   2.881  13.802 -0.5156 -1.0199  1.0722
11163TIP3   OH254979   2.370   2.559   2.157 -0.0566 -0.1079  0.4349
11163TIP3    H154980   2.387   2.622   2.087  0.4113 -0.4496  0.2374
11163TIP3    H254981   2.304   2.500   2.121  0.2436 -0.3327  0.2479
11164TIP3   OH254982   6.214   6.424   3.596  0.3734  0.2886  0.1217
11164TIP3    H154983   6.258   6.425   3.511  0.1744 -0.8277 -0.0061
11164TIP3    H254984   6.130   6.382   3.579  1.0347 -1.5553  1.1917
11165TIP3   OH254985   0.755   5.925  16.000 -0.6289  0.7080  0.1589
11165TIP3    H154986   0.663   5.951  16.008 -0.3411  1.2597  2.0608
11165TIP3    H254987   0.792   5.941  16.086  0.9990 -0.5607 -0.2569
11166TIP3   OH254988   1.954   6.612   0.216  0.6974 -0.0378 -0.3728
11166TIP3    H154989   2.043   6.636   0.241  1.1568  0.0221 -1.9587
11166TIP3    H254990   1.917   6.570   0.294  1.4541  1.6066  0.9503
11167TIP3   OH254991   4.295   5.884   0.812 -1.0360 -0.2027  0.1478
11167TIP3    H154992   4.204   5.885   0.783 -0.4261  0.5678 -1.9262
11167TIP3    H254993   4.335   5.959   0.768  0.9491 -1.4458 -0.3019
11168TIP3   OH254994   4.695   3.211   0.018 -0.4789  0.0536 -0.5819
11168TIP3    H154995   4.676   3.288  -0.035  1.0599 -0.4169 -1.8959
11168TIP3    H254996   4.723   3.145  -0.045 -0.2177 -1.0634  0.6715
11169TIP3   OH254997   3.040   1.533   5.729  0.3215  0.7354 -0.4769
11169TIP3    H154998   3.130   1.502   5.739 -0.0255  0.0887  0.7731
11169TIP3    H254999   3.030   1.601   5.796  0.8003  3.0849 -2.6072
11170TIP3   OH255000   2.545   1.778   5.128  0.1948  0.1925 -0.3051
11170TIP3    H155001   2.609   1.847   5.114  1.0619 -0.9069 -2.1574
11170TIP3    H255002   2.548   1.726   5.048 -1.6714 -1.0008  0.3277
11171TIP3   OH255003   1.964   6.624   2.822  0.1955 -0.3062 -0.3791
11171TIP3    H155004   1.970   6.589   2.911 -1.2300 -2.1332 -0.9557
11171TIP3    H255005   2.013   6.563   2.768  1.1626  0.8666 -0.8698
11172TIP3   OH255006   3.811   5.325  11.973  0.0333 -0.7267  1.0156
11172TIP3    H155007   3.875   5.369  12.028  1.9673  1.4824 -2.5725
11172TIP3    H255008   3.851   5.241  11.952  1.9310  0.5882 -1.1047
11173TIP3   OH255009   1.263   3.995   5.371 -0.4854 -0.0719 -0.3809
11173TIP3    H155010   1.215   3.990   5.453 -0.1478 -0.1776 -0.1878
11173TIP3    H255011   1.334   3.931   5.381 -0.8671 -0.6105 -1.0311
11174TIP3   OH255012   4.137   1.314  11.455 -0.2653 -0.3443  0.0785
11174TIP3    H155013   4.046   1.340  11.448  0.1397  0.6138 -2.4778
11174TIP3    H255014   4.133   1.221  11.479 -1.9078 -0.4474 -0.4775
11175TIP3   OH255015   3.649   6.264  10.746  0.2168  0.0739  0.4840
11175TIP3    H155016   3.633   6.305  10.661  1.6478 -1.0254 -0.3691
11175TIP3    H255017   3.735   6.223  10.737 -0.9931 -2.9016  1.3393
11176TIP3   OH255018   4.619   0.790  14.299  0.6069 -0.2072  0.3219
11176TIP3    H155019   4.655   0.730  14.234 -0.6131 -0.1222 -0.4839
11176TIP3    H255020   4.655   0.761  14.382  1.0757 -1.2323 -0.2209
11177TIP3   OH255021   5.634   4.433   4.212  0.0925 -0.3944 -0.3231
11177TIP3    H155022   5.593   4.481   4.284  1.3509 -1.8287  1.4684
11177TIP3    H255023   5.640   4.497   4.141  1.1384  1.9725  1.7092
11178TIP3   OH255024   5.040   2.830  16.719 -0.2057  0.3370 -0.1904
11178TIP3    H155025   5.087   2.759  16.762  0.2148  1.0058  0.4685
11178TIP3    H255026   5.002   2.790  16.641  0.3502 -0.5210 -0.0282
11179TIP3   OH255027   0.570   5.263   2.479 -0.0419  0.3163 -0.2868
11179TIP3    H155028   0.525   5.306   2.407  0.0126  0.9069  0.0259
11179TIP3    H255029   0.663   5.278   2.463 -0.0719  1.6147  0.6014
11180TIP3   OH255030   3.303   2.287  10.951 -0.5599 -0.3298 -0.2447
11180TIP3    H155031   3.294   2.268  10.857  0.2457  2.3119 -0.9383
11180TIP3    H255032   3.222   2.254  10.989 -0.8161 -1.6709 -1.8224
11181TIP3   OH255033   3.083   3.822  10.367  0.9131  0.1289 -0.6710
11181TIP3    H155034   3.150   3.778  10.419 -0.0163 -0.4985  0.0454
11181TIP3    H255035   3.008   3.761  10.368  0.5631  0.4994 -2.0163
11182TIP3   OH255036   2.265   0.842  12.429  0.2211 -0.2951 -0.0479
11182TIP3    H155037   2.355   0.818  12.406  0.4854  0.1093  0.5293
11182TIP3    H255038   2.227   0.873  12.347  0.5621 -0.5910 -0.3247
11183TIP3   OH255039   2.768   3.814   0.451 -0.2489 -0.0412  0.1169
11183TIP3    H155040   2.842   3.754   0.457 -0.9683 -0.8459  1.1947
11183TIP3    H255041   2.755   3.826   0.357  0.8277 -0.4006 -0.0942
11184TIP3   OH255042   2.151   2.374  14.481  0.2450  0.1640 -0.1698
11184TIP3    H155043   2.072   2.427  14.470  0.1030 -0.0375 -0.1351
11184TIP3    H255044   2.187   2.365  14.392 -0.7823 -1.2814 -0.4906
11185TIP3   OH255045   1.537   3.533  13.537  0.1386  0.5793 -0.2049
11185TIP3    H155046   1.491   3.615  13.523  0.7404  1.0569  0.5386
11185TIP3    H255047   1.536   3.489  13.452 -1.5090  0.6600 -0.2429
11186TIP3   OH255048   1.421   2.217   1.825 -0.0834 -0.2458 -0.3228
11186TIP3    H155049   1.464   2.216   1.739 -2.6034  1.1106 -1.7217
11186TIP3    H255050   1.430   2.307   1.856 -0.4261 -0.3637  0.1355
11187TIP3   OH255051   3.496   5.996  12.668  0.2872 -0.4001  0.3470
11187TIP3    H155052   3.460   6.010  12.581  1.8180  0.4314 -0.1786
11187TIP3    H255053   3.589   6.013  12.659  0.5533 -0.7477  2.0575
11188TIP3   OH255054   2.109   0.737   2.233  0.2936  0.1580  0.3453
11188TIP3    H155055   2.046   0.795   2.191  1.9407  0.6405 -1.6342
11188TIP3    H255056   2.083   0.735   2.325 -1.9693  1.1015 -0.2125
11189TIP3   OH255057   1.975   5.989  11.359 -0.1177 -0.8499  0.2168
11189TIP3    H155058   1.922   6.063  11.387 -0.6700 -1.4587  0.8058
11189TIP3    H255059   1.968   5.989  11.263 -0.4039 -0.3611  0.2387
11190TIP3   OH255060   4.796   5.733   0.572 -0.2829  0.7024  0.1993
11190TIP3    H155061   4.801   5.697   0.483 -2.1945 -0.1771  0.3841
11190TIP3    H255062   4.721   5.793   0.569 -1.1316 -0.2412  1.4778
11191TIP3   OH255063   0.135   4.579  17.162 -0.3976  0.4282 -0.3285
11191TIP3    H155064   0.082   4.641  17.212 -0.3794 -0.3858  0.7332
11191TIP3    H255065   0.202   4.633  17.120 -0.1977  1.0968  0.8214
11192TIP3   OH255066   0.673   0.521   2.265  0.4159 -0.0572  0.4969
11192TIP3    H155067   0.731   0.541   2.339 -0.9282  0.4291  1.4605
11192TIP3    H255068   0.679   0.598   2.209 -0.1215  0.4721  1.1508
11193TIP3   OH255069   3.945   3.921   5.295  0.4586  0.0834 -0.0483
11193TIP3    H155070   3.987   3.969   5.366 -0.7736 -0.2192  0.9248
11193TIP3    H255071   3.851   3.939   5.307  0.1924 -0.4181 -1.2718
11194TIP3   OH255072   4.233   0.034   0.182 -0.0607  0.2546  0.0888
11194TIP3    H155073   4.194   0.018   0.268 -0.5120 -0.4079 -0.2223
11194TIP3    H255074   4.212  -0.045   0.132 -1.0601  1.2310 -1.0809
11195TIP3   OH255075   4.670   6.498   4.145 -0.1147 -0.1032 -0.5708
11195TIP3    H155076   4.683   6.579   4.195  0.1456 -1.2546  1.3228
11195TIP3    H255077   4.622   6.441   4.205 -0.0283 -1.4725 -1.7597
11196TIP3   OH255078   2.238   6.004   1.450  0.1876  0.2365 -0.0748
11196TIP3    H155079   2.152   5.968   1.469  0.7494 -0.8604  0.5203
11196TIP3    H255080   2.295   5.928   1.444  0.7029  0.7446 -2.9195
11197TIP3   OH255081   5.561   6.372  14.577 -0.4595  0.1288  0.2977
11197TIP3    H155082   5.624   6.300  14.588 -0.0069  0.1326 -1.9107
11197TIP3    H255083   5.475   6.332  14.590 -0.2204 -0.8647 -1.0876
11198TIP3   OH255084   5.040   3.812   0.983 -0.0514 -0.0982  0.2797
11198TIP3    H155085   5.103   3.788   0.914  0.0318 -0.1215  0.3636
11198TIP3    H255086   5.063   3.754   1.056 -0.6624 -0.6478  0.0449
11199TIP3   OH255087   6.462   4.742   6.270  0.4067  0.6136  0.2066
11199TIP3    H155088   6.424   4.791   6.343  3.1483  1.9302  0.8853
11199TIP3    H255089   6.556   4.739   6.289  1.2907  1.1857 -3.3393
11200TIP3   OH255090   4.644   2.771  11.632  0.5212 -0.1530 -0.0153
11200TIP3    H155091   4.683   2.712  11.567  0.4580 -0.9889  0.6867
11200TIP3    H255092   4.551   2.750  11.630  0.5106 -0.1328  0.3005
11201TIP3   OH255093   0.137   5.461  13.430 -1.1906 -0.1319  0.3725
11201TIP3    H155094   0.104   5.468  13.520  0.2289  0.8476  0.8466
11201TIP3    H255095   0.066   5.495  13.376 -1.2670  1.2927  1.3051
11202TIP3   OH255096   6.390   3.458  16.250  0.0796  0.4924 -0.2271
11202TIP3    H155097   6.417   3.459  16.342  1.6786 -1.0816 -0.6354
11202TIP3    H255098   6.467   3.485  16.201 -0.3989  0.1730 -1.1862
11203TIP3   OH255099   1.072   1.536  10.581 -0.0015  0.2906  0.5485
11203TIP3    H155100   1.034   1.612  10.538  0.8798  0.4525  0.0401
11203TIP3    H255101   0.997   1.490  10.618 -0.4636  2.0511  1.9541
11204TIP3   OH255102   1.778   3.602  15.696 -0.2327  0.4179  0.2020
11204TIP3    H155103   1.832   3.583  15.773  0.1431  0.1950 -0.1159
11204TIP3    H255104   1.753   3.516  15.662 -1.0880  0.5203  0.5535
11205TIP3   OH255105   1.499   6.426  13.266 -0.4136  0.2124  0.5183
11205TIP3    H155106   1.466   6.398  13.181 -4.3809  1.8517  1.2948
11205TIP3    H255107   1.493   6.348  13.321  1.1004 -0.5569 -0.3399
11206TIP3   OH255108   5.812   4.307  12.368  0.3201 -0.2502  0.1386
11206TIP3    H155109   5.731   4.310  12.420 -0.2661  0.4636 -0.7849
11206TIP3    H255110   5.880   4.337  12.428  0.0854 -1.7680  1.2200
11207TIP3   OH255111   3.326   0.280   1.067 -0.6584 -0.1568 -0.4198
11207TIP3    H155112   3.416   0.262   1.092 -0.5864 -1.5635 -1.5728
11207TIP3    H255113   3.329   0.295   0.973 -1.8093 -1.7144 -0.7386
11208TIP3   OH255114   6.076   4.430   4.681  0.1455 -0.4985  0.5968
11208TIP3    H155115   6.009   4.434   4.750 -0.9627 -1.2904 -0.4026
11208TIP3    H255116   6.108   4.340   4.684 -1.3895 -1.1629 -1.2415
11209TIP3   OH255117   1.724   4.184   5.246  0.5881 -0.0103 -0.4680
11209TIP3    H155118   1.681   4.245   5.305  0.5356 -0.4822 -0.0110
11209TIP3    H255119   1.652   4.138   5.202  0.6271  0.3239 -0.8816
11210TIP3   OH255120   2.988   1.861  11.209  0.0665  0.4007 -0.3856
11210TIP3    H155121   2.921   1.806  11.250  0.6427  1.9944  3.0059
11210TIP3    H255122   3.060   1.800  11.191 -1.5309 -1.0166 -2.5994
11211TIP3   OH255123   5.622   1.178  17.083 -0.1992  0.5996 -0.3987
11211TIP3    H155124   5.681   1.103  17.090  0.4532  0.9375 -1.9759
11211TIP3    H255125   5.539   1.147  17.120 -0.0013 -0.9868 -1.2065
11212TIP3   OH255126   2.807   1.213   3.588  0.5354 -0.1076  0.4197
11212TIP3    H155127   2.723   1.259   3.598  1.2644  1.2345  0.5075
11212TIP3    H255128   2.784   1.120   3.598 -1.2636  0.0366 -1.5878
11213TIP3   OH255129   2.172   5.373   4.630  0.3219 -0.3160 -0.1028
11213TIP3    H155130   2.240   5.438   4.648  0.7254 -0.6013 -0.5823
11213TIP3    H255131   2.121   5.411   4.558 -0.9272  0.5530  1.1704
11214TIP3   OH255132   6.002   2.754  16.292  0.2765 -0.3143  0.8834
11214TIP3    H155133   6.002   2.785  16.201 -0.0921  1.8156  1.5495
11214TIP3    H255134   6.039   2.666  16.287  0.9081  0.0021 -1.2375
11215TIP3   OH255135   3.741   1.246  14.344  0.1806 -0.3191 -0.2401
11215TIP3    H155136   3.808   1.279  14.283 -1.4263 -0.6405 -2.2822
11215TIP3    H255137   3.760   1.152  14.351 -0.9197 -0.7220 -2.0703
11216TIP3   OH255138   5.807   2.176  13.577 -0.6667 -0.1006  0.1065
11216TIP3    H155139   5.783   2.237  13.647  0.8249 -0.3160  0.8575
11216TIP3    H255140   5.833   2.096  13.623  0.4031 -0.2225 -0.6587
11217TIP3   OH255141   6.441   5.195   2.353 -0.3219  0.2775 -0.1907
11217TIP3    H155142   6.533   5.179   2.376 -0.9009 -0.9796  1.4636
11217TIP3    H255143   6.395   5.193   2.436 -1.7936  1.4658 -0.9383
11218TIP3   OH255144   0.620   0.076  12.490 -0.1754 -0.4108  0.0504
11218TIP3    H155145   0.584   0.114  12.571  0.4515 -0.2215  0.2471
11218TIP3    H255146   0.579   0.126  12.420 -0.0364  0.0265  0.2810
11219TIP3   OH255147   4.591   1.379   1.476  0.0705  0.2930  0.0559
11219TIP3    H155148   4.618   1.391   1.567 -2.7567  0.9687  0.9255
11219TIP3    H255149   4.527   1.309   1.479  0.8975 -0.6001 -1.6886
11220TIP3   OH255150   2.963   0.461   5.706 -0.2347  0.3375  0.1355
11220TIP3    H155151   2.900   0.401   5.745  0.6816 -0.9133 -0.2513
11220TIP3    H255152   2.932   0.473   5.616 -0.7949  1.0075  0.4083
11221TIP3   OH255153   2.440   0.907  14.310 -0.1471 -0.4710 -0.3748
11221TIP3    H155154   2.367   0.942  14.361 -1.2643 -2.4013 -0.5180
11221TIP3    H255155   2.417   0.814  14.297  2.4837 -1.2310 -0.1611
11222TIP3   OH255156   1.918   4.374  12.248  0.0087 -0.0193 -0.2279
11222TIP3    H155157   1.882   4.445  12.194 -1.1461  0.7511  1.4611
11222TIP3    H255158   2.012   4.390  12.248 -0.1541  1.0325 -0.5735
11223TIP3   OH255159   0.280   5.134  14.801 -0.3696 -0.2265  0.3263
11223TIP3    H155160   0.205   5.188  14.826 -0.3450 -0.2767  0.5118
11223TIP3    H255161   0.292   5.150  14.707  0.2431  0.8352  0.5719
11224TIP3   OH255162   5.840   4.621   1.365 -0.1840  0.0968 -0.1544
11224TIP3    H155163   5.759   4.609   1.315  0.1835 -2.8584 -0.2556
11224TIP3    H255164   5.902   4.560   1.325  1.3950  0.6532  1.3238
11225TIP3   OH255165   6.784   1.397   1.255 -0.0150  0.0788  0.0227
11225TIP3    H155166   6.852   1.383   1.189 -0.9948 -2.1109 -0.6388
11225TIP3    H255167   6.805   1.334   1.324 -1.9551 -1.5857 -0.7776
11226TIP3   OH255168   4.894   0.197   3.696 -0.0453 -0.1591 -0.0145
11226TIP3    H155169   4.801   0.181   3.683  0.0936 -0.6641 -0.4452
11226TIP3    H255170   4.898   0.280   3.743 -0.7546 -0.6913  1.0291
11227TIP3   OH255171   1.684   4.553   2.286  0.7583  0.2957 -0.4651
11227TIP3    H155172   1.727   4.630   2.249  0.7192  0.4992 -0.0968
11227TIP3    H255173   1.661   4.500   2.211  2.0644 -0.0357 -0.6549
11228TIP3   OH255174   4.206   4.263   5.369  0.3118 -0.3736 -0.4442
11228TIP3    H155175   4.144   4.200   5.406  0.0029 -0.0325 -0.3794
11228TIP3    H255176   4.290   4.240   5.409  0.5856 -1.9120 -1.7786
11229TIP3   OH255177   6.033   4.893   5.473  0.3842  1.2966  0.1361
11229TIP3    H155178   6.123   4.874   5.500  0.3598  1.1605  0.1208
11229TIP3    H255179   6.009   4.970   5.524  0.1739  0.7581  0.8762
11230TIP3   OH255180   1.028   4.852  11.613 -0.3610 -0.3831 -0.2292
11230TIP3    H155181   0.940   4.817  11.601  0.4107 -2.5010 -0.1380
11230TIP3    H255182   1.016   4.930  11.667 -2.1280 -0.8915  0.1774
11231TIP3   OH255183   2.643   4.831   2.904 -0.7260 -0.3026  0.7149
11231TIP3    H155184   2.549   4.837   2.890 -0.7870  0.3404  1.3342
11231TIP3    H255185   2.672   4.763   2.843 -1.4346  0.1815 -0.1910
11232TIP3   OH255186   4.232   2.696   1.076 -0.0053  0.2842  0.1604
11232TIP3    H155187   4.230   2.778   1.027 -2.2306  0.4130  0.3483
11232TIP3    H255188   4.268   2.632   1.015 -2.7189  0.4264 -1.7827
11233TIP3   OH255189   3.471   1.446  14.275  0.2716  0.1123  0.3059
11233TIP3    H155190   3.378   1.433  14.255 -0.3264  1.7902  1.7056
11233TIP3    H255191   3.490   1.380  14.341  0.3524 -0.8629 -0.6764
11234TIP3   OH255192   1.482   5.937   2.350  0.0168  0.0997  0.3457
11234TIP3    H155193   1.463   6.027   2.324 -0.3752  0.0413  0.4175
11234TIP3    H255194   1.503   5.943   2.443 -2.2058 -0.1458  0.9310
11235TIP3   OH255195   6.243   4.962  16.460 -0.4519  0.2473  0.1916
11235TIP3    H155196   6.230   5.038  16.403  0.0111  0.5449  0.4709
11235TIP3    H255197   6.313   4.989  16.520  0.7076 -0.8903 -0.5982
11236TIP3   OH255198   3.020   0.858   2.412  0.3973  0.1094 -0.1340
11236TIP3    H155199   3.073   0.832   2.337  0.2665 -0.7462  0.0543
11236TIP3    H255200   2.951   0.791   2.417 -0.6987  1.1928 -0.3726
11237TIP3   OH255201   0.529   4.346   3.567 -0.3875 -0.2183 -0.0475
11237TIP3    H155202   0.534   4.424   3.512  1.3972 -1.7778 -2.2257
11237TIP3    H255203   0.616   4.338   3.606 -1.4888  0.6526  2.9381
11238TIP3   OH255204   4.776   1.320   0.113  0.3706  0.1061  0.2542
11238TIP3    H155205   4.749   1.357   0.197 -0.0685  0.7540 -0.1613
11238TIP3    H255206   4.715   1.248   0.098 -1.9155  2.1467 -1.1374
11239TIP3   OH255207   5.624   1.657  16.015 -0.3054  0.2295 -0.2273
11239TIP3    H155208   5.661   1.715  16.082  1.2591 -0.9478 -0.0030
11239TIP3    H255209   5.597   1.715  15.945  0.0739  1.3251  0.5073
11240TIP3   OH255210   3.939   1.932  10.748  0.2678  0.2598 -0.8661
11240TIP3    H155211   3.983   2.015  10.767  1.6311  0.0165 -2.6412
11240TIP3    H255212   3.896   1.948  10.663 -3.0531  0.4258  0.6991
11241TIP3   OH255213   5.480   5.482  15.401  0.3396 -0.5333  0.1424
11241TIP3    H155214   5.504   5.481  15.308  2.5900  0.6059  0.6578
11241TIP3    H255215   5.530   5.410  15.439 -0.1813 -0.6665  0.5807
11242TIP3   OH255216   1.448   3.085   2.842 -0.2791 -0.0855 -0.0063
11242TIP3    H155217   1.372   3.123   2.796 -0.1897 -0.6050 -0.6008
11242TIP3    H255218   1.411   3.047   2.922 -0.5717  0.1069 -0.0477
11243TIP3   OH255219   2.911   1.970   3.079  0.7123 -0.6212  0.0103
11243TIP3    H155220   2.887   1.882   3.107 -0.4767 -0.5883 -0.8345
11243TIP3    H255221   2.853   2.027   3.130 -0.2669 -0.4774 -1.2129
11244TIP3   OH255222   5.684   5.865   3.709 -0.4626  0.2150 -0.5323
11244TIP3    H155223   5.720   5.948   3.678 -0.2760  0.7598  1.0307
11244TIP3    H255224   5.738   5.844   3.786 -1.2216 -0.7810 -0.2598
11245TIP3   OH255225   3.906   2.984  11.559  0.0581  0.4866  0.2560
11245TIP3    H155226   3.944   2.942  11.636 -1.6787 -0.7791  0.4888
11245TIP3    H255227   3.978   3.036  11.522  1.1407  0.5158  2.2679
11246TIP3   OH255228   3.951   4.129  13.557 -0.2712  0.4590  0.5061
11246TIP3    H155229   3.994   4.165  13.480 -1.4859  0.6032 -0.1278
11246TIP3    H255230   3.880   4.074  13.522 -0.3068 -0.1633  1.5044
11247TIP3   OH255231   1.366   1.694   3.828 -0.0555 -0.6684 -0.4305
11247TIP3    H155232   1.317   1.614   3.810  2.4118 -2.6251  0.7884
11247TIP3    H255233   1.394   1.725   3.741  0.8516 -2.5150 -0.8618
11248TIP3   OH255234   0.185   2.870  12.087 -0.0450 -0.3426  0.1711
11248TIP3    H155235   0.204   2.949  12.139 -0.2504 -1.3890  1.9235
11248TIP3    H255236   0.110   2.830  12.131 -1.7797 -0.0668 -2.3765
11249TIP3   OH255237   3.461   0.701  11.285  0.7523 -0.6859  0.3260
11249TIP3    H155238   3.371   0.731  11.300  0.6293 -0.0335 -1.4543
11249TIP3    H255239   3.515   0.757  11.342  0.1784  0.2034  0.0223
11250TIP3   OH255240   5.237   0.590   0.964 -0.1359 -0.1513 -0.0770
11250TIP3    H155241   5.154   0.576   1.009 -0.4223 -1.0095 -0.8205
11250TIP3    H255242   5.213   0.598   0.872  0.5719 -0.0415 -0.2581
11251TIP3   OH255243   0.921   4.206   5.640  0.0430  0.3300 -0.3676
11251TIP3    H155244   0.965   4.252   5.712 -0.8198 -1.6012  1.5053
11251TIP3    H255245   0.959   4.118   5.641 -0.1483  0.1961 -2.1678
11252TIP3   OH255246   2.242   3.632  16.013 -0.5519  0.3194 -0.5529
11252TIP3    H155247   2.271   3.713  16.055  2.9724 -1.5348  0.9734
11252TIP3    H255248   2.252   3.649  15.920  1.3064  1.3196 -0.2324
11253TIP3   OH255249   3.867   4.323   2.415 -0.0265 -0.2848  0.0220
11253TIP3    H155250   3.917   4.385   2.361  0.5317 -0.5604  0.2057
11253TIP3    H255251   3.932   4.257   2.440 -0.0003  0.4151  1.9325
11254TIP3   OH255252   2.344   6.063   1.968  0.0078 -0.3406 -0.1129
11254TIP3    H155253   2.409   6.129   1.991 -0.2075  0.4359 -1.6148
11254TIP3    H255254   2.323   6.080   1.876 -0.8430 -1.8365 -0.2364
11255TIP3   OH255255   3.370   3.374   4.623 -0.2597 -0.0181  0.4109
11255TIP3    H155256   3.358   3.336   4.536  0.8584 -0.0042  0.2365
11255TIP3    H255257   3.281   3.378   4.660 -0.7811  0.1896 -0.8079
11256TIP3   OH255258   2.932   0.326   1.066 -0.0159  0.4845 -0.1650
11256TIP3    H155259   2.921   0.261   1.135  1.5771  0.2349 -0.1288
11256TIP3    H255260   2.912   0.278   0.985  1.4760 -0.1660 -0.1692
11257TIP3   OH255261   6.670   6.627  10.189  0.5187  0.7722  0.8492
11257TIP3    H155262   6.596   6.592  10.139 -1.2655  4.2478  0.7080
11257TIP3    H255263   6.654   6.598  10.279 -1.5374  2.0505  0.9577
11258TIP3   OH255264   0.982   4.955   4.427  0.3194 -0.6717  0.3187
11258TIP3    H155265   0.991   5.037   4.475 -1.8616  0.1040 -0.4883
11258TIP3    H255266   1.055   4.955   4.365 -0.8006  1.7737 -1.1420
11259TIP3   OH255267   4.109   4.543   1.900 -0.5495  0.2335  0.5390
11259TIP3    H155268   4.114   4.511   1.810  1.2882  0.5146  0.4948
11259TIP3    H255269   4.040   4.610   1.897 -0.5752  0.1892 -0.6360
11260TIP3   OH255270   0.176   1.051  13.537  0.5173 -0.0977 -0.0933
11260TIP3    H155271   0.123   1.015  13.466  2.1468 -0.7381 -1.0256
11260TIP3    H255272   0.164   1.146  13.529  0.1351 -0.1954 -0.7684
11261TIP3   OH255273   0.797   0.303   0.598 -0.0288 -0.2116 -0.4018
11261TIP3    H155274   0.886   0.315   0.633 -0.2847  0.1367  0.1447
11261TIP3    H255275   0.771   0.391   0.570 -1.3554  0.3614  2.2607
11262TIP3   OH255276   3.680   2.806  14.358  0.3987  0.0716 -0.2803
11262TIP3    H155277   3.715   2.882  14.312 -1.7458 -0.0585 -2.3229
11262TIP3    H255278   3.714   2.731  14.309 -0.0357 -0.1617 -0.2299
11263TIP3   OH255279   4.095   6.226   1.351  0.5190 -0.0536 -0.1136
11263TIP3    H155280   4.098   6.285   1.427 -0.6817  0.1436 -0.1997
11263TIP3    H255281   4.002   6.205   1.341  0.8290 -1.2135 -0.6678
11264TIP3   OH255282   0.232   3.177   4.685 -0.5850  0.0407 -0.4633
11264TIP3    H155283   0.166   3.156   4.618 -1.2475 -0.5669  0.3624
11264TIP3    H255284   0.278   3.253   4.649  0.0682 -1.1588 -2.2882
11265TIP3   OH255285   0.487   5.985   4.385 -0.2467 -0.1483  0.3728
11265TIP3    H155286   0.524   6.019   4.467  0.4812 -0.9113  0.3719
11265TIP3    H255287   0.508   5.891   4.387 -0.2422 -0.1731 -0.6752
11266TIP3   OH255288   3.957   3.714   1.762 -0.0060 -0.1717  0.2617
11266TIP3    H155289   4.024   3.670   1.814  0.4236 -0.0607 -0.1856
11266TIP3    H255290   3.985   3.700   1.671  0.4557  1.5099  0.1189
11267TIP3   OH255291   5.900   3.594   6.433 -0.0779 -0.1476 -0.1129
11267TIP3    H155292   5.889   3.600   6.338 -0.4007  2.5022  0.0005
11267TIP3    H255293   5.992   3.570   6.445  0.2777  0.6191 -1.1289
11268TIP3   OH255294   3.189   2.334   0.339  0.2945  0.2426  0.3017
11268TIP3    H155295   3.273   2.378   0.353  0.3759  0.2296 -0.1626
11268TIP3    H255296   3.140   2.393   0.283  0.1848  0.0124  0.1537
11269TIP3   OH255297   2.001   1.216  16.759 -0.0594 -0.4597 -0.4317
11269TIP3    H155298   2.013   1.165  16.679  2.2154  0.5587 -0.8055
11269TIP3    H255299   1.950   1.292  16.732  2.3159  0.8722 -1.4228
11270TIP3   OH255300   5.261   5.534  11.539 -0.1644 -0.0879 -0.1957
11270TIP3    H155301   5.277   5.620  11.579 -1.0375  0.2257 -0.4990
11270TIP3    H255302   5.182   5.547  11.486 -0.6826 -1.2468  0.2748
11271TIP3   OH255303   1.399   0.972   0.770  0.6528 -0.0050  0.3046
11271TIP3    H155304   1.374   1.027   0.844  0.9156  0.9030 -0.2618
11271TIP3    H255305   1.412   0.885   0.808 -0.6598  0.0981  1.0675
11272TIP3   OH255306   0.010   5.948  11.117  0.1527 -0.3473 -0.2721
11272TIP3    H155307  -0.036   5.977  11.039  0.6766  0.7325 -0.1993
11272TIP3    H255308  -0.002   5.853  11.118  2.6017 -0.8268 -3.2612
11273TIP3   OH255309   4.108   6.635   3.616 -1.1240 -0.0953  0.0167
11273TIP3    H155310   4.075   6.722   3.640 -5.0902 -1.3270 -0.2461
11273TIP3    H255311   4.173   6.615   3.683  1.0366  3.5333 -0.6946
11274TIP3   OH255312   1.114   1.928   5.588 -0.1705 -0.0733 -0.0986
11274TIP3    H155313   1.135   2.001   5.529 -1.0706  0.6792  0.4839
11274TIP3    H255314   1.140   1.960   5.675 -0.9077 -0.3035  0.2090
11275TIP3   OH255315   3.275   6.807  14.033 -0.5275  0.6781 -0.2387
11275TIP3    H155316   3.341   6.741  14.053 -1.7521 -0.3498  0.6197
11275TIP3    H255317   3.223   6.814  14.113 -2.3417  0.3378 -1.3307
11276TIP3   OH255318   2.911   6.724   2.855  0.2258 -0.3431 -0.1201
11276TIP3    H155319   2.825   6.761   2.835  1.0441  1.9707  0.2954
11276TIP3    H255320   2.973   6.786   2.816  1.7874 -3.1925 -2.5750
11277TIP3   OH255321   5.738   2.354  16.761  0.5962 -0.0968 -0.2181
11277TIP3    H155322   5.701   2.324  16.678  1.6660 -0.6683 -0.4992
11277TIP3    H255323   5.678   2.423  16.790  0.7824  0.8594 -1.9756
11278TIP3   OH255324   3.480   4.927   0.580  0.0604 -0.2813  0.6447
11278TIP3    H155325   3.436   5.007   0.551  0.6674 -1.0457 -2.8614
11278TIP3    H255326   3.571   4.939   0.553  0.5665 -1.4246  1.7495
11279TIP3   OH255327   3.312   2.095  11.805  0.1900 -0.2885  0.3670
11279TIP3    H155328   3.347   2.034  11.740 -2.1637 -1.8066  0.3991
11279TIP3    H255329   3.250   2.149  11.757  1.1038  1.0808  0.6715
11280TIP3   OH255330   4.566   2.653  12.410  0.1030  0.4108  0.6566
11280TIP3    H155331   4.612   2.571  12.397 -0.7571 -0.2328  1.5096
11280TIP3    H255332   4.542   2.682  12.321  0.7348 -0.0557  0.3304
11281TIP3   OH255333   2.071   6.252   5.903  0.4335  0.3212  0.0338
11281TIP3    H155334   2.120   6.188   5.955  1.3426  0.0730 -1.0802
11281TIP3    H255335   2.120   6.334   5.915 -0.1693  0.5915  0.6838
11282TIP3   OH255336   1.761   3.792  17.106 -0.3310 -0.5005 -0.0248
11282TIP3    H155337   1.734   3.859  17.169 -0.1266  0.6238 -1.1099
11282TIP3    H255338   1.704   3.805  17.030  1.4373  0.1996 -1.3024
11283TIP3   OH255339   4.780   3.946  15.690 -0.6591 -0.2660  0.2688
11283TIP3    H155340   4.862   3.917  15.651 -0.0296 -0.0302  1.3479
11283TIP3    H255341   4.792   4.040  15.703  0.3869 -0.7180  3.6373
11284TIP3   OH255342   3.845   1.735  11.363  0.9618 -0.3141  0.3059
11284TIP3    H155343   3.899   1.685  11.423  3.3548  0.1755 -1.2917
11284TIP3    H255344   3.830   1.676  11.289  0.6535  0.0962  0.0322
11285TIP3   OH255345   5.096   0.840  15.272 -0.5664 -0.3548  0.1264
11285TIP3    H155346   5.082   0.764  15.214 -2.9434 -0.2412  0.4495
11285TIP3    H255347   5.040   0.908  15.236  1.0757  1.0840  0.2074
11286TIP3   OH255348   5.497   6.494  12.407  0.1997  0.9453 -0.2994
11286TIP3    H155349   5.494   6.402  12.383  0.5913  1.0544 -0.7781
11286TIP3    H255350   5.577   6.503  12.459 -0.6513  0.7061  1.1002
11287TIP3   OH255351   2.111   6.487  15.893  0.2961  0.0129  0.3634
11287TIP3    H155352   2.093   6.395  15.914 -2.2458 -0.0168 -1.4533
11287TIP3    H255353   2.171   6.484  15.819  1.8782 -0.0833  1.6062
11288TIP3   OH255354   2.419   3.826   3.313  0.1125  0.5833 -0.4240
11288TIP3    H155355   2.433   3.891   3.382 -0.1057 -0.1646  0.3567
11288TIP3    H255356   2.333   3.788   3.334 -0.7009  1.4248 -2.0323
11289TIP3   OH255357   6.099   2.839   2.977 -0.1261 -0.0174  0.4218
11289TIP3    H155358   6.190   2.868   2.965 -0.4538  1.2493  0.8493
11289TIP3    H255359   6.081   2.855   3.070 -1.3622  1.5227 -0.0454
11290TIP3   OH255360   5.338   1.550   2.925 -0.1283  0.0647  0.3536
11290TIP3    H155361   5.432   1.545   2.942 -0.3818 -2.2638  1.5652
11290TIP3    H255362   5.308   1.625   2.977  1.0661  0.8761 -0.1178
11291TIP3   OH255363   1.990   4.818  14.945 -0.2350  0.3664 -0.1555
11291TIP3    H155364   2.000   4.740  14.891  0.6097 -0.5389  1.2380
11291TIP3    H255365   2.061   4.876  14.918  2.2262 -1.4023  2.0491
11292TIP3   OH255366   5.734   6.649   3.363 -0.4531  0.1680 -0.0805
11292TIP3    H155367   5.767   6.625   3.276  0.0819 -1.2567  0.4896
11292TIP3    H255368   5.808   6.690   3.407 -1.1661  2.3723 -0.8008
11293TIP3   OH255369   0.853   3.000   1.639 -0.4578  0.8898  0.3282
11293TIP3    H155370   0.825   2.922   1.687  1.2613  1.3372  2.2010
11293TIP3    H255371   0.949   2.994   1.638 -0.3505  2.2352 -0.8197
11294TIP3   OH255372   4.699   1.392   2.842 -0.0760 -0.4117  0.9270
11294TIP3    H155373   4.762   1.432   2.903  0.2207 -2.8010  2.3302
11294TIP3    H255374   4.614   1.420   2.875  0.0694  3.1690 -1.2154
11295TIP3   OH255375   5.730   0.330  16.001  0.1748 -0.5369 -0.0993
11295TIP3    H155376   5.710   0.276  16.078 -2.2045  1.6353  0.9509
11295TIP3    H255377   5.644   0.352  15.965  1.1942  0.1635 -2.2326
11296TIP3   OH255378   4.439   1.886  12.075 -0.4258  0.1104  0.1625
11296TIP3    H155379   4.404   1.839  11.999 -0.8392  0.7007 -0.0237
11296TIP3    H255380   4.372   1.951  12.096 -0.3236 -0.0613  1.0549
11297TIP3   OH255381   0.251   0.997  11.416  0.4482 -0.4715  0.0140
11297TIP3    H155382   0.263   1.004  11.321  0.4274  0.5601  0.0754
11297TIP3    H255383   0.329   0.950  11.446  1.7826  1.4906 -0.2195
11298TIP3   OH255384   3.586   2.616   0.068  0.3116 -0.7112  0.0990
11298TIP3    H155385   3.492   2.599   0.070  0.5224 -2.0403 -0.3189
11298TIP3    H255386   3.614   2.585  -0.018  1.0032  0.4646 -0.1265
11299TIP3   OH255387   5.935   0.489  16.053  0.3593 -0.3635 -0.1639
11299TIP3    H155388   5.858   0.435  16.038 -1.1653  1.5131  0.4290
11299TIP3    H255389   5.960   0.520  15.966 -1.4229  1.3336 -0.1597
11300TIP3   OH255390   1.697   6.660  14.765 -0.0297  0.3058  0.2203
11300TIP3    H155391   1.686   6.647  14.859  0.2081 -3.0813 -0.1070
11300TIP3    H255392   1.747   6.741  14.758 -0.5742  0.9882  2.9424
11301TIP3   OH255393   6.383   6.814   0.469  0.1472 -0.1590 -0.0729
11301TIP3    H155394   6.363   6.878   0.537 -0.1382 -0.0938 -0.2167
11301TIP3    H255395   6.309   6.753   0.471  1.6514 -2.1020  1.9361
11302TIP3   OH255396   1.097   0.220   1.029  0.4763 -0.0530  0.2617
11302TIP3    H155397   1.162   0.170   0.980  0.3730  0.0927 -0.0220
11302TIP3    H255398   1.141   0.302   1.051  0.7762 -0.4171  1.0554
11303TIP3   OH255399   3.444   4.295   6.452  0.0603 -1.5705 -0.5157
11303TIP3    H155400   3.374   4.360   6.460  1.0561 -0.5641  0.7734
11303TIP3    H255401   3.423   4.228   6.517  1.0332 -0.4534  1.0481
11304TIP3   OH255402   3.400   1.157   1.436  0.5046 -0.1591  0.2948
11304TIP3    H155403   3.495   1.148   1.436  0.4071 -1.5537 -0.2676
11304TIP3    H255404   3.369   1.085   1.491 -0.2046  1.0146  1.5007
11305TIP3   OH255405   5.036   4.931  12.244  0.0085  0.0336 -0.1307
11305TIP3    H155406   5.012   4.862  12.306 -2.7150 -1.2251 -2.3443
11305TIP3    H255407   5.089   4.887  12.178  3.3689  1.4806  1.3809
11306TIP3   OH255408   2.703   5.655  17.035  0.3909 -0.0270 -0.0294
11306TIP3    H155409   2.631   5.648  16.972  2.0539 -1.0286 -1.9220
11306TIP3    H255410   2.671   5.607  17.112 -0.9085 -0.5937 -0.8819
11307TIP3   OH255411   3.156   1.609  12.613  0.8922  0.0008 -0.3187
11307TIP3    H155412   3.182   1.608  12.705 -1.0906 -1.2403  0.2996
11307TIP3    H255413   3.062   1.586  12.614  0.8234 -0.0857 -2.6384
11308TIP3   OH255414   1.777   2.727   5.012  0.1173 -0.2748  0.0520
11308TIP3    H155415   1.740   2.643   4.984  0.5016 -0.3670 -0.1863
11308TIP3    H255416   1.785   2.778   4.931  0.4679 -0.2381  0.1076
11309TIP3   OH255417   1.238   0.657  10.396 -0.5337  0.5794  0.0248
11309TIP3    H155418   1.194   0.605  10.328  0.6795  0.1788 -0.4902
11309TIP3    H255419   1.178   0.730  10.413 -1.0713  0.4486 -1.1725
11310TIP3   OH255420   6.700   1.179   1.690 -0.0293  0.6277 -0.1130
11310TIP3    H155421   6.685   1.222   1.606  2.1271 -0.1870 -0.9792
11310TIP3    H255422   6.703   1.085   1.670 -0.6199  0.3302  1.0734
11311TIP3   OH255423   3.215   3.564   3.049 -0.4186  0.1836  0.6776
11311TIP3    H155424   3.234   3.607   2.965 -0.8035 -0.7873  0.0784
11311TIP3    H255425   3.224   3.471   3.030  1.3019  0.0031  2.1794
11312TIP3   OH255426   4.272   5.797   3.639  0.0859 -0.1256 -0.4160
11312TIP3    H155427   4.258   5.852   3.562  0.1077 -1.4153 -1.3808
11312TIP3    H255428   4.337   5.733   3.611 -0.4786 -1.0974  0.4297
11313TIP3   OH255429   3.502   2.335   0.137  0.2603 -0.3567  0.3632
11313TIP3    H155430   3.528   2.360   0.225 -0.2292  1.0736  0.1355
11313TIP3    H255431   3.425   2.390   0.118 -0.1060 -1.1827 -0.6643
11314TIP3   OH255432   5.016   1.464   2.919 -0.1978 -0.0522 -0.2516
11314TIP3    H155433   5.017   1.550   2.877 -0.3007 -0.3241 -0.8129
11314TIP3    H255434   4.970   1.478   3.002  0.6480  0.6427  0.1164
11315TIP3   OH255435   1.431   1.148   1.313 -0.0956 -0.0266 -0.1869
11315TIP3    H155436   1.453   1.082   1.247 -4.8208 -1.9548 -0.1717
11315TIP3    H255437   1.425   1.099   1.395 -1.5537  0.8324  0.2469
11316TIP3   OH255438   2.387   4.251  12.990  0.6244  0.2554 -0.0071
11316TIP3    H155439   2.307   4.209  13.022  0.6235  0.7741  0.6925
11316TIP3    H255440   2.386   4.338  13.030  1.0988  0.5840 -0.6927
11317TIP3   OH255441   5.944   4.468  14.941 -0.5249 -0.1836 -0.0383
11317TIP3    H155442   5.985   4.485  14.856 -1.0116  0.3692 -0.1684
11317TIP3    H255443   5.998   4.515  15.004  0.6474 -1.7085  0.1517
11318TIP3   OH255444   4.925   1.033  11.027  0.3748  0.4934  0.4289
11318TIP3    H155445   4.875   1.058  11.105  0.8405 -1.2916  1.3445
11318TIP3    H255446   4.952   1.117  10.989 -1.2040  1.4409  1.2736
11319TIP3   OH255447   4.688   2.142   0.849  0.1125 -0.6097 -0.2494
11319TIP3    H155448   4.747   2.207   0.889 -0.3877 -0.8067  0.8622
11319TIP3    H255449   4.735   2.111   0.772  1.4685 -0.7583  0.6018
11320TIP3   OH255450   3.358   6.379   0.309  0.0074 -0.5981 -0.4752
11320TIP3    H155451   3.308   6.460   0.296 -0.3072 -0.7495 -0.2322
11320TIP3    H255452   3.449   6.404   0.292  0.3244  0.5072  2.2723
11321TIP3   OH255453   0.474   2.572   2.185  0.0860  0.2081 -0.3440
11321TIP3    H155454   0.424   2.571   2.266  0.5846  2.7636  0.0829
11321TIP3    H255455   0.410   2.594   2.117 -0.3836 -2.1909 -0.7654
11322TIP3   OH255456   6.710   5.114   2.355 -0.0087  0.1560  0.2710
11322TIP3    H155457   6.731   5.029   2.394  0.0143  1.0397  2.2721
11322TIP3    H255458   6.793   5.146   2.321  0.1414 -0.2457  0.2539
11323TIP3   OH255459   4.184   2.328  16.584  0.7472 -0.0217 -0.3849
11323TIP3    H155460   4.211   2.260  16.522 -1.1294 -0.8264 -0.3922
11323TIP3    H255461   4.112   2.289  16.633 -0.2055  1.8469 -0.1932
11324TIP3   OH255462   2.808   2.668  15.935 -0.3457  0.1688 -0.3035
11324TIP3    H155463   2.832   2.661  16.027 -1.0588  1.2358 -0.0156
11324TIP3    H255464   2.853   2.746  15.904 -1.5956  0.8984 -0.3465
11325TIP3   OH255465   3.342   6.250   1.645 -0.2181 -0.1162  0.4226
11325TIP3    H155466   3.322   6.232   1.737  1.6792 -1.1751  0.6881
11325TIP3    H255467   3.336   6.345   1.636  0.9123  0.1462  2.0258
11326TIP3   OH255468   2.682   6.421   5.757 -0.2530  0.1459 -0.3620
11326TIP3    H155469   2.603   6.377   5.786 -1.3305 -0.1760 -3.4152
11326TIP3    H255470   2.659   6.459   5.672  2.0609  2.4953 -0.0863
11327TIP3   OH255471   2.031   1.420   5.861 -0.1568 -0.9273  0.4122
11327TIP3    H155472   2.096   1.470   5.911  1.4465 -1.3622 -1.1175
11327TIP3    H255473   2.041   1.452   5.771 -2.5676 -0.5549  0.2206
11328TIP3   OH255474   0.115   0.964  16.602 -0.1153  0.0497 -0.3054
11328TIP3    H155475   0.055   0.936  16.533 -0.6373  0.1428  0.1039
11328TIP3    H255476   0.167   1.034  16.562 -0.8139  0.5090 -0.4395
11329TIP3   OH255477   1.212   1.777  16.530  0.6244  0.3481  0.1796
11329TIP3    H155478   1.137   1.810  16.481 -0.6817  0.3902  2.0874
11329TIP3    H255479   1.249   1.855  16.571  0.5187  0.0861  0.7805
11330TIP3   OH255480   0.510   5.424   4.153 -0.3827  0.2835 -0.3718
11330TIP3    H155481   0.462   5.488   4.101  0.1895 -1.7045 -3.6084
11330TIP3    H255482   0.571   5.475   4.206 -3.1506  2.6101  0.8338
11331TIP3   OH255483   0.375   1.865  14.223  0.0557 -0.1460  0.5615
11331TIP3    H155484   0.298   1.920  14.237 -0.9777 -1.3837 -0.1117
11331TIP3    H255485   0.447   1.914  14.264 -0.8363  1.6450  0.0601
11332TIP3   OH255486   0.747   4.137   1.357  0.4789 -1.2979 -0.1096
11332TIP3    H155487   0.736   4.139   1.452  0.1154 -1.9981 -0.1305
11332TIP3    H255488   0.699   4.059   1.329 -0.4541 -0.4387 -1.0073
11333TIP3   OH255489   2.101   3.191  15.118 -0.5171  0.0088  0.1699
11333TIP3    H155490   2.116   3.151  15.033 -0.1853  1.6277 -0.5775
11333TIP3    H255491   2.155   3.141  15.179 -1.9462 -2.1637 -0.2460
11334TIP3   OH255492   6.440   0.014  14.035 -0.0938  0.0572  0.3841
11334TIP3    H155493   6.502   0.069  13.988 -2.0917  1.4132 -0.8045
11334TIP3    H255494   6.358   0.063  14.033 -1.3819 -1.9324  1.3499
11335TIP3   OH255495   6.669   0.473  14.659 -0.2616 -0.4021  0.0387
11335TIP3    H155496   6.606   0.507  14.721  0.1164 -0.7788  0.6371
11335TIP3    H255497   6.666   0.534  14.585  0.0920  0.6930  0.9015
11336TIP3   OH255498   1.870   3.221  14.225 -0.3145 -0.0288  0.0777
11336TIP3    H155499   1.779   3.245  14.244 -0.0762  1.6023 -0.6490
11336TIP3    H255500   1.899   3.175  14.304 -1.2828  0.8801  1.0077
11337TIP3   OH255501   0.432   5.864  15.797  0.1593 -0.5283 -0.2283
11337TIP3    H155502   0.355   5.817  15.762 -0.2791 -0.6631  0.8698
11337TIP3    H255503   0.494   5.794  15.817  0.4712 -0.4389 -0.8490
11338TIP3   OH255504   0.096   2.169   5.754 -0.1821  0.2562  0.2892
11338TIP3    H155505   0.104   2.119   5.835  0.8117  0.3810  0.2772
11338TIP3    H255506   0.004   2.158   5.729  0.0109 -1.6202  0.2500
11339TIP3   OH255507   6.812   0.938   3.882 -0.2184  0.1395 -0.1668
11339TIP3    H155508   6.803   0.967   3.973  1.4961  0.7863 -0.1626
11339TIP3    H255509   6.727   0.956   3.843 -1.0897 -0.4423  1.3753
11340TIP3   OH255510   5.835   2.558  15.549  0.7206 -0.1031 -0.2126
11340TIP3    H155511   5.769   2.610  15.595 -1.1171 -1.7888 -0.7975
11340TIP3    H255512   5.882   2.621  15.495 -2.3673  0.8774 -1.9934
11341TIP3   OH255513   1.424   5.080  11.457  0.4308 -0.3655  0.0912
11341TIP3    H155514   1.342   5.032  11.444  0.7138 -1.0362  0.6836
11341TIP3    H255515   1.480   5.018  11.505  0.0887  1.2553  2.8033
11342TIP3   OH255516   3.753   1.310  11.959  0.1680  0.5284  0.2029
11342TIP3    H155517   3.780   1.400  11.977 -0.9418  0.7853  0.6270
11342TIP3    H255518   3.664   1.317  11.927  0.2975 -0.3803 -0.3821
11343TIP3   OH255519   5.143   2.858   3.089  0.4913  0.4408 -0.3634
11343TIP3    H155520   5.101   2.932   3.045 -0.0649 -0.0926 -0.7419
11343TIP3    H255521   5.104   2.856   3.176  1.4836  1.4052  0.1447
11344TIP3   OH255522   3.650   0.647  13.557 -0.1384  0.1035 -0.6126
11344TIP3    H155523   3.588   0.660  13.485  0.7087  0.0169 -1.3818
11344TIP3    H255524   3.653   0.732  13.601 -1.5170 -0.1619  0.0467
11345TIP3   OH255525   0.333   3.357   0.407 -0.0846 -0.2332 -0.7254
11345TIP3    H155526   0.294   3.408   0.336 -0.1733  1.0586  0.2229
11345TIP3    H255527   0.270   3.286   0.424 -0.2840 -0.2757 -1.5997
11346TIP3   OH255528   5.747   1.713   3.981  0.1801 -0.5090  0.2966
11346TIP3    H155529   5.834   1.729   4.020 -0.1459 -1.3814  1.4118
11346TIP3    H255530   5.686   1.727   4.053 -0.7051  0.8964 -0.6740
11347TIP3   OH255531   3.156   4.987   5.318  0.3643  0.0225 -0.1114
11347TIP3    H155532   3.238   4.938   5.323  1.0443  1.1888  0.6763
11347TIP3    H255533   3.120   4.983   5.406  1.3980  2.4690  0.5004
11348TIP3   OH255534   4.334   6.792  13.817 -0.0747 -0.0697  0.3502
11348TIP3    H155535   4.349   6.853  13.890  0.6466 -0.7836  0.8123
11348TIP3    H255536   4.286   6.844  13.752 -1.6763  0.2801  1.7620
11349TIP3   OH255537   5.648   1.163   5.734 -0.2156  0.6560 -0.0119
11349TIP3    H155538   5.602   1.224   5.791 -1.0988  0.9017 -0.9599
11349TIP3    H255539   5.605   1.079   5.748 -1.1525  0.9402 -1.0916
11350TIP3   OH255540   1.463   2.411   4.123 -0.1506 -0.3361 -0.0708
11350TIP3    H155541   1.390   2.348   4.120 -0.6546  0.2344  0.0820
11350TIP3    H255542   1.540   2.359   4.099 -0.1033 -1.6793  2.5858
11351TIP3   OH255543   3.461   6.139  14.210 -0.3214 -0.0398  0.5540
11351TIP3    H155544   3.505   6.220  14.237  0.3816 -0.6326  1.2425
11351TIP3    H255545   3.522   6.097  14.149 -0.6605 -0.0754  0.2383
11352TIP3   OH255546   0.448   2.664  13.877 -0.0376 -0.3398 -0.8621
11352TIP3    H155547   0.524   2.661  13.934 -0.9031  0.5938  0.4086
11352TIP3    H255548   0.430   2.758  13.867 -2.1439 -0.5331  0.4770
11353TIP3   OH255549   1.809   2.585   5.694 -0.2127  0.3092  0.0711
11353TIP3    H155550   1.807   2.500   5.650 -0.3944  0.9278 -1.1794
11353TIP3    H255551   1.718   2.603   5.717 -0.5169  1.0829 -1.5812
11354TIP3   OH255552   5.189   5.960  15.804 -0.1025  0.0817  0.1213
11354TIP3    H155553   5.211   5.869  15.822  1.2653  0.3927  0.1735
11354TIP3    H255554   5.170   5.998  15.890  0.8309  0.1911  0.2949
11355TIP3   OH255555   5.045   0.633  12.872 -0.3340 -0.4690  0.0422
11355TIP3    H155556   5.127   0.679  12.890 -1.5408  0.9928  2.3570
11355TIP3    H255557   5.004   0.622  12.958 -3.0729 -0.0830 -1.0865
11356TIP3   OH255558   3.694   0.987   1.678  0.2450  0.6028 -0.0819
11356TIP3    H155559   3.667   0.896   1.690  1.2298  0.2291 -0.6071
11356TIP3    H255560   3.686   1.026   1.765 -1.6931  0.4587 -0.1496
11357TIP3   OH255561   6.163   4.423  11.050 -0.3010  0.0247  0.5073
11357TIP3    H155562   6.108   4.499  11.070 -0.9514 -0.3136  0.0563
11357TIP3    H255563   6.104   4.348  11.063  0.1712 -0.3676  0.3934
11358TIP3   OH255564   3.160   4.783  11.574 -0.1256  0.4767 -0.0851
11358TIP3    H155565   3.189   4.868  11.608 -1.0234 -0.0599  2.1693
11358TIP3    H255566   3.065   4.792  11.566 -0.1657 -0.1488 -0.3328
11359TIP3   OH255567   3.668   1.576  16.045  0.4071 -0.2648 -0.4692
11359TIP3    H155568   3.680   1.647  16.107  0.5239 -1.4828  0.9704
11359TIP3    H255569   3.742   1.583  15.985  1.3027 -0.0987  0.6153
11360TIP3   OH255570   0.060   0.084  14.176  0.3039 -0.0109 -0.3071
11360TIP3    H155571   0.061  -0.005  14.141  0.5434  0.0404 -0.4369
11360TIP3    H255572   0.031   0.138  14.102  0.3522  0.0411 -0.2883
11361TIP3   OH255573   6.113   5.448  17.037  0.2854  0.1534 -0.4038
11361TIP3    H155574   6.128   5.514  16.970 -0.5192 -0.9300 -1.7101
11361TIP3    H255575   6.028   5.469  17.074  0.5844  0.5618  0.0612
11362TIP3   OH255576   2.022   3.416  12.420 -0.4420 -0.6074 -0.2259
11362TIP3    H155577   2.089   3.361  12.380  0.4202 -0.1529  0.5504
11362TIP3    H255578   2.045   3.417  12.513 -1.5807 -0.5113  0.0608
11363TIP3   OH255579   1.272   6.313  14.337 -0.1811 -0.1058 -0.4220
11363TIP3    H155580   1.275   6.309  14.433  0.4483  0.9841 -0.3801
11363TIP3    H255581   1.346   6.259  14.309 -0.0496 -0.0010 -0.2793
11364TIP3   OH255582   0.231   3.827  15.463 -0.3141  0.5026  0.3896
11364TIP3    H155583   0.236   3.921  15.444 -0.3157 -0.0470 -2.7526
11364TIP3    H255584   0.178   3.791  15.392 -0.3898 -1.8961  1.5889
11365TIP3   OH255585   6.120   2.968  15.808  0.3574  0.2945  0.5141
11365TIP3    H155586   6.193   2.906  15.801  0.4243  0.3551  0.6611
11365TIP3    H255587   6.107   2.978  15.903  1.1555  1.4491  0.5210
11366TIP3   OH255588   1.777   2.836   1.901  0.4854 -0.2897  0.4883
11366TIP3    H155589   1.866   2.852   1.931  0.8241 -0.9953 -0.1012
11366TIP3    H255590   1.755   2.750   1.939  0.2439 -0.3421  0.2309
11367TIP3   OH255591   2.666   2.994  16.371 -0.0492  0.4269  0.1199
11367TIP3    H155592   2.639   2.922  16.427  0.0091  0.1619 -0.1909
11367TIP3    H255593   2.670   2.956  16.283  2.8453  0.0441  0.3208
11368TIP3   OH255594   6.126   2.422  16.813 -0.5658 -0.0315  0.2964
11368TIP3    H155595   6.067   2.408  16.887 -0.4993 -0.3087  0.2994
11368TIP3    H255596   6.184   2.346  16.813  0.5307  0.7644  0.9726
11369TIP3   OH255597   5.465   4.705   4.992 -0.0803  0.4372 -0.1141
11369TIP3    H155598   5.505   4.694   4.906 -1.6738 -1.2504 -0.6952
11369TIP3    H255599   5.521   4.769   5.036  2.4003 -0.7153 -1.3711
11370TIP3   OH255600   3.067   5.694   4.744 -0.6473 -0.5295 -0.4962
11370TIP3    H155601   3.038   5.604   4.735 -0.5936 -0.6189  0.1729
11370TIP3    H255602   3.143   5.689   4.803 -0.6859 -0.0446 -0.3984
11371TIP3   OH255603   3.723   6.720   1.579 -0.3614  0.2075 -0.4083
11371TIP3    H155604   3.815   6.712   1.604 -0.6419  0.5864  0.8111
11371TIP3    H255605   3.681   6.645   1.621 -0.5436 -0.2262 -1.3453
11372TIP3   OH255606   3.379   3.791   3.223 -0.1526 -0.7309  0.0905
11372TIP3    H155607   3.452   3.782   3.284 -1.9614  1.2494  2.8315
11372TIP3    H255608   3.384   3.882   3.192 -1.2433 -0.6481  0.1055
11373TIP3   OH255609   1.689   3.313   0.701 -1.0783 -0.3711  0.0064
11373TIP3    H155610   1.606   3.328   0.746  0.1750 -0.8622  2.7434
11373TIP3    H255611   1.686   3.220   0.676 -0.7626 -0.8429  1.5933
11374TIP3   OH255612   6.077   0.462  12.263  0.3311 -0.1823 -0.3204
11374TIP3    H155613   6.106   0.415  12.341 -1.1483 -0.6578 -0.0347
11374TIP3    H255614   5.986   0.483  12.280  0.5256  1.4429 -1.1107
11375TIP3   OH255615   1.192   2.663   3.316 -0.3707  0.2870 -0.0027
11375TIP3    H155616   1.193   2.571   3.342  0.4313  0.7266  1.7157
11375TIP3    H255617   1.105   2.677   3.279 -0.7905 -0.9799  0.4521
11376TIP3   OH255618   6.321   2.495   3.830 -0.2966  0.2826  0.0140
11376TIP3    H155619   6.298   2.411   3.791 -0.6549  0.5845 -0.4299
11376TIP3    H255620   6.360   2.545   3.759  0.2111  0.3792  0.3571
11377TIP3   OH255621   2.334   5.991  14.124 -0.0374  0.3659 -0.2753
11377TIP3    H155622   2.257   5.945  14.090  0.4719  0.4342 -1.5831
11377TIP3    H255623   2.362   6.048  14.052  1.7349 -0.2751 -0.1473
11378TIP3   OH255624   5.768   1.177  13.095  0.3132  0.4423 -0.6583
11378TIP3    H155625   5.690   1.170  13.150  0.6198 -0.9595 -0.3606
11378TIP3    H255626   5.829   1.230  13.146  0.6682 -1.0042  0.4920
11379TIP3   OH255627   6.812   6.476   0.167  0.0372 -0.0724 -0.2890
11379TIP3    H155628   6.775   6.551   0.121 -0.7880  0.0962  0.6283
11379TIP3    H255629   6.743   6.410   0.165 -0.2680  0.1639  1.2301
11380TIP3   OH255630   0.829   2.446   4.469 -0.1361  0.2778  0.7860
11380TIP3    H155631   0.851   2.538   4.482 -0.5297  0.1708  2.3703
11380TIP3    H255632   0.771   2.424   4.542 -1.0572 -0.8982 -0.2474
11381TIP3   OH255633   2.120   0.468  12.157 -0.1188 -0.3607 -0.0499
11381TIP3    H155634   2.182   0.399  12.178  0.0360 -0.3983 -0.6240
11381TIP3    H255635   2.132   0.484  12.064 -0.4472  0.1502 -0.0098
11382TIP3   OH255636   5.524   2.902   3.229  0.1334 -0.1287 -0.3526
11382TIP3    H155637   5.529   2.942   3.317 -0.5383 -0.8445  0.0205
11382TIP3    H255638   5.596   2.840   3.227 -0.6928 -1.1387  0.2371
11383TIP3   OH255639   6.220   3.380  11.592 -0.0218 -0.0699  0.0910
11383TIP3    H155640   6.203   3.470  11.621 -0.9363 -0.2935  0.2658
11383TIP3    H255641   6.231   3.387  11.497 -0.6615  0.1552  0.0285
11384TIP3   OH255642   5.683   1.518  13.226  0.5531  0.1992 -0.2387
11384TIP3    H155643   5.682   1.578  13.301 -1.1786  1.9801 -1.5834
11384TIP3    H255644   5.774   1.520  13.197  0.7152  1.5805  0.2512
11385TIP3   OH255645   1.769   5.573  12.711  0.2566  0.1044  0.2101
11385TIP3    H155646   1.819   5.526  12.777 -1.4581 -0.7645  0.9744
11385TIP3    H255647   1.833   5.624  12.663  1.7243 -0.2436  1.7191
11386TIP3   OH255648   3.937   4.878   3.147  0.6005  0.0197 -0.3420
11386TIP3    H155649   4.016   4.919   3.110  0.7432 -0.5141 -0.6438
11386TIP3    H255650   3.871   4.947   3.144  1.4352  0.9592  1.3082
11387TIP3   OH255651   0.767   1.805   4.432 -0.3146  0.1646 -0.3704
11387TIP3    H155652   0.837   1.761   4.384 -0.5721  0.3652 -0.9423
11387TIP3    H255653   0.778   1.898   4.410  0.1339  0.3886  0.7071
11388TIP3   OH255654   2.932   1.832   1.103  0.7135  0.4087 -0.4576
11388TIP3    H155655   2.921   1.910   1.048 -0.5162  0.4257 -0.2083
11388TIP3    H255656   2.937   1.760   1.041  0.8333  0.5761 -0.6453
11389TIP3   OH255657   2.612   5.208  16.722  0.0562 -0.5998 -0.1076
11389TIP3    H155658   2.572   5.294  16.733  1.2747 -0.0487  0.1782
11389TIP3    H255659   2.539   5.149  16.706 -0.7997  0.4817 -0.2602
11390TIP3   OH255660   2.266   1.310  12.994  0.1283 -0.0142 -0.2223
11390TIP3    H155661   2.205   1.306  12.920  0.6234  0.4246 -0.6655
11390TIP3    H255662   2.294   1.402  12.996  2.9408 -0.7189 -1.8265
11391TIP3   OH255663   4.126   5.928  15.086 -0.1642  0.0059 -0.0778
11391TIP3    H155664   4.092   5.857  15.140  1.9421 -2.9282 -2.2373
11391TIP3    H255665   4.048   5.971  15.051 -1.6039 -2.3144  0.0586
11392TIP3   OH255666   2.462   6.739  12.163 -0.0639 -0.2137  0.0033
11392TIP3    H155667   2.530   6.743  12.231 -0.0916  0.6476 -0.0012
11392TIP3    H255668   2.384   6.707  12.209 -0.1799  0.7049  0.4848
11393TIP3   OH255669   3.103   3.856   0.809 -0.0801 -0.7098 -0.2072
11393TIP3    H155670   3.090   3.915   0.735 -0.0506 -0.8861 -0.3523
11393TIP3    H255671   3.109   3.914   0.885  1.4755 -0.3922 -0.5230
11394TIP3   OH255672   5.867   2.971  11.954 -0.0746 -0.0094  0.1241
11394TIP3    H155673   5.928   3.042  11.977 -1.4873  0.7702  1.6504
11394TIP3    H255674   5.812   3.008  11.885  1.3019 -0.8244 -1.4883
11395TIP3   OH255675   0.094   6.414   2.995 -0.0975  0.3925  0.1804
11395TIP3    H155676   0.111   6.352   3.066 -1.2695  0.1180  0.2507
11395TIP3    H255677   0.161   6.481   3.004 -0.6976  0.7955  2.0703
11396TIP3   OH255678   1.402   2.524   1.868  0.2508  0.3906 -0.3612
11396TIP3    H155679   1.411   2.607   1.916  0.3543  0.0117  0.2801
11396TIP3    H255680   1.335   2.476   1.916 -0.8445  0.6773 -1.5655
11397TIP3   OH255681   2.493   3.223  15.223 -0.5071 -0.1277 -0.3821
11397TIP3    H155682   2.587   3.225  15.242 -0.3090 -1.8646 -0.9377
11397TIP3    H255683   2.453   3.187  15.303 -0.5004 -0.8050 -0.6724
11398TIP3   OH255684   2.655   2.367   2.330  0.1596 -0.4726  0.4101
11398TIP3    H155685   2.646   2.296   2.267 -1.7367 -1.6539  1.8694
11398TIP3    H255686   2.567   2.377   2.367  0.8607  1.1797  1.7694
11399TIP3   OH255687   1.324   0.379  13.488  0.4707  0.0072 -0.2676
11399TIP3    H155688   1.234   0.410  13.483 -0.1541 -1.8190 -1.3717
11399TIP3    H255689   1.352   0.371  13.396  1.0365 -1.3313 -0.0075
11400TIP3   OH255690   3.169   3.426  15.543 -0.9466 -0.8268  0.1373
11400TIP3    H155691   3.193   3.519  15.543  0.2768 -1.0676 -2.0713
11400TIP3    H255692   3.075   3.425  15.526 -0.9133 -0.0044 -0.1476
11401TIP3   OH255693   2.893   2.479  13.009 -0.4339  0.3378  0.5391
11401TIP3    H155694   2.872   2.547  12.947 -1.5408  0.0717  0.6061
11401TIP3    H255695   2.891   2.398  12.958  0.6649  0.3193  0.5025
11402TIP3   OH255696   2.401   3.470   4.284 -0.1061 -0.4087 -0.0926
11402TIP3    H155697   2.333   3.470   4.353 -1.6827  1.0003 -1.5678
11402TIP3    H255698   2.425   3.561   4.274  0.9388 -0.7366 -0.6555
11403TIP3   OH255699   1.306   6.702  12.470 -0.1726 -0.2471 -0.2229
11403TIP3    H155700   1.221   6.708  12.515  0.3501  1.0340  0.6384
11403TIP3    H255701   1.332   6.610  12.480 -0.5086 -0.2022  1.2891
11404TIP3   OH255702   0.663   0.427  11.850 -0.5837  0.4547  0.4835
11404TIP3    H155703   0.694   0.517  11.864 -2.0519  0.9055  1.0407
11404TIP3    H255704   0.606   0.434  11.773  0.1710 -0.2274 -0.1447
11405TIP3   OH255705   2.010   3.965  14.655  0.1338 -0.4011 -0.3142
11405TIP3    H155706   2.099   3.997  14.673 -0.4830  1.1489  0.1487
11405TIP3    H255707   1.953   4.030  14.695 -1.2425 -0.8410 -1.4842
11406TIP3   OH255708   3.312   2.238   4.824  0.3237 -0.0139  0.2425
11406TIP3    H155709   3.352   2.213   4.740  1.1426 -4.2667  1.6732
11406TIP3    H255710   3.384   2.233   4.887 -1.0511 -1.0303  1.8106
11407TIP3   OH255711   0.409   0.645  15.201 -0.1555  0.6739  0.5559
11407TIP3    H155712   0.329   0.689  15.171 -0.6122  0.9731  2.1558
11407TIP3    H255713   0.442   0.600  15.123 -2.3589 -0.1980  0.0604
11408TIP3   OH255714   2.779   5.789  15.812 -0.4795 -0.0617  0.1395
11408TIP3    H155715   2.861   5.838  15.823 -0.8761  0.9384 -1.0670
11408TIP3    H255716   2.792   5.736  15.734 -0.7788 -0.3134  0.2584
11409TIP3   OH255717   4.558   6.069  16.849  0.2162 -0.6205 -0.4265
11409TIP3    H155718   4.493   6.020  16.799  0.1760 -1.3709  0.3422
11409TIP3    H255719   4.639   6.058  16.799  0.1222 -1.1471 -0.4731
11410TIP3   OH255720   4.486   1.630   5.255  0.1074  0.6278 -0.4071
11410TIP3    H155721   4.455   1.719   5.270  1.7504  1.3671 -1.0877
11410TIP3    H255722   4.551   1.615   5.323 -1.0339 -0.5521  0.4668
11411TIP3   OH255723   1.009   1.122   4.499  0.1302  0.4485  0.0594
11411TIP3    H155724   1.103   1.131   4.485 -0.1208  0.0793 -2.4150
11411TIP3    H255725   0.969   1.161   4.421 -1.8212  1.2581  1.3799
11412TIP3   OH255726   1.613   1.914   4.932 -0.5576  0.5176 -0.0097
11412TIP3    H155727   1.539   1.974   4.925  0.0734  1.3707  0.5609
11412TIP3    H255728   1.607   1.879   5.021 -0.1001  0.8237  0.1432
11413TIP3   OH255729   3.784   3.398  14.565 -0.8717 -0.0457  0.5472
11413TIP3    H155730   3.730   3.467  14.605 -1.3613 -1.0463  1.7034
11413TIP3    H255731   3.871   3.410  14.604 -0.3208  1.3203 -1.0129
11414TIP3   OH255732   6.353   5.351   5.787  0.4382 -0.1418 -0.1588
11414TIP3    H155733   6.380   5.302   5.865 -1.7903  0.4796  1.0876
11414TIP3    H255734   6.278   5.301   5.752  1.1607 -0.1993 -1.7124
11415TIP3   OH255735   4.352   3.583  14.491  0.0788  0.5416 -0.0786
11415TIP3    H155736   4.304   3.633  14.425  0.7300  0.1620 -0.8570
11415TIP3    H255737   4.378   3.648  14.556 -1.0443  0.8311  0.1012
11416TIP3   OH255738   1.165   3.161  14.036  0.6901  0.5085 -0.4689
11416TIP3    H155739   1.230   3.092  14.042  1.5616  1.4226  2.1877
11416TIP3    H255740   1.212   3.237  14.001  0.5526  0.6269 -0.4034
11417TIP3   OH255741   3.358   2.459  14.538 -0.1100 -0.0265 -0.2771
11417TIP3    H155742   3.435   2.405  14.528 -0.4795 -0.7228  0.5667
11417TIP3    H255743   3.284   2.398  14.537 -0.6159  0.5658 -0.4555
11418TIP3   OH255744   4.937   2.891   2.573 -0.5379 -0.6598 -0.0965
11418TIP3    H155745   4.896   2.920   2.492  0.8038 -1.0968 -0.9502
11418TIP3    H255746   4.896   2.946   2.641 -1.2158  0.1475 -1.1245
11419TIP3   OH255747   4.042   0.416  16.751 -0.2877 -0.1995  0.1452
11419TIP3    H155748   4.009   0.501  16.724  0.7776 -0.4599 -2.2605
11419TIP3    H255749   3.970   0.376  16.800 -1.4809  1.3257 -0.2973
11420TIP3   OH255750   5.978   6.386   4.997 -0.4807  0.2149  0.1038
11420TIP3    H155751   5.934   6.395   4.913  0.0009 -0.6634 -0.2642
11420TIP3    H255752   6.017   6.298   4.994 -1.8452 -0.5186  1.9072
11421TIP3   OH255753   4.470   2.861   6.154  0.0609  0.7327 -0.4111
11421TIP3    H155754   4.441   2.773   6.177  0.7892  0.8987  1.2848
11421TIP3    H255755   4.564   2.853   6.137 -0.0104  1.0617 -1.0214
11422TIP3   OH255756   0.705   2.820   2.036  0.1138 -0.7110  0.3935
11422TIP3    H155757   0.644   2.809   1.963 -0.2425  2.2040  0.1466
11422TIP3    H255758   0.674   2.759   2.103 -1.8336 -0.7580 -0.4982
11423TIP3   OH255759   3.328   6.042   4.929  0.3828  0.2717 -0.8137
11423TIP3    H155760   3.237   6.014   4.941  0.7442 -1.3621 -1.6314
11423TIP3    H255761   3.359   6.059   5.018 -0.1856 -0.9614 -0.3522
11424TIP3   OH255762   5.026   4.619   2.326  0.3382  0.4601 -0.2838
11424TIP3    H155763   4.997   4.708   2.347  1.0209  0.6592 -0.1813
11424TIP3    H255764   5.067   4.587   2.406  0.0789  0.0438 -0.3159
11425TIP3   OH255765   3.980   0.858   1.751  0.1437 -0.0402  0.0494
11425TIP3    H155766   3.980   0.907   1.833 -0.8842  0.6449 -0.3452
11425TIP3    H255767   3.897   0.880   1.709  0.8069 -0.0708 -1.3567
11426TIP3   OH255768   3.026   6.478  11.341 -0.3969  0.4888 -0.1883
11426TIP3    H155769   3.092   6.415  11.309 -1.7008 -0.2148 -1.6308
11426TIP3    H255770   3.076   6.557  11.360  1.1277 -0.6010  0.5879
11427TIP3   OH255771   2.270   0.692  16.945  1.0922 -0.0614  0.0270
11427TIP3    H155772   2.266   0.599  16.966  1.2003 -0.3925 -1.3780
11427TIP3    H255773   2.247   0.698  16.853  1.5260  1.2575 -0.0211
11428TIP3   OH255774   5.847   0.709   3.405  0.2935 -0.3464  0.5759
11428TIP3    H155775   5.797   0.722   3.486 -1.8695  1.7564 -0.9569
11428TIP3    H255776   5.938   0.715   3.432 -0.3366 -0.3647  2.9480
11429TIP3   OH255777   2.030   6.247  14.595 -0.2088 -0.3950 -0.2959
11429TIP3    H155778   1.937   6.242  14.572 -0.5477  1.3670  0.5381
11429TIP3    H255779   2.073   6.277  14.516 -0.4092 -0.7316 -0.5370
11430TIP3   OH255780   3.486   5.182   0.783  0.3398 -0.0288  0.2112
11430TIP3    H155781   3.545   5.106   0.782 -0.3008 -0.5497 -1.9486
11430TIP3    H255782   3.500   5.221   0.870  1.8450 -1.6877  0.7872
11431TIP3   OH255783   5.824   0.637   0.825  0.0336 -0.1973 -0.5441
11431TIP3    H155784   5.916   0.647   0.802  0.4391 -1.5768  0.3490
11431TIP3    H255785   5.778   0.637   0.741  0.6953  1.6346 -0.9402
11432TIP3   OH255786   4.203   0.676  15.546 -0.4663  0.7390 -0.3405
11432TIP3    H155787   4.152   0.696  15.467 -0.7910  3.3120  0.4218
11432TIP3    H255788   4.150   0.711  15.618 -0.3661 -1.8657  1.1332
11433TIP3   OH255789   1.151   2.059   6.440 -0.6548  0.4472 -0.1094
11433TIP3    H155790   1.124   2.103   6.520 -1.1514 -0.1503  0.0530
11433TIP3    H255791   1.240   2.093   6.423 -0.8971  1.2554  0.1839
11434TIP3   OH255792   5.222   0.284  13.020  0.0850 -0.1707  0.4416
11434TIP3    H155793   5.202   0.360  12.965 -0.8799 -0.5139  0.2891
11434TIP3    H255794   5.186   0.306  13.106  0.2201 -0.2580  0.5202
11435TIP3   OH255795   0.841   3.352  13.457  0.1798 -0.0715  0.2062
11435TIP3    H155796   0.904   3.292  13.496  0.9959 -0.4975 -1.6430
11435TIP3    H255797   0.775   3.295  13.416  0.1669  0.3047 -0.3104
11436TIP3   OH255798   3.325   6.425  11.504  0.2707  0.6931 -0.9087
11436TIP3    H155799   3.322   6.405  11.410 -0.6420 -1.7367 -0.4369
11436TIP3    H255800   3.417   6.416  11.528  0.3684  0.3643 -1.3974
11437TIP3   OH255801   2.747   4.804  12.236 -0.5631 -0.9054  0.4331
11437TIP3    H155802   2.722   4.877  12.179 -0.6684 -1.4835 -0.2775
11437TIP3    H255803   2.667   4.783  12.285 -0.5660 -0.6234  0.5485
11438TIP3   OH255804   3.009   4.314  12.018 -0.5365 -0.5689  0.5365
11438TIP3    H155805   3.025   4.336  11.926  0.9267 -1.8188  0.4504
11438TIP3    H255806   2.967   4.392  12.054  1.1927  0.9673 -0.5798
11439TIP3   OH255807   0.938   5.722  15.985 -0.1081  0.1190 -0.4340
11439TIP3    H155808   0.859   5.775  15.969 -0.8236 -0.4468  1.0512
11439TIP3    H255809   0.915   5.634  15.956  0.0789  0.0166 -0.2762
11440TIP3   OH255810   4.896   4.890   1.613 -0.0993  0.4801  0.1046
11440TIP3    H155811   4.932   4.845   1.689 -0.1187  1.3986  0.6681
11440TIP3    H255812   4.850   4.821   1.565  0.2664 -0.1955  0.6953
11441TIP3   OH255813   4.744   5.792   0.178 -0.1708  0.3662  0.0026
11441TIP3    H155814   4.649   5.789   0.180 -0.1495 -0.7496 -0.0292
11441TIP3    H255815   4.772   5.714   0.226  0.7572  1.7538  1.8383
11442TIP3   OH255816   6.725   6.086  16.398  0.5948 -0.0200  0.2814
11442TIP3    H155817   6.752   6.149  16.332  0.5144  0.4258  0.6675
11442TIP3    H255818   6.646   6.123  16.436  0.1312 -0.7215  0.0077
11443TIP3   OH255819   3.831   2.833   2.804 -0.1957 -0.2206 -0.6046
11443TIP3    H155820   3.915   2.796   2.776  0.9301  0.8634  1.1017
11443TIP3    H255821   3.827   2.813   2.898 -2.4140 -1.2140 -0.8496
11444TIP3   OH255822   0.339   0.197  13.323 -0.4335  0.1262  0.0511
11444TIP3    H155823   0.362   0.174  13.413  0.1070  1.4543  0.2709
11444TIP3    H255824   0.269   0.262  13.332 -0.4789  0.1537 -0.4873
11445TIP3   OH255825   3.739   1.964   6.543  0.1742  0.7964  0.0533
11445TIP3    H155826   3.791   1.921   6.476 -1.0715 -0.3575 -0.2300
11445TIP3    H255827   3.721   1.895   6.608 -1.7496  0.8733 -0.3375
11446TIP3   OH255828   4.527   5.916   6.165  0.4171 -0.3017 -0.5931
11446TIP3    H155829   4.592   5.984   6.186  1.5717 -1.8288  1.0402
11446TIP3    H255830   4.504   5.877   6.249 -2.3830 -0.1167 -1.1774
11447TIP3   OH255831   5.037   0.579  10.977 -0.1413 -0.2817 -0.6342
11447TIP3    H155832   5.058   0.672  10.982 -0.5194 -0.2697  1.3665
11447TIP3    H255833   5.079   0.550  10.896 -1.2529  1.9030 -2.1130
11448TIP3   OH255834   3.566   2.654   3.748 -0.4102  0.8789 -0.0373
11448TIP3    H155835   3.661   2.662   3.744 -0.4053  2.7241  1.8532
11448TIP3    H255836   3.552   2.571   3.794  0.1696 -0.4889 -2.1971
11449TIP3   OH255837   4.287   0.610  10.594  0.2452 -0.0066  0.4796
11449TIP3    H155838   4.320   0.700  10.589 -0.6162  0.2881 -0.2390
11449TIP3    H255839   4.206   0.612  10.542  0.8368 -1.4827 -0.5577
11450TIP3   OH255840   5.749   6.268   2.126 -0.3204  0.0281  0.2122
11450TIP3    H155841   5.726   6.355   2.159 -0.0150  0.0833  0.2868
11450TIP3    H255842   5.843   6.274   2.108 -0.7973  0.6466 -2.6209
11451TIP3   OH255843   2.806   5.242   2.005  0.2858  0.0953  0.1108
11451TIP3    H155844   2.765   5.219   2.088  0.4391  0.2620  0.2318
11451TIP3    H255845   2.775   5.330   1.986  0.4969  0.1767  0.1438
11452TIP3   OH255846   3.935   0.252   1.982  0.0199 -0.0258 -0.4250
11452TIP3    H155847   3.960   0.334   2.025 -1.2003  0.3109 -0.3128
11452TIP3    H255848   3.952   0.267   1.889  0.1779  0.2020 -0.3606
11453TIP3   OH255849   4.855   2.162  13.838 -0.0436  0.1547  0.2940
11453TIP3    H155850   4.784   2.227  13.839  0.3283  0.5798 -0.4590
11453TIP3    H255851   4.902   2.177  13.919 -0.8205 -0.1429  0.8153
11454TIP3   OH255852   0.581   1.051   4.852 -0.2444 -0.6838 -0.1620
11454TIP3    H155853   0.652   1.052   4.917  0.6616 -0.4035 -1.1397
11454TIP3    H255854   0.502   1.062   4.904  0.5772  1.2378  0.7779
11455TIP3   OH255855   6.233   5.531   1.780  0.2616 -0.1185  0.3945
11455TIP3    H155856   6.324   5.514   1.757  0.4380  0.1414  0.8882
11455TIP3    H255857   6.184   5.509   1.701  0.7832  0.0521  0.0183
11456TIP3   OH255858   5.813   6.310   0.939  0.2329 -0.2354  0.7085
11456TIP3    H155859   5.766   6.348   0.865  0.1943 -2.2865 -0.4148
11456TIP3    H255860   5.772   6.224   0.952  2.0343 -1.0708  1.2771
11457TIP3   OH255861   2.184   5.408   5.676  0.5127  0.2758  0.1451
11457TIP3    H155862   2.254   5.406   5.741  2.4667  1.0739 -1.8030
11457TIP3    H255863   2.196   5.329   5.624  0.1886  0.5794 -0.4150
11458TIP3   OH255864   4.118   4.676  11.431 -0.1017  0.0795  0.3119
11458TIP3    H155865   4.163   4.674  11.515  0.4944 -0.4482 -0.0093
11458TIP3    H255866   4.025   4.680  11.453  0.0628  0.2000  0.9898
11459TIP3   OH255867   5.914   0.601  13.647 -0.1748  0.4953 -0.4101
11459TIP3    H155868   5.889   0.673  13.704 -0.0408  0.6368 -0.5268
11459TIP3    H255869   5.853   0.531  13.668  0.4550  0.2114  0.5771
11460TIP3   OH255870   3.581   1.058   1.062 -0.4506 -0.4527 -0.0055
11460TIP3    H155871   3.627   1.139   1.088  0.5990 -1.1999  0.5462
11460TIP3    H255872   3.537   1.080   0.980  0.0432  0.5969 -0.0024
11461TIP3   OH255873   2.885   1.268   1.286  0.1146 -0.1471 -0.2414
11461TIP3    H155874   2.954   1.266   1.353  0.6982  1.1875 -0.7655
11461TIP3    H255875   2.915   1.333   1.223 -1.8304  0.7726 -0.2809
11462TIP3   OH255876   4.767   5.036  13.115 -0.1663  0.6202 -0.2624
11462TIP3    H155877   4.685   5.066  13.077 -0.5916 -0.8373 -0.5445
11462TIP3    H255878   4.760   5.059  13.208 -0.6415  1.0258 -0.3944
11463TIP3   OH255879   0.626   3.102   0.627  0.1385  0.2478 -0.6491
11463TIP3    H155880   0.644   3.009   0.616 -0.3720  0.1411 -0.6062
11463TIP3    H255881   0.537   3.105   0.662  0.5028  0.7088  0.2906
11464TIP3   OH255882   0.396   0.026  12.753  0.0007  0.2378  0.4851
11464TIP3    H155883   0.459   0.027  12.825  0.5523  0.2877  0.0153
11464TIP3    H255884   0.396   0.115  12.719  0.7364 -0.0686 -0.3943
11465TIP3   OH255885   5.356   3.895  11.113  0.6054  0.4878  0.3601
11465TIP3    H155886   5.271   3.931  11.140  1.1286  0.1987  2.5190
11465TIP3    H255887   5.405   3.971  11.081  0.5175  1.1467  1.7563
11466TIP3   OH255888   6.311   1.924   6.162 -0.2227  0.1642  0.5505
11466TIP3    H155889   6.329   1.835   6.192 -2.5021 -0.3587  0.5142
11466TIP3    H255890   6.296   1.973   6.243  0.1830  0.3342  0.5266
11467TIP3   OH255891   0.682   3.012  13.048  0.0192 -0.3716 -0.1750
11467TIP3    H155892   0.755   2.952  13.065 -0.3308 -0.4077  1.3499
11467TIP3    H255893   0.604   2.964  13.074 -0.3584  0.3927  0.1453
11468TIP3   OH255894   2.461   0.064   3.596 -0.3436 -0.2155  0.1012
11468TIP3    H155895   2.509   0.095   3.673 -1.1856 -0.2394  0.6452
11468TIP3    H255896   2.369   0.063   3.623 -0.5041 -1.7820 -0.3775
11469TIP3   OH255897   6.293   3.746  13.254  0.6992 -0.0742  0.0569
11469TIP3    H155898   6.225   3.811  13.271  0.7324 -0.4020  1.5171
11469TIP3    H255899   6.252   3.663  13.276  1.6986 -0.2351  1.4332
11470TIP3   OH255900   3.395   5.694  14.617 -0.3718 -0.2073 -0.4849
11470TIP3    H155901   3.412   5.788  14.615  0.1133 -0.3036 -1.1416
11470TIP3    H255902   3.445   5.659  14.544 -1.0833 -0.8954 -0.6580
11471TIP3   OH255903   6.392   4.698  13.524  0.1497  0.3260  0.6681
11471TIP3    H155904   6.449   4.725  13.596  0.7082  0.7511  0.0733
11471TIP3    H255905   6.451   4.687  13.450 -0.3809 -0.4148  0.3488
11472TIP3   OH255906   1.466   4.674   5.664  0.6623 -0.1668  0.5506
11472TIP3    H155907   1.553   4.635   5.663  1.4834  1.5427  0.4855
11472TIP3    H255908   1.407   4.603   5.689  2.2106 -1.1117  1.6920
11473TIP3   OH255909   0.506   1.382  15.350 -0.2104 -0.2798 -0.5434
11473TIP3    H155910   0.435   1.361  15.289  1.3659 -1.7716 -1.9507
11473TIP3    H255911   0.519   1.476  15.339 -0.6439 -0.3434 -1.7796
11474TIP3   OH255912   6.161   6.305   0.632  0.6551 -0.5436  0.1922
11474TIP3    H155913   6.075   6.302   0.590  1.2153 -1.5125 -0.9464
11474TIP3    H255914   6.145   6.277   0.722 -0.1165 -1.5074 -0.2322
11475TIP3   OH255915   4.150   2.916   4.062 -0.1344  0.0506  0.3780
11475TIP3    H155916   4.145   2.898   3.968  2.1754  0.4871  0.1184
11475TIP3    H255917   4.185   2.835   4.100  1.2457  0.6689  0.4917
11476TIP3   OH255918   3.352   6.726  16.980 -0.1860 -0.1240 -0.7255
11476TIP3    H155919   3.414   6.678  17.035  0.4632  1.4265 -0.0649
11476TIP3    H255920   3.405   6.759  16.908 -0.0295  1.8419  0.2296
11477TIP3   OH255921   6.716   4.582   6.429  0.0128 -0.1454 -0.5552
11477TIP3    H155922   6.752   4.568   6.517  2.5997 -0.6444 -1.5911
11477TIP3    H255923   6.691   4.495   6.399 -0.1464 -0.0861 -0.5942
11478TIP3   OH255924   3.025   3.597  14.025  0.4125 -0.4188  0.3272
11478TIP3    H155925   2.933   3.617  14.041  0.5658  0.7019 -0.0344
11478TIP3    H255926   3.033   3.600  13.929  0.8936 -0.0838  0.3713
11479TIP3   OH255927   3.135   1.698   2.596  0.1935  0.2731 -0.0990
11479TIP3    H155928   3.202   1.630   2.598 -0.8075 -0.7724 -0.8764
11479TIP3    H255929   3.144   1.742   2.680  1.1113 -0.5678  0.2694
11480TIP3   OH255930   1.518   2.836   3.543 -0.1663 -0.0977  0.0699
11480TIP3    H155931   1.426   2.844   3.517 -0.6573 -3.2339  0.4479
11480TIP3    H255932   1.565   2.818   3.462  0.0492  0.8298 -0.0261
11481TIP3   OH255933   6.648   0.222   4.651 -0.2431  0.0378 -0.2191
11481TIP3    H155934   6.609   0.278   4.584  0.1670  0.6503  0.0447
11481TIP3    H255935   6.736   0.203   4.618  0.1877  0.8505  0.4178
11482TIP3   OH255936   4.445   5.040  11.846 -0.1106  0.4523  0.2743
11482TIP3    H155937   4.437   5.111  11.910  0.5489  0.8801 -0.1166
11482TIP3    H255938   4.492   5.078  11.772 -1.4376  0.1412 -0.7668
11483TIP3   OH255939   4.501   5.268   3.083  0.0485 -0.1175  0.7577
11483TIP3    H155940   4.521   5.361   3.093 -0.1043 -0.1211  1.0839
11483TIP3    H255941   4.578   5.223   3.117 -0.0645 -0.1176  1.0102
11484TIP3   OH255942   3.649   2.438   1.112 -0.4174 -0.0261  0.0037
11484TIP3    H155943   3.679   2.418   1.023  0.0931 -0.2114  0.2110
11484TIP3    H255944   3.649   2.533   1.117  1.3413 -0.0086  0.3771
11485TIP3   OH255945   3.889   5.162  16.666 -0.0026 -0.2504 -0.5859
11485TIP3    H155946   3.931   5.238  16.626 -0.0375  1.1428  1.8313
11485TIP3    H255947   3.798   5.189  16.678  0.3917  0.1889  2.0565
11486TIP3   OH255948   6.386   4.424   4.971 -0.9063  0.2532 -0.4743
11486TIP3    H155949   6.476   4.416   4.939 -0.4615  0.2563  0.7341
11486TIP3    H255950   6.395   4.450   5.063 -2.1505  1.1667 -0.5761
11487TIP3   OH255951   3.037   1.748  15.797  0.0837 -0.1256  0.4009
11487TIP3    H155952   3.086   1.667  15.813 -0.5650 -0.3583  1.2453
11487TIP3    H255953   3.003   1.774  15.883 -0.9029  0.2747 -0.0898
11488TIP3   OH255954   6.253   3.040  13.774 -0.5284 -0.2291  0.2645
11488TIP3    H155955   6.275   3.108  13.837  0.8969  0.3516 -0.8022
11488TIP3    H255956   6.255   2.959  13.826  0.2497  0.2655  1.0435
11489TIP3   OH255957   0.658   3.412   1.125 -0.0695  0.0547  0.3316
11489TIP3    H155958   0.734   3.376   1.079  0.2927  1.3280 -0.1090
11489TIP3    H255959   0.601   3.337   1.138  0.6971 -0.7009 -0.4676
11490TIP3   OH255960   1.389   2.972  12.510 -0.4208 -0.0287 -0.3294
11490TIP3    H155961   1.365   3.019  12.430 -0.3911 -0.6162 -0.6822
11490TIP3    H255962   1.359   3.030  12.581  0.1914  0.8261 -0.7475
11491TIP3   OH255963   2.843   2.234  12.861 -0.5051 -0.6821  0.1248
11491TIP3    H155964   2.795   2.154  12.884 -3.0131  0.6528 -0.0870
11491TIP3    H255965   2.828   2.244  12.766 -1.2462  0.6239  0.3572
11492TIP3   OH255966   3.732   0.169  15.666 -0.1232  0.0938 -0.5115
11492TIP3    H155967   3.801   0.110  15.635 -0.5052 -0.9363  0.5033
11492TIP3    H255968   3.711   0.224  15.591  0.1049 -1.2093 -1.5610
11493TIP3   OH255969   6.417   0.387   5.556  0.0998 -0.5877  0.4804
11493TIP3    H155970   6.412   0.482   5.567  1.4373 -0.3656 -0.7128
11493TIP3    H255971   6.503   0.371   5.518  0.0396 -2.3213  0.9988
11494TIP3   OH255972   0.161   6.675  10.488 -0.7300  0.2458 -0.6329
11494TIP3    H155973   0.136   6.593  10.531 -3.5069  1.5998  0.5256
11494TIP3    H255974   0.256   6.666  10.475 -0.9207 -3.1922 -0.7572
11495TIP3   OH255975   4.494   3.637  12.138  0.0221 -0.5113  0.8178
11495TIP3    H155976   4.581   3.656  12.173 -0.0259  1.2841  0.0623
11495TIP3    H255977   4.478   3.545  12.161  0.4412  0.2025  4.4756
11496TIP3   OH255978   1.309   2.266   0.933  0.8243 -0.3423  0.2407
11496TIP3    H155979   1.243   2.313   0.883  1.2381 -0.6206 -0.5909
11496TIP3    H255980   1.280   2.272   1.023 -1.7833 -2.7336 -0.3260
11497TIP3   OH255981   0.657   0.580  10.877 -0.3199 -0.3576 -0.2007
11497TIP3    H155982   0.646   0.675  10.885  1.3365 -0.2221  0.7144
11497TIP3    H255983   0.713   0.568  10.800 -0.7335 -0.6215 -0.4680
11498TIP3   OH255984   0.314   4.250  13.879 -0.5200 -0.1810  0.1557
11498TIP3    H155985   0.343   4.319  13.939  0.5665  0.0964 -0.6465
11498TIP3    H255986   0.373   4.258  13.804 -0.3679 -1.9934  0.0462
11499TIP3   OH255987   0.262   2.676  12.292 -0.4868 -0.3898  0.5356
11499TIP3    H155988   0.198   2.733  12.334 -0.4667  0.2985 -0.3403
11499TIP3    H255989   0.339   2.732  12.279 -0.4652 -0.6175 -0.3390
11500TIP3   OH255990   0.409   0.432   2.036 -0.3167  0.0873  0.0145
11500TIP3    H155991   0.418   0.432   2.132  2.8816 -2.1026 -0.0966
11500TIP3    H255992   0.353   0.357   2.018 -0.3347  0.0654  0.1548
11501TIP3   OH255993   2.421   6.213  15.458 -0.0596  0.4331 -0.3934
11501TIP3    H155994   2.402   6.201  15.551 -1.4111 -0.4031 -0.7516
11501TIP3    H255995   2.513   6.239  15.455 -0.1220  0.9035  1.1996
11502TIP3   OH255996   5.742   2.129   1.042  0.4148 -0.1488  0.2739
11502TIP3    H155997   5.738   2.101   0.951 -1.3636 -0.2374  0.3367
11502TIP3    H255998   5.668   2.084   1.084  0.1839  1.1818  1.3682
11503TIP3   OH255999   3.629   2.309  15.240 -0.2569 -0.2960 -0.2051
11503TIP3    H156000   3.665   2.362  15.169 -0.3873 -0.1437 -0.1591
11503TIP3    H256001   3.566   2.251  15.198 -1.5077  0.8668 -0.0260
11504TIP3   OH256002   3.899   6.457  15.639 -0.4596 -0.1182  0.2401
11504TIP3    H156003   3.935   6.376  15.677 -1.1491 -0.3339  0.4407
11504TIP3    H256004   3.942   6.464  15.554 -0.6254 -0.8638  0.0881
11505TIP3   OH256005   5.356   1.577  14.144  0.1451 -0.1309 -0.0535
11505TIP3    H156006   5.379   1.486  14.160  1.3170  0.2788  0.8112
11505TIP3    H256007   5.409   1.602  14.069  0.5014  0.0639  0.2553
11506TIP3   OH256008   3.157   5.230  16.735  0.0782  0.6252 -0.3763
11506TIP3    H156009   3.161   5.183  16.652  0.7363 -0.2845  0.1518
11506TIP3    H256010   3.066   5.220  16.764 -0.1590  0.9621 -0.9797
11507TIP3   OH256011   4.220   1.519  14.896  0.3226 -0.1976  0.0446
11507TIP3    H156012   4.137   1.525  14.848  0.9942  1.7273 -0.9894
11507TIP3    H256013   4.241   1.426  14.896 -1.1637 -0.5761 -0.8296
11508TIP3   OH256014   0.712   1.758   1.682  0.0255  0.0264  0.1723
11508TIP3    H156015   0.625   1.758   1.722  0.8894 -0.2334  2.1770
11508TIP3    H256016   0.708   1.828   1.617 -1.6065  0.1505  0.3605
11509TIP3   OH256017   3.532   3.819  11.835 -0.1156 -0.0772  0.2124
11509TIP3    H156018   3.562   3.864  11.755  1.1309  1.3103  1.3989
11509TIP3    H256019   3.607   3.765  11.861 -0.0411  0.4542  1.1211
11510TIP3   OH256020   2.628   4.097   1.623 -0.5635  0.2220 -0.1281
11510TIP3    H156021   2.632   4.162   1.693  1.5294 -2.0315  2.0274
11510TIP3    H256022   2.627   4.013   1.668  0.0012 -1.3344 -2.8176
11511TIP3   OH256023   0.602   3.299  14.496  0.3303 -0.0237 -0.0745
11511TIP3    H156024   0.590   3.210  14.462  0.1847  0.0600 -0.2471
11511TIP3    H256025   0.648   3.287  14.578 -0.5325 -0.3356  0.3763
11512TIP3   OH256026   0.114   2.246  12.895  0.2401 -0.0129  0.3403
11512TIP3    H156027   0.144   2.298  12.969 -0.8222  1.2741 -0.0961
11512TIP3    H256028   0.156   2.286  12.819  0.3237 -0.5259  0.1121
11513TIP3   OH256029   4.973   5.834   6.216 -0.2605 -0.0223 -0.3670
11513TIP3    H156030   5.028   5.802   6.288 -0.6078 -0.4797 -0.2994
11513TIP3    H256031   5.014   5.916   6.189  0.1110 -0.0571  0.0789
11514TIP3   OH256032   2.952   3.943  14.103  0.0345 -0.4729  0.5311
11514TIP3    H156033   2.922   4.034  14.099  3.9637  1.0085  0.3047
11514TIP3    H256034   2.938   3.917  14.194  1.5180  1.5145  1.4128
11515TIP3   OH256035   4.663   2.677  15.830  0.8545  0.3568 -0.2584
11515TIP3    H156036   4.703   2.700  15.914 -0.1182  0.7445  0.1112
11515TIP3    H256037   4.569   2.676  15.848  0.6680 -0.0655 -1.2224
11516TIP3   OH256038   0.582   6.466   0.995 -0.2894  0.5527  0.5864
11516TIP3    H156039   0.673   6.444   1.016 -0.2192  0.1394 -0.1227
11516TIP3    H256040   0.530   6.400   1.041 -0.1339 -0.3943 -0.5744
11517TIP3   OH256041   0.883   1.260   1.730 -0.0925 -0.1809 -0.3089
11517TIP3    H156042   0.877   1.346   1.773  3.0305 -0.7831  1.6468
11517TIP3    H256043   0.895   1.281   1.637  0.8452  1.5242  0.1544
11518TIP3   OH256044   5.154   5.597   2.357  0.4530  0.0564  0.2396
11518TIP3    H156045   5.135   5.534   2.287 -1.6455  0.6663  0.1918
11518TIP3    H256046   5.199   5.669   2.313 -0.0708  0.0473 -0.3215
11519TIP3   OH256047   0.962   5.997   1.517  0.5546  0.1771  0.1443
11519TIP3    H156048   0.933   5.975   1.606 -1.4295  0.0625 -0.4987
11519TIP3    H256049   1.041   6.050   1.531  0.8801 -0.6935  1.9300
11520TIP3   OH256050   6.360   2.604  15.921 -0.0251  0.0788 -0.2618
11520TIP3    H156051   6.447   2.599  15.960  0.2830 -0.9674 -1.0231
11520TIP3    H256052   6.352   2.694  15.890  0.9663  0.0652 -0.5777
11521TIP3   OH256053   3.101   4.809   1.826  0.3149 -0.3787 -0.8800
11521TIP3    H156054   3.157   4.860   1.767  1.8503 -1.2083 -0.2086
11521TIP3    H256055   3.145   4.814   1.911  0.3094 -2.4376 -0.7119
11522TIP3   OH256056   1.241   6.037  17.035  0.1662  0.0498  0.0399
11522TIP3    H156057   1.307   6.095  16.997 -2.0723  3.0041  0.3379
11522TIP3    H256058   1.205   5.989  16.961 -0.0393  1.3549 -0.7391
11523TIP3   OH256059   1.233   3.571  10.900  0.7303 -0.3091  0.3731
11523TIP3    H156060   1.255   3.644  10.843  0.7705 -0.0454  0.7176
11523TIP3    H256061   1.193   3.612  10.977  0.7827 -0.6458  0.5844
11524TIP3   OH256062   1.252   1.636   5.122  0.1468  0.2473  0.1232
11524TIP3    H156063   1.312   1.617   5.050  1.1216 -0.8023  1.1645
11524TIP3    H256064   1.288   1.588   5.196  0.0822  2.5321  1.7448
11525TIP3   OH256065   3.126   2.820   4.638 -0.0201  0.1199  0.0621
11525TIP3    H156066   3.095   2.857   4.721 -0.2709 -0.1632  0.0970
11525TIP3    H256067   3.157   2.896   4.588 -0.7386  0.4127  0.0410
11526TIP3   OH256068   0.596   2.697  13.497 -0.1840 -0.7980 -0.1429
11526TIP3    H156069   0.662   2.766  13.502 -0.5744 -0.4323 -0.0304
11526TIP3    H256070   0.554   2.699  13.583  1.0079 -2.3833  0.5428
11527TIP3   OH256071   2.229   2.442   6.060 -0.0570  0.3164  0.4879
11527TIP3    H156072   2.167   2.394   6.114  1.9577 -1.7012  1.1368
11527TIP3    H256073   2.177   2.512   6.019 -2.8095 -1.5480  0.5947
11528TIP3   OH256074   1.168   3.033  10.924 -0.1489 -0.4180 -0.1341
11528TIP3    H156075   1.258   3.059  10.901  0.8709 -0.5093  3.2346
11528TIP3    H256076   1.133   2.994  10.844  2.3773  0.6921 -1.9137
11529TIP3   OH256077   0.230   4.746  14.063  0.0677  0.7187  0.2501
11529TIP3    H156078   0.205   4.828  14.020 -0.9705  0.9274  1.2160
11529TIP3    H256079   0.270   4.774  14.146 -1.6219  0.2610  1.2758
11530TIP3   OH256080   6.310   0.324  16.709  0.2877 -0.0776 -0.3993
11530TIP3    H156081   6.237   0.279  16.666 -0.8146  2.1471 -0.9806
11530TIP3    H256082   6.310   0.412  16.671  3.7060 -0.1468 -0.9192
11531TIP3   OH256083   0.250   4.531  13.368 -0.1255  0.4862  0.5184
11531TIP3    H156084   0.324   4.531  13.428  0.3244 -0.3091 -0.0343
11531TIP3    H256085   0.184   4.475  13.410  0.7922 -1.3920 -0.4359
11532TIP3   OH256086   5.938   2.705  11.836  0.2208 -0.5044  0.1216
11532TIP3    H156087   5.858   2.656  11.859  0.6598 -1.1409  0.3342
11532TIP3    H256088   5.923   2.792  11.872  0.0550 -0.9198  1.1196
11533TIP3   OH256089   3.193   1.430   0.535 -0.5481 -1.0017  0.0362
11533TIP3    H156090   3.218   1.472   0.453 -1.5467 -0.3370  0.0527
11533TIP3    H256091   3.110   1.472   0.559  0.7556  0.3757  2.4907
11534TIP3   OH256092   2.529   5.721   3.372 -0.5565 -0.2315  0.5901
11534TIP3    H156093   2.441   5.731   3.336 -0.6674 -2.0060  0.3120
11534TIP3    H256094   2.534   5.788   3.441 -2.1014 -0.0643  0.5808
11535TIP3   OH256095   4.039   2.437   5.310 -0.0632 -0.3708  0.3500
11535TIP3    H156096   3.999   2.375   5.249  0.5167  0.5031 -0.9511
11535TIP3    H256097   4.089   2.497   5.255 -1.8929  2.2849  1.4002
11536TIP3   OH256098   0.581   5.353  11.647 -0.5175 -0.1039 -0.2201
11536TIP3    H156099   0.606   5.396  11.566 -1.2017 -0.9144 -0.8798
11536TIP3    H256100   0.657   5.363  11.704  0.0738  0.2464 -1.0545
11537TIP3   OH256101   2.758   2.816  16.789 -0.4297  0.2668 -0.3499
11537TIP3    H156102   2.838   2.844  16.833 -0.1543  0.1560 -0.7740
11537TIP3    H256103   2.688   2.851  16.843 -0.0940  0.4598 -0.0335
11538TIP3   OH256104   2.624   1.562  13.648  0.5970 -0.9528  0.5608
11538TIP3    H156105   2.714   1.561  13.682  2.2499 -0.1561 -3.2410
11538TIP3    H256106   2.602   1.655  13.642  0.7437 -0.9952 -1.1734
11539TIP3   OH256107   5.164   6.801  13.992  0.1413  0.0413 -0.0259
11539TIP3    H156108   5.147   6.847  14.075 -2.8586 -0.9821  0.0440
11539TIP3    H256109   5.238   6.848  13.953 -0.0385  2.1811  2.0154
11540TIP3   OH256110   3.528   6.219  13.122  0.4157  0.3184 -0.5511
11540TIP3    H156111   3.559   6.298  13.079 -0.0701  1.4727  1.1029
11540TIP3    H256112   3.517   6.244  13.214 -0.8959 -1.3353 -0.1898
11541TIP3   OH256113   0.357   1.640   3.477 -0.1471  0.0884  0.2750
11541TIP3    H156114   0.444   1.610   3.453  0.0649  0.0033  1.1180
11541TIP3    H256115   0.343   1.718   3.423  0.1901 -0.2534 -0.3196
11542TIP3   OH256116   6.797   0.409  14.940 -0.3346 -0.0051  0.0528
11542TIP3    H156117   6.890   0.409  14.965 -0.5780 -1.0353  1.0189
11542TIP3    H256118   6.792   0.475  14.870  1.0185  0.4627  0.3487
11543TIP3   OH256119   3.075   6.052   0.316 -0.1861  0.1611 -0.2207
11543TIP3    H156120   3.020   5.978   0.289  0.4582  0.3119 -2.0879
11543TIP3    H256121   3.024   6.130   0.293 -0.3581  0.3136  0.6395
11544TIP3   OH256122   4.059   4.564   5.988  0.2723  0.2992 -0.3078
11544TIP3    H156123   4.000   4.557   5.913  0.3576 -0.6663 -0.2977
11544TIP3    H256124   4.120   4.634   5.964  0.5494 -0.2703 -1.3190
11545TIP3   OH256125   4.155   0.426   1.429 -0.4755  0.1097 -0.3576
11545TIP3    H156126   4.196   0.507   1.397  1.6167 -0.0925  1.5623
11545TIP3    H256127   4.074   0.456   1.470 -0.1156  1.1285 -0.3420
11546TIP3   OH256128   2.213   4.086   5.425  0.0685  0.5038 -0.4083
11546TIP3    H156129   2.277   4.156   5.411  1.1261 -0.5853 -1.1605
11546TIP3    H256130   2.132   4.120   5.385  1.1142  0.4706 -2.6586
11547TIP3   OH256131   0.661   4.634  16.923  0.2805  0.6629 -0.0765
11547TIP3    H156132   0.737   4.663  16.974 -0.8551  1.9987  0.9646
11547TIP3    H256133   0.696   4.571  16.861  2.3353  1.6608 -0.0174
11548TIP3   OH256134   1.092   5.201   2.891  0.5247 -0.0749  0.1694
11548TIP3    H156135   1.060   5.244   2.971 -1.2458  0.2951 -0.6980
11548TIP3    H256136   1.120   5.114   2.921  0.0587  0.1172  1.2185
11549TIP3   OH256137   4.331   4.631  15.136 -0.0413  0.4751 -0.6632
11549TIP3    H156138   4.290   4.716  15.120 -1.9472 -0.1675  0.4581
11549TIP3    H256139   4.366   4.604  15.051 -3.7507  0.2226 -2.3033
11550TIP3   OH256140   0.410   1.174  11.812  0.4567 -0.0742 -0.1762
11550TIP3    H156141   0.333   1.215  11.773  1.9502  1.3453 -1.8695
11550TIP3    H256142   0.471   1.247  11.826  1.6961 -1.2162  0.6199
11551TIP3   OH256143   3.502   3.855  13.846 -0.4072  0.3887  0.2240
11551TIP3    H156144   3.461   3.802  13.778 -1.1209  0.7079  0.3889
11551TIP3    H256145   3.591   3.871  13.815 -0.7915  0.7261 -0.7532
11552TIP3   OH256146   2.355   3.252   2.241  0.4231 -0.0400 -0.4020
11552TIP3    H156147   2.382   3.313   2.171  0.3787 -0.5492 -0.8695
11552TIP3    H256148   2.363   3.303   2.321 -0.3837  0.8494 -0.8601
11553TIP3   OH256149   2.748   5.226   0.735  0.1976 -0.7830 -0.2179
11553TIP3    H156150   2.735   5.320   0.745 -1.9693 -0.9305 -0.9312
11553TIP3    H256151   2.824   5.218   0.677  1.5603  0.4255  1.3150
11554TIP3   OH256152   3.092   5.445  11.891  0.0116  0.2559 -0.2900
11554TIP3    H156153   3.058   5.518  11.943 -2.1270 -0.5154 -0.4964
11554TIP3    H256154   3.130   5.385  11.955 -0.2756  0.5009  0.1112
11555TIP3   OH256155   2.396   5.885  14.955  0.0316 -0.4139 -0.4523
11555TIP3    H156156   2.464   5.891  14.887  1.5282  1.9321  1.1289
11555TIP3    H256157   2.439   5.839  15.027 -0.6466 -0.4712 -0.0786
11556TIP3   OH256158   4.361   2.553  14.370 -0.1144 -0.0640 -0.4816
11556TIP3    H156159   4.278   2.515  14.397 -0.0033 -0.2570 -0.4099
11556TIP3    H256160   4.402   2.584  14.451  0.5095 -1.2257 -0.3370
11557TIP3   OH256161   0.071   2.857   2.259  0.2614  0.2422 -0.4772
11557TIP3    H156162   0.024   2.868   2.341  1.0683 -1.0166  0.1829
11557TIP3    H256163   0.137   2.927   2.259  1.3274 -0.7144  0.7480
11558TIP3   OH256164   2.201   6.272   5.408 -0.1252  0.7721 -0.8659
11558TIP3    H156165   2.144   6.341   5.442 -0.1580  1.2762 -1.9020
11558TIP3    H256166   2.280   6.277   5.462 -1.8536 -1.4668  2.1869
11559TIP3   OH256167   2.593   0.932   3.395  0.4003 -0.7382 -0.0749
11559TIP3    H156168   2.547   1.000   3.345  0.7039  0.6473  1.4590
11559TIP3    H256169   2.670   0.911   3.342  1.4776  1.7248  0.3863
11560TIP3   OH256170   1.244   3.624  15.360  0.5776 -0.3194  0.0248
11560TIP3    H156171   1.228   3.544  15.410  0.3691 -2.3016 -2.9086
11560TIP3    H256172   1.160   3.669  15.358  0.5345 -0.3307  1.1982
11561TIP3   OH256173   4.324   0.314   3.411  0.4394  0.2262  0.7664
11561TIP3    H156174   4.366   0.370   3.346  1.7528  0.3883  1.7237
11561TIP3    H256175   4.358   0.226   3.391 -0.8459 -0.1041 -0.1043
11562TIP3   OH256176   0.303   3.973  11.857 -0.3844  0.6402  0.6877
11562TIP3    H156177   0.387   4.001  11.894  0.2493 -1.0951  0.6800
11562TIP3    H256178   0.325   3.896  11.805 -1.9075  0.5204  0.1811
11563TIP3   OH256179   2.003   4.892  12.109 -0.2998  0.5679 -0.1033
11563TIP3    H156180   1.952   4.965  12.072  0.8235  0.1234 -2.7782
11563TIP3    H256181   1.946   4.816  12.098 -0.3192  0.5786 -0.0779
11564TIP3   OH256182   2.860   6.747  11.815 -0.6109 -0.7260 -0.4812
11564TIP3    H156183   2.899   6.796  11.743  1.8836 -1.1330  0.5081
11564TIP3    H256184   2.871   6.804  11.891  1.3594 -2.2967  0.4799
11565TIP3   OH256185   3.799   3.600  16.947  0.5525 -0.0196  0.1273
11565TIP3    H156186   3.872   3.613  17.008 -0.6544  0.1841  1.5625
11565TIP3    H256187   3.731   3.660  16.978 -0.5265 -0.7900 -0.7047
11566TIP3   OH256188   3.560   0.498   2.420  0.1093  0.7807  0.2866
11566TIP3    H156189   3.487   0.560   2.418  1.2278  2.1209 -1.4445
11566TIP3    H256190   3.569   0.475   2.513 -2.4690  0.5762  0.5434
11567TIP3   OH256191   2.638   4.722   5.588  0.4196  0.1190 -0.7529
11567TIP3    H156192   2.725   4.705   5.552  0.1587 -0.4871 -1.1128
11567TIP3    H256193   2.578   4.713   5.513 -0.0905 -0.8254 -0.2576
11568TIP3   OH256194   0.688   3.281  15.971 -0.3184 -0.1178 -0.1984
11568TIP3    H156195   0.758   3.221  15.946 -1.4933 -0.6117 -2.5943
11568TIP3    H256196   0.714   3.365  15.933  0.0823  0.3034  0.9577
11569TIP3   OH256197   5.622   1.479   0.528  1.0734  0.2868  0.6098
11569TIP3    H156198   5.643   1.494   0.436 -0.0687 -2.8201 -0.2880
11569TIP3    H256199   5.557   1.545   0.549  1.2230  0.9379 -0.8464
11570TIP3   OH256200   3.770   0.265   5.578 -0.0155  0.0487 -0.1322
11570TIP3    H156201   3.814   0.237   5.498 -0.2981  0.7916 -0.5644
11570TIP3    H256202   3.814   0.346   5.603  0.3708 -0.4174  0.7322
11571TIP3   OH256203   4.567   4.689   5.827  0.1629 -0.1358  0.6214
11571TIP3    H156204   4.660   4.710   5.825 -0.2510  1.9207  0.6817
11571TIP3    H256205   4.557   4.630   5.902  1.3877 -0.3407  0.6407
11572TIP3   OH256206   3.016   2.732  10.831 -0.0438  0.5208 -0.3299
11572TIP3    H156207   3.058   2.648  10.813 -2.4272 -0.6601 -0.7309
11572TIP3    H256208   3.032   2.748  10.924  1.4130  0.2238 -0.5106
11573TIP3   OH256209   5.366   2.305   3.529 -0.6061 -0.2182  0.0705
11573TIP3    H156210   5.280   2.264   3.527 -1.7027  1.9901 -0.5005
11573TIP3    H256211   5.383   2.319   3.623 -0.5097 -1.2828  0.2301
11574TIP3   OH256212   3.218   0.812  12.229 -0.2437 -0.1475  0.0117
11574TIP3    H156213   3.244   0.844  12.315 -0.2484 -0.7566  0.2469
11574TIP3    H256214   3.137   0.763  12.246  0.2387 -1.0383 -0.1887
11575TIP3   OH256215   6.340   4.768  15.137 -0.0046  0.5640 -0.2384
11575TIP3    H156216   6.395   4.738  15.210 -1.6341  1.1632  1.2945
11575TIP3    H256217   6.301   4.850  15.167 -0.4593  1.0201 -1.9393
11576TIP3   OH256218   2.154   5.765  15.812 -0.2076  0.5075  0.1794
11576TIP3    H156219   2.092   5.723  15.752 -0.9176 -0.9055  1.8508
11576TIP3    H256220   2.175   5.699  15.877  0.8328  1.8828  1.3209
11577TIP3   OH256221   6.788   0.659  13.745 -0.6560  0.5574 -0.3636
11577TIP3    H156222   6.807   0.566  13.732  0.3272  0.6918 -0.0181
11577TIP3    H256223   6.747   0.664  13.831 -2.1880  0.2829 -1.0387
11578TIP3   OH256224   4.533   3.348  16.958 -0.1131 -0.0654  0.2188
11578TIP3    H156225   4.597   3.278  16.968 -0.0638 -0.3366 -1.6111
11578TIP3    H256226   4.453   3.303  16.929 -0.7543  0.4169  1.1745
11579TIP3   OH256227   0.501   0.736  14.220  0.6064 -0.0826  0.5021
11579TIP3    H156228   0.420   0.755  14.267  0.1127  0.8510 -0.6948
11579TIP3    H256229   0.485   0.653  14.177 -1.1000  1.6794 -2.5781
11580TIP3   OH256230   0.020   1.184  14.601  0.7897  0.3964  0.0194
11580TIP3    H156231   0.018   1.190  14.506  0.8303  1.4113  0.0704
11580TIP3    H256232  -0.071   1.173  14.627  0.9494 -1.8331 -0.2238
11581TIP3   OH256233   5.587   5.731  16.258  0.2344  0.3697 -0.0763
11581TIP3    H156234   5.655   5.746  16.324 -0.8079 -0.5618  1.2679
11581TIP3    H256235   5.632   5.740  16.174  1.5613  1.7786  0.7352
11582TIP3   OH256236   1.322   2.659  16.500  0.3073 -0.0765 -0.4391
11582TIP3    H156237   1.329   2.736  16.443  0.0930 -1.7097 -2.7998
11582TIP3    H256238   1.253   2.606  16.461 -2.7520  0.4462  3.6391
11583TIP3   OH256239   0.812   2.039   6.356 -0.3094 -0.1242 -0.0856
11583TIP3    H156240   0.731   2.088   6.369 -0.5900 -0.0661 -1.7688
11583TIP3    H256241   0.786   1.947   6.365 -0.8836 -0.1778 -1.8800
11584TIP3   OH256242   2.501   4.512   3.162 -0.2763  0.2534 -0.2130
11584TIP3    H156243   2.509   4.418   3.148  0.3175  0.5407 -2.0273
11584TIP3    H256244   2.413   4.533   3.130 -0.7381  0.2219  0.9669
11585TIP3   OH256245   1.644   1.110  14.948 -0.2540 -0.7043  0.1768
11585TIP3    H156246   1.622   1.152  14.865 -1.2916 -2.1006 -0.2823
11585TIP3    H256247   1.561   1.111  14.997  0.0319 -1.0737  0.6722
11586TIP3   OH256248   2.227   6.557   1.257 -0.4975  0.0502 -0.0654
11586TIP3    H156249   2.252   6.545   1.166 -0.6865 -1.0597  0.0068
11586TIP3    H256250   2.142   6.514   1.265  0.3146 -1.4947  0.9998
11587TIP3   OH256251   6.438   2.622  14.438  0.0295  0.7073 -0.3298
11587TIP3    H156252   6.366   2.667  14.480 -1.0217 -0.3701 -0.9190
11587TIP3    H256253   6.405   2.534  14.419  1.8903 -0.2334  0.4765
11588TIP3   OH256254   3.290   3.236  13.146  0.4575 -0.5499  0.2087
11588TIP3    H156255   3.353   3.175  13.107  1.2150 -0.9453  1.9287
11588TIP3    H256256   3.205   3.198  13.129  0.7159 -0.4995 -1.3442
11589TIP3   OH256257   4.897   0.502   5.045 -0.1148 -0.4381 -0.2395
11589TIP3    H156258   4.963   0.569   5.025 -0.7800  0.0195 -0.9535
11589TIP3    H256259   4.929   0.423   5.001 -0.3324 -0.0603 -1.1074
11590TIP3   OH256260   0.824   1.162   2.027  0.2407  0.7886  0.2137
11590TIP3    H156261   0.761   1.091   2.022  1.0668  0.1290 -1.4683
11590TIP3    H256262   0.842   1.186   1.936  1.9626  1.3327  0.6489
11591TIP3   OH256263   6.244   6.473  14.584 -0.0331 -0.3424  0.4086
11591TIP3    H156264   6.262   6.478  14.490 -0.8111 -0.6590  0.2280
11591TIP3    H256265   6.189   6.395  14.593  0.2091 -0.4329  1.1594
11592TIP3   OH256266   1.114   5.388  12.043  0.3484  0.2572 -0.2218
11592TIP3    H156267   1.208   5.376  12.055  0.4271  1.0582 -0.0337
11592TIP3    H256268   1.101   5.482  12.042 -0.7456  0.2239  2.3763
11593TIP3   OH256269   4.874   5.029  11.598  0.3883 -0.1999 -1.0455
11593TIP3    H156270   4.918   5.064  11.676 -1.4104 -0.4003  0.1318
11593TIP3    H256271   4.879   4.934  11.608 -0.3044 -0.2282 -0.8570
11594TIP3   OH256272   3.527   5.783   5.459  0.0351  0.2948 -0.3333
11594TIP3    H156273   3.540   5.731   5.538 -2.5825 -0.0418 -0.0438
11594TIP3    H256274   3.583   5.860   5.472  4.2535 -2.3697 -0.8994
11595TIP3   OH256275   2.850   1.687   4.440 -0.5113  0.4369  0.4767
11595TIP3    H156276   2.845   1.736   4.522 -2.7549 -1.5330  1.6532
11595TIP3    H256277   2.932   1.638   4.446 -1.2516 -0.6628  2.1897
11596TIP3   OH256278   2.116   6.466   4.301  0.1029  0.7121 -0.1103
11596TIP3    H156279   2.078   6.545   4.262 -0.3850  0.9574  0.8076
11596TIP3    H256280   2.101   6.477   4.395  1.2728  0.1670  0.1539
11597TIP3   OH256281   6.021   0.773  12.137  0.0645 -0.5246 -0.0133
11597TIP3    H156282   6.036   0.802  12.227  0.4674 -0.8872  0.0390
11597TIP3    H256283   5.926   0.763  12.130  0.0341 -0.4996  0.3718
11598TIP3   OH256284   1.058   5.790   0.799  0.1700  0.1201 -0.1024
11598TIP3    H156285   1.041   5.884   0.808 -3.1164 -0.2318 -1.3080
11598TIP3    H256286   1.049   5.773   0.706  0.9777 -1.4053  0.0671
11599TIP3   OH256287   6.027   2.321   0.286  0.5374  0.3161 -0.1698
11599TIP3    H156288   5.944   2.284   0.316  0.4462 -0.2548 -1.0766
11599TIP3    H256289   6.042   2.279   0.201  1.1294  1.3567 -0.5886
11600TIP3   OH256290   0.265   4.178   5.743 -0.0607  0.0291 -0.2964
11600TIP3    H156291   0.310   4.110   5.692  1.6343  1.6316 -1.0301
11600TIP3    H256292   0.335   4.220   5.793 -1.0495  1.3120  0.0485
11601TIP3   OH256293   1.814   1.761  10.779 -0.1348  0.2100  0.2806
11601TIP3    H156294   1.831   1.821  10.706  0.4186 -0.8911 -0.5449
11601TIP3    H256295   1.826   1.814  10.857  1.0392  1.0129 -0.4029
11602TIP3   OH256296   1.928   5.617  16.862  0.3876 -0.1781 -0.7461
11602TIP3    H156297   1.945   5.536  16.815 -1.8988 -2.1726  1.5405
11602TIP3    H256298   1.848   5.651  16.823 -0.3571 -0.7285  0.2445
11603TIP3   OH256299   5.326   5.555   0.775 -0.0839 -0.1788 -0.2997
11603TIP3    H156300   5.232   5.540   0.784 -0.5184  0.6216 -2.8077
11603TIP3    H256301   5.358   5.477   0.730  0.4438 -0.3855  0.4249
11604TIP3   OH256302   1.301   1.838   4.733  0.2726  0.4446  0.1755
11604TIP3    H156303   1.218   1.804   4.769  0.5254 -0.1782  0.1830
11604TIP3    H256304   1.303   1.806   4.643  1.3236 -1.0671  0.6955
11605TIP3   OH256305   3.200   0.753   2.247  0.4061  0.1342  0.7777
11605TIP3    H156306   3.181   0.702   2.168  1.2486  0.3129  0.4510
11605TIP3    H256307   3.281   0.800   2.227  0.8584 -0.1367  1.9013
11606TIP3   OH256308   5.339   1.748  15.391  0.5641  0.1748  0.0615
11606TIP3    H156309   5.360   1.840  15.372 -0.3471  0.0639 -1.6621
11606TIP3    H256310   5.385   1.699  15.323  3.5927 -1.0051  2.6837
11607TIP3   OH256311   5.326   3.024   3.918  0.0451  0.0579  0.5016
11607TIP3    H156312   5.377   3.032   3.999  1.1938  0.2240 -0.2172
11607TIP3    H256313   5.392   3.015   3.849 -0.8546  1.6611 -0.6349
11608TIP3   OH256314   0.628   4.563   2.090 -0.0953  0.6185 -0.1926
11608TIP3    H156315   0.652   4.484   2.140 -0.2943  0.1111 -0.8811
11608TIP3    H256316   0.656   4.543   2.001  0.7596  1.7399 -0.1921
11609TIP3   OH256317   1.576   4.136   4.880 -0.4001  0.0577 -0.1195
11609TIP3    H156318   1.661   4.133   4.924 -0.9901 -1.9621  1.0023
11609TIP3    H256319   1.573   4.056   4.826 -3.0505 -2.1726  2.9307
11610TIP3   OH256320   1.174   3.077   3.783 -0.5920  0.3906 -0.2359
11610TIP3    H156321   1.123   3.001   3.812  3.6787 -2.0403  1.8754
11610TIP3    H256322   1.203   3.118   3.864  0.8942  1.5693 -1.3200
11611TIP3   OH256323   2.986   2.430  14.822  0.1630  0.2755  0.4324
11611TIP3    H156324   2.910   2.432  14.764  0.6277  0.7214 -0.1634
11611TIP3    H256325   3.001   2.336  14.838  0.2793  0.1192 -0.5097
11612TIP3   OH256326   6.637   3.574  16.185  0.0684 -0.1999  0.0648
11612TIP3    H156327   6.642   3.639  16.116 -1.7527  0.6922  0.7245
11612TIP3    H256328   6.695   3.503  16.156  1.9864  1.6155 -0.7177
11613TIP3   OH256329   0.063   2.428  13.829 -0.5821 -0.1431  0.2340
11613TIP3    H156330   0.009   2.455  13.754  2.1121 -0.2171 -1.9090
11613TIP3    H256331   0.056   2.332  13.830  1.3678 -0.3881 -1.7147
11614TIP3   OH256332   0.281   0.189  16.688  0.6096  0.0724  0.1102
11614TIP3    H156333   0.341   0.120  16.660  1.9218  0.9022  0.7658
11614TIP3    H256334   0.264   0.239  16.608  2.5085  1.0631  0.2479
11615TIP3   OH256335   2.116   4.820  15.198  0.5499 -0.1437 -0.2552
11615TIP3    H156336   2.072   4.792  15.117  3.0569  0.5390 -1.9468
11615TIP3    H256337   2.129   4.739  15.247 -2.6178 -0.3727  0.4541
11616TIP3   OH256338   3.320   6.222   0.578 -0.2283  0.2945 -0.1723
11616TIP3    H156339   3.245   6.273   0.547 -1.2564  0.6049  2.5020
11616TIP3    H256340   3.282   6.137   0.602  0.6123 -0.1492 -0.3986
11617TIP3   OH256341   5.958   1.032   4.749  0.1473 -0.2583  0.1958
11617TIP3    H156342   5.898   1.106   4.746  0.4097 -0.0710 -0.8869
11617TIP3    H256343   5.912   0.965   4.798  0.4108  1.0524  2.3706
11618TIP3   OH256344   6.009   4.145   0.236  0.1893 -0.0820  0.9183
11618TIP3    H156345   5.958   4.115   0.161 -1.5898 -2.7996  3.0001
11618TIP3    H256346   6.089   4.182   0.199 -0.6359 -1.2175 -2.2637
11619TIP3   OH256347   5.811   2.910  11.304 -0.5855  0.3204  0.3559
11619TIP3    H156348   5.872   2.846  11.267 -0.7503  0.5178 -0.2770
11619TIP3    H256349   5.858   2.993  11.297 -0.0542  0.1733  1.9002
11620TIP3   OH256350   4.636   3.555  12.803  0.6197 -0.0750  0.1643
11620TIP3    H156351   4.645   3.562  12.898 -1.8644  1.1555  0.3889
11620TIP3    H256352   4.582   3.478  12.790  0.8509 -0.1677 -0.2432
11621TIP3   OH256353   4.193   0.870   6.377  0.0280  0.0823  0.1115
11621TIP3    H156354   4.214   0.892   6.286  2.8235 -1.7785  0.1779
11621TIP3    H256355   4.244   0.933   6.428 -0.7262  0.4630  0.4097
11622TIP3   OH256356   0.638   4.893  15.590 -0.1446  0.3287  0.4149
11622TIP3    H156357   0.716   4.948  15.591 -0.8837  1.4889  2.7942
11622TIP3    H256358   0.669   4.806  15.614  0.5000  0.6608  0.8006
11623TIP3   OH256359   6.245   2.433   1.368 -0.4538 -0.2114 -0.4974
11623TIP3    H156360   6.296   2.505   1.405 -1.0084  0.8463 -1.6989
11623TIP3    H256361   6.201   2.393   1.443  1.5360 -0.7055  0.4692
11624TIP3   OH256362   5.202   1.924   1.078 -0.1603  0.3740 -0.1181
11624TIP3    H156363   5.206   1.834   1.110 -0.0236 -0.4551 -2.2921
11624TIP3    H256364   5.109   1.940   1.061 -0.1431  0.5339 -0.0734
11625TIP3   OH256365   0.210   6.013   3.404 -0.0240  0.1812  0.0582
11625TIP3    H156366   0.177   5.925   3.386  0.3435  0.2045 -0.8081
11625TIP3    H256367   0.218   6.053   3.317  2.0419  0.2521  0.2267
11626TIP3   OH256368   2.498   1.800   1.875 -0.4119 -0.7675 -0.2893
11626TIP3    H156369   2.574   1.743   1.888 -0.7611 -0.9873  1.0363
11626TIP3    H256370   2.460   1.809   1.963 -1.3863  0.0823 -0.7712
11627TIP3   OH256371   3.757   5.395   4.347  0.1899 -0.5933  0.1368
11627TIP3    H156372   3.738   5.470   4.290  1.1577 -1.1975 -1.0391
11627TIP3    H256373   3.735   5.426   4.435 -1.7362  0.2514 -0.5641
11628TIP3   OH256374   1.580   6.713  12.329 -0.1933 -0.2378 -0.1115
11628TIP3    H156375   1.493   6.694  12.364  0.1419 -1.5146  0.0872
11628TIP3    H256376   1.606   6.795  12.372 -1.0596 -0.1448  0.2497
11629TIP3   OH256377   2.584   5.014   6.132  0.1686  0.0153  0.5377
11629TIP3    H156378   2.529   5.070   6.077 -0.3198 -0.2410  0.7594
11629TIP3    H256379   2.558   4.925   6.109  0.2153 -0.0998  0.9210
11630TIP3   OH256380   0.883   1.507  12.982  0.2028 -0.2686 -0.1323
11630TIP3    H156381   0.902   1.523  12.889  0.1300  0.6645 -0.0036
11630TIP3    H256382   0.843   1.420  12.984  0.2245 -0.3097 -0.9747
11631TIP3   OH256383   2.569   5.494   0.297 -0.1237  0.6091 -0.0311
11631TIP3    H156384   2.644   5.436   0.306 -0.6932 -0.3822 -1.2747
11631TIP3    H256385   2.502   5.440   0.253 -0.5054  2.3225 -1.7031
11632TIP3   OH256386   4.561   3.469  17.221  0.1389  0.0391  0.2146
11632TIP3    H156387   4.512   3.411  17.279  0.6593  1.5744  2.2932
11632TIP3    H256388   4.506   3.546  17.211  0.0889 -0.1519 -1.3646
11633TIP3   OH256389   3.567   1.077  11.674 -0.6000  0.4089 -0.2934
11633TIP3    H156390   3.504   1.148  11.662 -0.7673  0.1216 -1.1711
11633TIP3    H256391   3.652   1.121  11.679 -0.7019  0.6720 -0.8624
11634TIP3   OH256392   2.138   4.737  15.565  0.1330  0.4087 -0.6655
11634TIP3    H156393   2.183   4.817  15.538 -1.0667  1.7193  0.9546
11634TIP3    H256394   2.175   4.668  15.510  0.8332  2.1554 -2.5057
11635TIP3   OH256395   3.933   6.465  14.365  0.6659  0.0375 -0.2561
11635TIP3    H156396   3.898   6.547  14.331  0.2992 -0.0506 -0.0975
11635TIP3    H256397   3.975   6.489  14.448  1.4324  0.2282 -0.6846
11636TIP3   OH256398   1.405   2.057  14.513 -0.0821  0.4554  0.2834
11636TIP3    H156399   1.470   2.113  14.470  1.1666 -0.6092  0.7107
11636TIP3    H256400   1.414   2.078  14.606  1.7192 -1.6684  0.6756
11637TIP3   OH256401   0.566   6.484  16.435 -0.6124 -0.4546  0.1486
11637TIP3    H156402   0.474   6.477  16.410 -0.1744  0.7611 -2.0203
11637TIP3    H256403   0.564   6.513  16.526 -2.3258 -2.3128  0.7568
11638TIP3   OH256404   1.872   3.923   1.526 -0.0041  0.2532 -0.2908
11638TIP3    H156405   1.836   3.849   1.575 -0.7606  0.8564  0.0760
11638TIP3    H256406   1.817   3.997   1.550  0.5517  0.8764 -0.8992
11639TIP3   OH256407   6.438   4.823  16.736  0.1379 -0.1214 -0.1051
11639TIP3    H156408   6.474   4.845  16.650 -0.5419 -1.9037 -0.8849
11639TIP3    H256409   6.389   4.901  16.762  0.4598  0.4902 -1.2652
11640TIP3   OH256410   4.285   4.259  16.239  0.3004 -0.8329 -0.0389
11640TIP3    H156411   4.325   4.265  16.325  1.2499  0.7329 -0.5587
11640TIP3    H256412   4.238   4.175  16.240 -1.2136 -0.0649  2.6101
11641TIP3   OH256413   6.802   1.053  15.360 -0.0569 -0.2800  0.0539
11641TIP3    H156414   6.763   1.103  15.432  1.6563 -1.4869  1.9333
11641TIP3    H256415   6.845   1.120  15.306 -0.6247  0.5814  0.6366
11642TIP3   OH256416   1.891   3.022   0.843 -0.3579 -0.2002 -0.4067
11642TIP3    H156417   1.806   3.004   0.804 -0.6668 -0.3146  0.2958
11642TIP3    H256418   1.913   3.110   0.814 -2.4673  1.4150  2.3402
11643TIP3   OH256419   0.329   1.624  15.007 -0.2718 -0.1450  0.2749
11643TIP3    H156420   0.373   1.556  15.058  1.8180  0.4785 -0.6056
11643TIP3    H256421   0.240   1.625  15.042 -0.1272 -2.6686  0.9494
11644TIP3   OH256422   1.984   5.240   1.287  0.1617 -0.0473  0.2982
11644TIP3    H156423   1.929   5.209   1.215  1.9438 -0.2319 -1.0508
11644TIP3    H256424   2.005   5.330   1.265 -0.7323  0.5084  1.5560
11645TIP3   OH256425   0.746   1.232  13.812  0.3302 -0.1651 -0.7658
11645TIP3    H156426   0.778   1.242  13.901 -0.3083 -0.4942 -0.4903
11645TIP3    H256427   0.779   1.147  13.783  1.9768  0.6726 -1.4783
11646TIP3   OH256428   4.277   4.126   4.974  0.1481  0.2475  0.2529
11646TIP3    H156429   4.227   4.052   5.009  0.3144  0.8890  1.9139
11646TIP3    H256430   4.356   4.086   4.938 -0.1316 -0.4537  0.3843
11647TIP3   OH256431   2.867   6.763   0.119  0.0681  0.1492 -0.1736
11647TIP3    H156432   2.920   6.706   0.062 -0.8920  0.1013 -1.0513
11647TIP3    H256433   2.858   6.714   0.200 -2.3302 -1.9151 -1.5386
11648TIP3   OH256434   6.245   0.258   2.383 -0.3276 -0.3080  0.4839
11648TIP3    H156435   6.193   0.310   2.444 -2.2835 -0.4080 -0.9902
11648TIP3    H256436   6.238   0.168   2.414 -0.5003 -0.2320  0.6624
11649TIP3   OH256437   2.517   1.191   1.311  0.0500  0.4617 -0.0984
11649TIP3    H156438   2.557   1.148   1.386  0.0332  1.3544  0.4414
11649TIP3    H256439   2.505   1.282   1.339 -0.4342  0.6899 -0.9972
11650TIP3   OH256440   1.232   4.862   1.932  0.6487  0.1159 -0.5732
11650TIP3    H156441   1.224   4.847   2.027  1.1935  1.0665 -0.3599
11650TIP3    H256442   1.142   4.869   1.901  0.4751  0.5702  0.0172
11651TIP3   OH256443   3.248   2.051  12.804  0.0054 -0.5118 -0.7038
11651TIP3    H156444   3.219   2.106  12.876  1.5972 -1.3320  0.6371
11651TIP3    H256445   3.213   1.964  12.825  0.6485 -0.8002 -0.7937
11652TIP3   OH256446   0.337   0.256   3.553 -0.7795  0.2910  0.6710
11652TIP3    H156447   0.367   0.225   3.638  1.8973  0.9137  0.0722
11652TIP3    H256448   0.319   0.176   3.503  0.5836 -0.1969  0.9150
11653TIP3   OH256449   4.765   5.532   5.674 -0.5274  0.8909 -0.1894
11653TIP3    H156450   4.727   5.532   5.586  0.4230  1.9320 -0.6324
11653TIP3    H256451   4.793   5.623   5.688  0.8292  0.3922  0.5110
11654TIP3   OH256452   2.817   4.436  14.688  0.5327 -0.7173 -0.1496
11654TIP3    H156453   2.837   4.436  14.782 -0.0138 -1.0310 -0.0325
11654TIP3    H256454   2.792   4.527  14.669  0.5258 -0.6817  0.0272
11655TIP3   OH256455   2.691   4.903   0.547  0.9463 -0.6214 -0.1661
11655TIP3    H156456   2.779   4.924   0.579  0.9697 -1.0238  0.0356
11655TIP3    H256457   2.632   4.953   0.605  1.0259 -0.6323 -0.0760
11656TIP3   OH256458   3.602   5.734  16.754 -0.0425 -0.9699  0.6637
11656TIP3    H156459   3.600   5.808  16.692  0.0736 -1.8960 -0.4711
11656TIP3    H256460   3.517   5.692  16.743 -1.1583  0.4174  3.1480
11657TIP3   OH256461   3.218   6.102  10.906  0.0879  0.3864 -0.1054
11657TIP3    H156462   3.311   6.091  10.890  0.1314  2.7468 -2.0243
11657TIP3    H256463   3.182   6.128  10.821 -2.0663  0.8860  0.8981
11658TIP3   OH256464   1.498   0.483   6.000 -0.4903  0.7664  0.2515
11658TIP3    H156465   1.438   0.490   5.925 -0.4107  0.6427  0.1756
11658TIP3    H256466   1.480   0.562   6.052 -0.5573  0.8451  0.1114
11659TIP3   OH256467   6.568   5.994  13.730  0.2398  0.0517 -1.0150
11659TIP3    H156468   6.500   5.976  13.796  0.1997 -0.6464 -1.2407
11659TIP3    H256469   6.577   5.912  13.682  0.0305  0.6566 -2.1110
11660TIP3   OH256470   3.348   4.302   4.706  0.5682 -0.0633  0.1225
11660TIP3    H156471   3.294   4.278   4.631  1.2972 -0.6303 -0.2443
11660TIP3    H256472   3.338   4.396   4.714  3.3826  0.7012 -3.0868
11661TIP3   OH256473   2.874   3.342   5.094 -0.3508 -0.1660 -0.2856
11661TIP3    H156474   2.910   3.265   5.136  0.8653  0.4607 -0.1277
11661TIP3    H256475   2.816   3.308   5.026  1.4330 -1.2765 -1.3388
11662TIP3   OH256476   2.987   4.520   4.677  0.5824  0.1608  0.0831
11662TIP3    H156477   2.899   4.556   4.686  0.3813 -0.7688  2.8147
11662TIP3    H256478   2.977   4.426   4.696  2.2282  0.1747  1.2804
11663TIP3   OH256479   6.379   2.880  15.871  0.1315  0.0087 -0.4983
11663TIP3    H156480   6.405   2.963  15.912 -1.3813  0.5160 -0.4780
11663TIP3    H256481   6.456   2.852  15.822  1.5044  0.1282  1.4970
11664TIP3   OH256482   5.156   1.253   4.115 -0.1137 -0.3969 -0.2028
11664TIP3    H156483   5.153   1.302   4.197  0.7671  0.2718 -0.5630
11664TIP3    H256484   5.086   1.187   4.124  0.5796 -0.9483  1.4744
11665TIP3   OH256485   4.198   5.619  16.337 -0.1691 -0.1532  0.7918
11665TIP3    H156486   4.195   5.711  16.310 -0.9676  0.1883  1.9960
11665TIP3    H256487   4.277   5.585  16.293  0.9788  1.4797  1.4748
11666TIP3   OH256488   5.928   0.572   5.040  0.1857 -0.3059 -0.2948
11666TIP3    H156489   5.938   0.611   4.953  0.0905 -1.1533 -0.6978
11666TIP3    H256490   6.005   0.603   5.089  0.5261 -0.2493 -0.8494
11667TIP3   OH256491   0.930   5.195  14.745  0.1460  0.0589  0.0121
11667TIP3    H156492   0.984   5.256  14.795 -0.7775  1.4581 -0.6130
11667TIP3    H256493   0.926   5.233  14.657 -1.2155 -0.4173 -0.1527
11668TIP3   OH256494   4.925   6.162  11.010  0.2233  0.5208  0.7946
11668TIP3    H156495   4.990   6.092  11.007  0.7659  0.9939 -2.5127
11668TIP3    H256496   4.844   6.120  10.978  0.4819  1.2524 -0.9292
11669TIP3   OH256497   5.431   5.037   0.145  0.3934  0.2940 -0.6526
11669TIP3    H156498   5.345   5.015   0.108  0.4721  1.9194 -1.9112
11669TIP3    H256499   5.417   5.121   0.190  0.9046 -0.3904  0.8398
11670TIP3   OH256500   4.276   6.481   4.118 -0.0786 -0.1269 -0.2092
11670TIP3    H156501   4.232   6.484   4.203 -2.7462  0.3140 -1.5238
11670TIP3    H256502   4.295   6.572   4.097  2.3484 -0.3508  0.6896
11671TIP3   OH256503   1.680   6.192  17.109  0.8659 -0.3683  0.4493
11671TIP3    H156504   1.746   6.237  17.056  0.8143 -0.7175  0.0831
11671TIP3    H256505   1.716   6.105  17.122  1.1872 -0.0833  1.5661
11672TIP3   OH256506   3.456   6.640  13.083  0.5319  0.2606  0.6573
11672TIP3    H156507   3.443   6.681  12.998  0.4946 -0.9452  0.0660
11672TIP3    H256508   3.403   6.692  13.143  0.2727  0.9014 -0.1158
11673TIP3   OH256509   4.877   2.026  11.737  0.2875 -0.3538  0.7273
11673TIP3    H156510   4.877   2.121  11.726  0.7178 -0.5623 -1.4374
11673TIP3    H256511   4.896   2.014  11.830  0.8206  1.6657  0.9433
11674TIP3   OH256512   6.180   0.999  11.384 -0.6841 -0.7106  0.1215
11674TIP3    H156513   6.106   1.053  11.411 -0.7647 -0.1636 -1.1367
11674TIP3    H256514   6.203   0.949  11.463 -1.2710  0.3824  1.0218
11675TIP3   OH256515   0.871   0.166  15.751 -0.1258  0.2325  0.4322
11675TIP3    H156516   0.941   0.104  15.730  1.8357  1.9103  1.6580
11675TIP3    H256517   0.794   0.130  15.708  1.6591 -1.2629 -1.7648
11676TIP3   OH256518   3.607   1.452  13.411  0.8440 -0.1248  0.1717
11676TIP3    H156519   3.667   1.379  13.392 -1.1423 -1.5426 -0.9778
11676TIP3    H256520   3.543   1.450  13.341 -0.4509  1.4864  1.2321
11677TIP3   OH256521   4.819   4.887  13.910  0.4673 -0.0636 -0.1730
11677TIP3    H156522   4.728   4.911  13.927  0.0459 -2.4472  1.5433
11677TIP3    H256523   4.851   4.952  13.848 -1.8594  1.9019  0.5539
11678TIP3   OH256524   3.576   5.760   3.036  0.5344  0.3428  0.3486
11678TIP3    H156525   3.564   5.853   3.018  0.5156  0.3566  0.4330
11678TIP3    H256526   3.568   5.718   2.950 -1.6716  0.1851  0.5760
11679TIP3   OH256527   5.402   6.057  12.925  0.4460 -0.5166 -0.3822
11679TIP3    H156528   5.406   6.109  13.006  0.5589  1.4008 -1.5456
11679TIP3    H256529   5.322   6.086  12.882  1.8127  0.6632 -2.2814
11680TIP3   OH256530   6.312   4.335   0.684  0.2580  0.8395 -0.1978
11680TIP3    H156531   6.318   4.394   0.609 -0.9909  2.5292  0.9516
11680TIP3    H256532   6.371   4.374   0.749  2.1894 -1.2124 -0.5898
11681TIP3   OH256533   3.588   2.399   2.891  0.3996  0.3185 -0.6438
11681TIP3    H156534   3.656   2.348   2.935  1.3068  0.8458 -1.4041
11681TIP3    H256535   3.544   2.446   2.961  0.4578 -0.4481 -0.0842
11682TIP3   OH256536   3.531   2.992  11.133  0.0842 -0.2991  0.1098
11682TIP3    H156537   3.464   2.979  11.201  3.1313 -0.1184  3.4833
11682TIP3    H256538   3.531   3.087  11.117 -0.6826 -0.3472 -0.2265
11683TIP3   OH256539   1.161   5.286   3.682 -0.1609 -0.5173 -0.9097
11683TIP3    H156540   1.105   5.362   3.671  0.5166 -0.0884 -1.4799
11683TIP3    H256541   1.128   5.243   3.761  1.6264  2.3199  1.6172
11684TIP3   OH256542   6.361   2.397  16.167 -0.5441  0.2567  0.1479
11684TIP3    H156543   6.446   2.423  16.133 -1.3322 -0.5502 -2.8066
11684TIP3    H256544   6.301   2.466  16.137 -1.2543 -0.3827  0.0415
11685TIP3   OH256545   3.448   4.912   5.548  0.3691  0.2183 -0.2462
11685TIP3    H156546   3.405   4.976   5.606 -0.7156 -0.2031 -0.5481
11685TIP3    H256547   3.481   4.845   5.607 -1.6149 -0.7293 -0.1034
11686TIP3   OH256548   5.278   4.206   4.713 -0.3213  0.5612  0.2152
11686TIP3    H156549   5.350   4.240   4.660  0.2104 -0.5308  0.2109
11686TIP3    H256550   5.265   4.273   4.780  0.2131  1.1066 -0.2041
11687TIP3   OH256551   4.615   1.057   5.797 -0.1542  0.7159  0.1643
11687TIP3    H156552   4.526   1.059   5.832 -0.0883 -0.3399  0.4051
11687TIP3    H256553   4.647   0.970   5.817  0.2426  0.4044 -1.6413
11688TIP3   OH256554   0.196   2.471  11.288  0.6327 -0.5708  0.8316
11688TIP3    H156555   0.217   2.545  11.345  1.5453 -0.7097  0.6867
11688TIP3    H256556   0.279   2.426  11.274  0.2691 -1.0513  0.1118
11689TIP3   OH256557   1.287   6.574  16.047  0.0457  0.0375  0.5960
11689TIP3    H156558   1.358   6.608  16.101 -0.3771  0.8174  0.6746
11689TIP3    H256559   1.268   6.488  16.084  1.3144 -0.4278  0.2281
11690TIP3   OH256560   0.392   3.276  11.277  0.3477  0.0569 -0.1113
11690TIP3    H156561   0.469   3.284  11.334 -0.3022  1.2146  0.6464
11690TIP3    H256562   0.405   3.343  11.210  0.2467 -0.0968 -0.2834
11691TIP3   OH256563   2.429   0.818   0.277 -0.2524  0.2778  0.3937
11691TIP3    H156564   2.430   0.753   0.206  1.1898  0.7426 -0.0457
11691TIP3    H256565   2.350   0.869   0.261 -1.0407 -0.9074  0.3357
11692TIP3   OH256566   5.929   2.282  13.330 -0.0663  0.4772 -0.0056
11692TIP3    H156567   5.942   2.226  13.407 -1.1825  0.3899  0.1359
11692TIP3    H256568   5.900   2.366  13.366 -0.1443  0.5831 -0.3101
11693TIP3   OH256569   6.399   5.690  13.215  0.1623  0.0020 -0.1761
11693TIP3    H156570   6.434   5.607  13.248 -2.5833 -1.3354 -0.3311
11693TIP3    H256571   6.345   5.666  13.140 -0.4167  1.9976 -0.4739
11694TIP3   OH256572   3.151   3.906  14.549 -0.1813 -0.1006 -0.2953
11694TIP3    H156573   3.078   3.849  14.526 -0.6139  0.3117  0.0451
11694TIP3    H256574   3.189   3.930  14.464 -1.0094  0.4126 -0.5415
11695TIP3   OH256575   1.708   4.196  12.562  0.3615  0.1950 -0.0913
11695TIP3    H156576   1.692   4.273  12.508 -0.9503  0.9995  1.3380
11695TIP3    H256577   1.694   4.122  12.503 -0.7776  1.0354 -0.9276
11696TIP3   OH256578   0.036   5.499  13.671  0.2444 -0.2492 -0.0765
11696TIP3    H156579   0.084   5.432  13.720 -0.7921 -0.6573  0.4162
11696TIP3    H256580   0.023   5.570  13.733  0.9027  0.2072 -0.4507
11697TIP3   OH256581   6.229   2.207   5.341  0.1821  0.0182 -0.1335
11697TIP3    H156582   6.169   2.133   5.337 -0.1530  0.3564 -1.7994
11697TIP3    H256583   6.226   2.235   5.433 -1.5133 -0.5368  0.0132
11698TIP3   OH256584   6.327   4.592  11.755 -0.2612 -0.0554  0.6351
11698TIP3    H156585   6.322   4.550  11.669  0.7427  0.4483  0.3152
11698TIP3    H256586   6.384   4.668  11.741 -1.1202  0.7613  1.4579
11699TIP3   OH256587   2.069   2.666   1.149  0.0016 -0.2965  0.2175
11699TIP3    H156588   2.163   2.658   1.163 -0.0130 -1.6221 -0.3005
11699TIP3    H256589   2.032   2.664   1.238  0.4005 -0.7978  0.3778
11700TIP3   OH256590   2.482   2.323  14.508  0.2482  0.6827  0.2931
11700TIP3    H156591   2.546   2.358  14.446 -0.2919 -0.2936 -0.8454
11700TIP3    H256592   2.526   2.249  14.549 -0.1978 -0.1024 -0.6232
11701TIP3   OH256593   6.785   4.206  13.145  0.8925 -0.3223  0.2549
11701TIP3    H156594   6.800   4.116  13.116  0.3895 -0.1924 -0.4401
11701TIP3    H256595   6.873   4.241  13.162  1.0154 -1.3510  1.8438
11702TIP3   OH256596   3.206   4.635   4.288  0.0776  0.8338  0.1277
11702TIP3    H156597   3.300   4.619   4.280 -0.1441 -0.4128 -0.2327
11702TIP3    H256598   3.195   4.663   4.379  0.6042 -0.7079  0.7140
11703TIP3   OH256599   3.416   1.808  13.769  0.2563  0.1685 -0.0086
11703TIP3    H156600   3.448   1.766  13.688 -0.5976 -2.3637  0.8804
11703TIP3    H256601   3.357   1.876  13.738  1.4131  0.5629 -1.5341
11704TIP3   OH256602   3.004   5.007   3.111  0.0773  0.2590 -0.1883
11704TIP3    H156603   3.093   5.041   3.114  0.9401 -1.9319  0.6055
11704TIP3    H256604   3.005   4.930   3.168 -1.8063 -1.0042 -1.7240
11705TIP3   OH256605   4.680   2.385   4.596 -0.2924 -0.5558 -0.0866
11705TIP3    H156606   4.769   2.352   4.589 -0.8049 -1.9577 -0.4478
11705TIP3    H256607   4.638   2.358   4.514 -0.9559  0.3672 -0.0566
11706TIP3   OH256608   6.538   6.575   6.173 -0.3309  0.2814 -0.2138
11706TIP3    H156609   6.525   6.493   6.221 -2.4899 -1.0528 -2.8003
11706TIP3    H256610   6.628   6.570   6.142  0.9985  0.9831  3.0626
11707TIP3   OH256611   1.631   5.762  15.579 -0.2933  0.3269  0.1674
11707TIP3    H156612   1.715   5.792  15.545  1.1687 -1.1386  2.2114
11707TIP3    H256613   1.633   5.667  15.564 -1.3013  0.1938  0.8342
11708TIP3   OH256614   2.181   0.468   0.721 -0.5856 -0.5554  1.0187
11708TIP3    H156615   2.164   0.563   0.719 -0.4907 -0.5551 -0.5068
11708TIP3    H256616   2.141   0.439   0.803 -0.6325  0.7987  1.5099
11709TIP3   OH256617   3.671   2.522  12.681 -0.0899  0.0550  0.7339
11709TIP3    H156618   3.719   2.448  12.719  0.9513  0.5433  0.4118
11709TIP3    H256619   3.579   2.500  12.694  0.2051 -1.1269  0.9733
11710TIP3   OH256620   1.954   5.182   0.545  0.2671  0.0958  0.5018
11710TIP3    H156621   2.036   5.184   0.594  1.2014 -0.0861 -0.9769
11710TIP3    H256622   1.890   5.225   0.602  1.5606  0.9331  1.3646
11711TIP3   OH256623   3.205   2.991   4.109 -0.2844  0.0797  0.0760
11711TIP3    H156624   3.267   2.928   4.146 -0.7314 -0.1569  0.4367
11711TIP3    H256625   3.156   2.940   4.045 -0.8198 -0.0104  0.5501
11712TIP3   OH256626   1.118   1.441   1.639  0.1516 -0.1929  0.6317
11712TIP3    H156627   1.195   1.385   1.650 -0.9990 -1.9283  0.2444
11712TIP3    H256628   1.103   1.442   1.544  0.0600  0.6736  0.6472
11713TIP3   OH256629   3.633   3.566  12.777  0.1866 -0.8055 -0.2430
11713TIP3    H156630   3.644   3.647  12.827  1.1956 -0.5266 -0.8977
11713TIP3    H256631   3.689   3.577  12.700 -0.5089 -1.6773 -0.8967
11714TIP3   OH256632   6.686   0.747   4.491  0.1653 -1.1141  0.1608
11714TIP3    H156633   6.747   0.814   4.523 -1.0349 -0.2892  0.7796
11714TIP3    H256634   6.613   0.749   4.552 -1.0322 -1.2703 -1.2070
11715TIP3   OH256635   3.763   4.317   1.170 -0.2619  0.5474  0.5373
11715TIP3    H156636   3.770   4.263   1.092 -0.1670  0.2325  0.7602
11715TIP3    H256637   3.695   4.275   1.223 -1.3224  1.5411  0.0100
11716TIP3   OH256638   5.517   0.896  16.145  0.3395  0.3122  0.2492
11716TIP3    H156639   5.438   0.937  16.111 -0.3405 -0.2009  1.1690
11716TIP3    H256640   5.587   0.958  16.124 -0.1836  0.4482 -1.2047
11717TIP3   OH256641   4.350   2.679   5.712  0.1662 -0.3465  0.0980
11717TIP3    H156642   4.263   2.702   5.680  0.0039  2.6291  2.2313
11717TIP3    H256643   4.339   2.670   5.806  2.3506  1.6393  0.6416
11718TIP3   OH256644   4.896   6.029   3.325 -0.0803 -0.1664  0.0118
11718TIP3    H156645   4.832   6.040   3.396  0.2390 -1.4347  0.5378
11718TIP3    H256646   4.981   6.028   3.370  0.0888 -1.5648 -0.2826
11719TIP3   OH256647   4.728   1.637  11.078 -0.0746 -0.6266  0.3540
11719TIP3    H156648   4.818   1.606  11.070  0.8483  1.6446  1.3430
11719TIP3    H256649   4.727   1.690  11.157 -2.3836 -0.8367  0.5400
11720TIP3   OH256650   1.882   0.184   0.491  0.0430  0.1000 -0.1169
11720TIP3    H156651   1.865   0.112   0.431 -0.8758  1.1685 -1.1841
11720TIP3    H256652   1.946   0.149   0.553 -1.0186 -1.8976 -0.0794
11721TIP3   OH256653   4.047   1.276   5.435  0.0823  0.3305  0.5766
11721TIP3    H156654   3.969   1.260   5.382  1.1111 -1.6310 -0.4615
11721TIP3    H256655   4.013   1.285   5.524 -1.6459  3.3066 -0.2555
11722TIP3   OH256656   0.598   3.914   3.365 -0.0899 -0.0386 -0.2731
11722TIP3    H156657   0.671   3.963   3.405 -0.0538 -1.3755  1.4212
11722TIP3    H256658   0.549   3.880   3.440 -2.5752  0.9206 -1.3655
11723TIP3   OH256659   5.402   0.914   4.302 -0.1143 -0.2467 -0.2280
11723TIP3    H156660   5.496   0.898   4.311 -0.1989 -0.5005  0.2718
11723TIP3    H256661   5.395   1.005   4.273  0.2384  0.3160  1.3349
11724TIP3   OH256662   0.743   2.236   1.009 -1.2130 -0.5053 -0.2946
11724TIP3    H156663   0.698   2.239   0.924 -1.0150 -0.0748 -0.3871
11724TIP3    H256664   0.830   2.201   0.988 -1.2322 -0.5904 -0.2349
11725TIP3   OH256665   2.890   1.514  12.662 -0.0463 -0.4488  0.4240
11725TIP3    H156666   2.885   1.609  12.674 -0.0999 -0.6160  1.9434
11725TIP3    H256667   2.898   1.479  12.751 -0.2010 -1.8859 -0.0991
11726TIP3   OH256668   1.503   5.623   2.584 -0.3668 -0.1190 -0.4692
11726TIP3    H156669   1.497   5.537   2.543  1.2028 -1.1888  1.3857
11726TIP3    H256670   1.452   5.616   2.664  1.1067  0.1014  0.5284
11727TIP3   OH256671   4.420   4.255   4.582 -0.2337  0.0740 -0.1466
11727TIP3    H156672   4.399   4.163   4.592  0.1429  0.1669  2.1090
11727TIP3    H256673   4.509   4.263   4.617 -0.4806  1.3807  0.2297
11728TIP3   OH256674   4.621   3.218   6.355 -0.4098 -0.4086  0.0854
11728TIP3    H156675   4.708   3.178   6.358 -0.4105 -0.4996 -0.6862
11728TIP3    H256676   4.573   3.178   6.427 -0.2042 -1.3205 -0.2617
11729TIP3   OH256677   2.337   2.692  16.549 -0.1689  0.0728 -0.2147
11729TIP3    H156678   2.300   2.634  16.483  0.6069 -0.4975 -0.1660
11729TIP3    H256679   2.312   2.780  16.521 -0.1911 -0.1918 -1.0469
11730TIP3   OH256680   6.273   6.492  15.350 -0.0553  0.2810 -0.4537
11730TIP3    H156681   6.208   6.442  15.400  2.3121 -0.9715  1.5559
11730TIP3    H256682   6.268   6.580  15.387 -2.6652  1.0952 -2.4603
11731TIP3   OH256683   0.838   6.027   2.742 -0.1042 -0.0066  0.4649
11731TIP3    H156684   0.780   5.954   2.763 -0.6262  0.1797 -0.2985
11731TIP3    H256685   0.926   5.989   2.741 -0.4825 -0.9319 -1.1925
11732TIP3   OH256686   2.628   5.975  15.587 -0.3636  0.7607 -0.1744
11732TIP3    H156687   2.619   5.913  15.660  1.0150  0.6283 -0.0858
11732TIP3    H256688   2.687   6.043  15.621 -0.3496  1.1241 -0.9076
11733TIP3   OH256689   6.128   3.256   2.777 -0.3446 -0.2803 -0.7300
11733TIP3    H156690   6.193   3.237   2.844 -0.3762  0.5729 -0.4439
11733TIP3    H256691   6.132   3.351   2.766 -1.5799 -0.1991 -0.6541
11734TIP3   OH256692   4.402   5.164  12.905 -0.0527  0.3842 -0.2042
11734TIP3    H156693   4.399   5.097  12.973 -0.9914 -0.7780 -1.3396
11734TIP3    H256694   4.331   5.224  12.926 -0.1904  0.1607 -0.0335
11735TIP3   OH256695   6.179   6.456  12.049 -0.2724 -0.2648 -0.2925
11735TIP3    H156696   6.214   6.509  11.978  0.7539 -1.5742 -0.8001
11735TIP3    H256697   6.234   6.476  12.124 -0.0634 -0.4052 -0.4087
11736TIP3   OH256698   5.365   4.891  10.853  0.0179  0.4504 -0.5563
11736TIP3    H156699   5.441   4.854  10.807 -0.0840 -0.5897  0.0944
11736TIP3    H256700   5.387   4.884  10.946 -0.5566  0.8334 -0.3865
11737TIP3   OH256701   5.767   3.539  14.004 -0.3944 -0.1857  0.3243
11737TIP3    H156702   5.798   3.460  14.048  0.2457 -0.1126  0.0199
11737TIP3    H256703   5.717   3.506  13.929 -1.4154 -0.3081  1.0393
11738TIP3   OH256704   3.954   4.448   5.678 -0.1085 -0.2452  1.1134
11738TIP3    H156705   4.033   4.393   5.678  0.5687  0.6661 -0.2378
11738TIP3    H256706   3.882   4.386   5.662  0.8484 -0.6241 -2.8197
11739TIP3   OH256707   6.519   2.682   2.366  0.6945  0.3317  0.2085
11739TIP3    H156708   6.575   2.757   2.388 -0.2512  0.8483  0.9637
11739TIP3    H256709   6.490   2.699   2.276  1.5157  0.2025 -0.0841
11740TIP3   OH256710   3.748   0.482   3.976 -0.2898 -0.1463 -0.4226
11740TIP3    H156711   3.802   0.561   3.983  1.3754 -1.3544  1.9201
11740TIP3    H256712   3.783   0.436   3.901  1.3809 -0.4302  0.4734
11741TIP3   OH256713   2.903   4.132   6.003 -0.0012  0.4832 -0.5434
11741TIP3    H156714   2.851   4.117   5.924  0.4720 -0.6335 -0.6574
11741TIP3    H256715   2.988   4.094   5.984  1.5475  3.8004 -1.0347
11742TIP3   OH256716   0.781   2.228  10.938 -0.3110 -0.5655 -0.1513
11742TIP3    H156717   0.747   2.265  10.856 -1.0130 -0.7931  0.0304
11742TIP3    H256718   0.705   2.191  10.981 -0.2387  0.9651  1.3824
11743TIP3   OH256719   3.439   1.979   0.290  0.1523 -0.1133 -0.2942
11743TIP3    H156720   3.522   2.004   0.250 -0.6807 -0.2905 -2.2587
11743TIP3    H256721   3.442   1.883   0.293  0.1243 -0.1092 -0.1588
11744TIP3   OH256722   5.650   2.228   2.690 -1.0236  0.3154 -0.0236
11744TIP3    H156723   5.733   2.242   2.644  0.2721 -1.4473  1.5983
11744TIP3    H256724   5.646   2.300   2.753  1.4560 -1.6106  2.6519
11745TIP3   OH256725   5.911   5.733   2.752  0.3980  0.1747  0.3283
11745TIP3    H156726   5.918   5.763   2.842  0.0729  0.3591  0.2918
11745TIP3    H256727   5.855   5.797   2.709  1.0482  0.4300 -0.1605
11746TIP3   OH256728   5.573   1.318  13.423  0.5900 -0.2569 -0.1824
11746TIP3    H156729   5.609   1.386  13.366  3.6627 -1.1020  0.5144
11746TIP3    H256730   5.478   1.324  13.412  0.7418  3.5271 -0.7809
11747TIP3   OH256731   4.126   2.477  13.353  0.3835  0.5123 -0.2471
11747TIP3    H156732   4.189   2.419  13.396  0.2377 -0.8989 -1.8337
11747TIP3    H256733   4.157   2.483  13.263 -1.8454 -0.4780 -1.1604
11748TIP3   OH256734   5.565   6.067  11.821 -0.2700  0.2331  1.1295
11748TIP3    H156735   5.644   6.053  11.767 -0.6220  1.7879  0.1254
11748TIP3    H256736   5.496   6.021  11.774 -0.1989 -0.1028  1.3510
11749TIP3   OH256737   3.166   4.136  13.607 -0.1384 -0.5419  0.0124
11749TIP3    H156738   3.260   4.149  13.612 -0.1389 -0.3439 -0.4395
11749TIP3    H256739   3.138   4.125  13.698  0.3517 -0.8452  0.1326
11750TIP3   OH256740   0.153   3.452  13.774  0.3298 -0.3601  0.1758
11750TIP3    H156741   0.206   3.406  13.839 -2.7499 -2.6624  1.2981
11750TIP3    H256742   0.152   3.543  13.805  2.6608 -0.4129  0.6387
11751TIP3   OH256743   2.983   0.118  14.045 -0.3403  0.0990 -0.3014
11751TIP3    H156744   3.043   0.172  13.993 -0.4381 -0.4951 -1.0489
11751TIP3    H256745   3.021   0.031  14.042 -0.1358  0.1345  0.9746
11752TIP3   OH256746   4.732   1.662  12.656  0.2501 -0.1489 -0.1506
11752TIP3    H156747   4.822   1.631  12.647  0.4721  0.3490  0.2841
11752TIP3    H256748   4.709   1.695  12.568  0.7330  0.3405 -0.1011
11753TIP3   OH256749   2.634   3.987   0.945 -0.6129 -0.2763  0.0345
11753TIP3    H156750   2.644   3.961   0.853 -0.1730  0.4529 -0.1286
11753TIP3    H256751   2.567   4.055   0.943 -0.8780 -0.5227  0.3125
11754TIP3   OH256752   2.287   6.385  12.965  0.3515  0.2727 -0.3425
11754TIP3    H156753   2.283   6.295  12.998 -1.7079  0.4204 -0.0524
11754TIP3    H256754   2.247   6.380  12.878 -0.1733  0.9655 -0.1460
11755TIP3   OH256755   0.022   0.843   6.308  0.0597  0.1425 -0.0890
11755TIP3    H156756   0.114   0.842   6.282  0.7441 -2.8280  1.9936
11755TIP3    H256757  -0.017   0.769   6.261  0.0891 -1.9323  2.8959
11756TIP3   OH256758   1.017   2.805   3.613  0.1547 -0.4303  0.2727
11756TIP3    H156759   0.982   2.846   3.534 -0.2174 -0.0517  0.6258
11756TIP3    H256760   0.955   2.830   3.682  0.1074 -1.3070  0.5604
11757TIP3   OH256761   1.898   1.831   5.251  0.1817 -0.4006 -0.5425
11757TIP3    H156762   1.825   1.869   5.299  0.8902  0.1806  0.1157
11757TIP3    H256763   1.930   1.903   5.197  1.7440  0.1102  0.9578
11758TIP3   OH256764   6.259   0.769   6.030  0.1992  0.6101  0.0683
11758TIP3    H156765   6.272   0.810   5.945  1.2448  0.1206 -0.0284
11758TIP3    H256766   6.172   0.797   6.058  0.2766  1.6389 -0.6777
11759TIP3   OH256767   5.036   3.969   5.210 -0.1663 -0.4631  0.2927
11759TIP3    H156768   4.982   4.041   5.178 -0.3125 -1.0241 -0.7416
11759TIP3    H256769   5.082   4.006   5.286 -0.9642  0.4250  0.3643
11760TIP3   OH256770   3.316   6.046  15.159 -0.1084  0.5801  0.7351
11760TIP3    H156771   3.357   6.113  15.213  1.6434  2.1500 -2.2840
11760TIP3    H256772   3.281   6.094  15.084  0.3071 -1.7224 -1.0420
11761TIP3   OH256773   3.213   6.035  11.854  0.1718 -0.7360  0.0145
11761TIP3    H156774   3.172   5.964  11.804  0.0961  0.2399 -1.3632
11761TIP3    H256775   3.281   5.992  11.906  0.3924 -1.7641 -1.0861
11762TIP3   OH256776   5.556   2.051   3.160 -0.6118 -0.5455 -0.0315
11762TIP3    H156777   5.609   2.117   3.115  0.3678 -2.7124 -2.2455
11762TIP3    H256778   5.475   2.097   3.183  0.5881  1.7815 -0.1801
11763TIP3   OH256779   0.008   6.192   1.388  0.4236  0.0421 -0.2194
11763TIP3    H156780   0.050   6.161   1.469 -2.8766 -0.4420  1.4803
11763TIP3    H256781  -0.020   6.113   1.343  1.9472  0.3233 -1.7739
11764TIP3   OH256782   1.314   3.416   2.959 -0.4501  0.4649  0.0303
11764TIP3    H156783   1.375   3.368   3.015 -0.5935  0.1790 -0.0569
11764TIP3    H256784   1.346   3.506   2.961 -0.0887  0.3387  0.0726
11765TIP3   OH256785   1.585   0.259   4.008  0.1486 -0.3489 -0.3789
11765TIP3    H156786   1.636   0.270   4.088  0.4197  0.0990 -0.6066
11765TIP3    H256787   1.588   0.345   3.965  1.3289 -0.9753 -1.6409
11766TIP3   OH256788   4.756   2.886  16.871 -0.4766 -0.1754 -0.2168
11766TIP3    H156789   4.819   2.848  16.810 -0.2310  1.5219 -1.0819
11766TIP3    H256790   4.678   2.903  16.818 -0.5194  0.6580  0.1008
11767TIP3   OH256791   5.739   0.683   1.462  0.1555 -0.2478  0.1798
11767TIP3    H156792   5.783   0.717   1.540  0.4892 -0.1635 -0.0422
11767TIP3    H256793   5.647   0.706   1.474  0.1990 -0.2704  0.5667
11768TIP3   OH256794   4.844   4.754  11.629 -0.3501 -0.4142 -0.5285
11768TIP3    H156795   4.782   4.708  11.572 -2.3832  1.5674 -0.0910
11768TIP3    H256796   4.834   4.712  11.714  0.6221 -1.5669 -0.9625
11769TIP3   OH256797   3.537   1.168  16.991  0.2034  0.4065  0.2621
11769TIP3    H156798   3.470   1.125  16.938 -0.2192 -0.7233  1.6520
11769TIP3    H256799   3.490   1.199  17.068  1.3903 -1.2660  1.7358
11770TIP3   OH256800   3.547   1.801   5.322 -0.7332  0.4046  0.0524
11770TIP3    H156801   3.566   1.895   5.322  0.0664  0.2874 -1.6866
11770TIP3    H256802   3.622   1.762   5.368 -0.7063  0.5557  0.1395
11771TIP3   OH256803   3.756   2.426   3.682  0.0571 -0.1293 -0.0176
11771TIP3    H156804   3.832   2.483   3.690 -1.3057  1.6845  0.6733
11771TIP3    H256805   3.741   2.393   3.770 -1.6346  1.8731  0.5134
11772TIP3   OH256806   3.567   2.537  10.964  0.2532  0.1584 -0.2890
11772TIP3    H156807   3.625   2.592  11.017  0.8435 -1.5996  0.9810
11772TIP3    H256808   3.479   2.556  10.998  0.1751  1.8359 -1.3079
11773TIP3   OH256809   1.952   4.992  15.814 -0.0355  0.2221 -0.0998
11773TIP3    H156810   2.041   4.967  15.839 -0.6134 -1.0758  0.8337
11773TIP3    H256811   1.923   4.922  15.755 -0.9173 -0.1734  0.7657
11774TIP3   OH256812   4.366   0.733   0.709  0.4931  0.0566  0.7582
11774TIP3    H156813   4.380   0.797   0.640 -1.7801 -0.5273 -0.3708
11774TIP3    H256814   4.369   0.648   0.664 -2.1577 -0.2864  1.0436
11775TIP3   OH256815   3.862   1.047  11.967 -0.0916  0.1189 -0.2005
11775TIP3    H156816   3.828   1.126  12.009 -3.4619 -2.0159  1.5872
11775TIP3    H256817   3.785   0.993  11.950  2.0093 -2.9399 -1.0485
11776TIP3   OH256818   0.268   2.219   1.244  0.4017  0.0071 -0.2863
11776TIP3    H156819   0.277   2.136   1.196 -0.7748 -0.5790  0.4572
11776TIP3    H256820   0.288   2.196   1.334 -2.0838 -0.0255  0.3420
11777TIP3   OH256821   5.701   2.143   4.782  0.2917  0.8040  0.1193
11777TIP3    H156822   5.693   2.186   4.697 -1.4303  1.0720  0.3786
11777TIP3    H256823   5.795   2.135   4.796  0.6609 -0.3524 -2.3582
11778TIP3   OH256824   6.053   2.609  14.852 -0.4900  0.0363 -0.4844
11778TIP3    H156825   5.992   2.606  14.926  0.0446  1.0620  0.0213
11778TIP3    H256826   6.139   2.589  14.891 -0.2982 -0.0207 -0.9327
11779TIP3   OH256827   5.851   6.779  14.200 -0.4843  0.0968 -0.3823
11779TIP3    H156828   5.857   6.810  14.290 -3.1489  0.5078 -0.2893
11779TIP3    H256829   5.857   6.684  14.206 -0.4990  0.1318  0.1937
11780TIP3   OH256830   0.043   6.331  12.523  0.6110 -0.0909 -0.1439
11780TIP3    H156831   0.080   6.333  12.611 -1.5210 -1.3953  0.8520
11780TIP3    H256832   0.069   6.246  12.487 -1.0422 -0.8835  0.4457
11781TIP3   OH256833   5.914   2.658   1.316 -0.2842  0.0557 -0.5225
11781TIP3    H156834   5.899   2.574   1.360 -0.4206  0.0477 -0.5809
11781TIP3    H256835   5.833   2.673   1.268  0.3670 -0.5997 -1.8752
11782TIP3   OH256836   1.181   3.928   1.979  0.9196  0.6871  0.8847
11782TIP3    H156837   1.130   4.008   1.971  0.1509  0.1742  0.5090
11782TIP3    H256838   1.175   3.887   1.893  0.4993 -0.2313  1.3311
11783TIP3   OH256839   1.600   1.889  13.466  0.1190  0.2432  0.2416
11783TIP3    H156840   1.519   1.894  13.414  1.1220  0.7207 -1.3598
11783TIP3    H256841   1.581   1.825  13.534 -1.2555 -0.4891 -0.7861
11784TIP3   OH256842   5.792   5.692  16.470 -0.5146  0.4409 -0.0816
11784TIP3    H156843   5.729   5.641  16.519  0.1813  0.7491  1.1684
11784TIP3    H256844   5.839   5.628  16.416 -0.6368 -0.0423  0.3820
11785TIP3   OH256845   3.650   0.645  13.138  0.7022  0.2193  0.5204
11785TIP3    H156846   3.584   0.648  13.069  0.1863  1.8901  1.0127
11785TIP3    H256847   3.611   0.698  13.209  2.5496  1.2444  0.8293
11786TIP3   OH256848   3.011   2.629   2.235 -0.1185 -0.2026  0.0081
11786TIP3    H156849   3.038   2.685   2.307 -0.9898 -1.0595  1.0417
11786TIP3    H256850   2.936   2.674   2.196  0.6553  0.5038 -0.7000
11787TIP3   OH256851   1.410   1.360  16.777 -0.3800  0.0188  0.7861
11787TIP3    H156852   1.495   1.339  16.816 -0.2014 -0.8602 -0.0673
11787TIP3    H256853   1.421   1.449  16.744 -0.0557  0.2146  1.3946
11788TIP3   OH256854   4.389   2.817   5.049  0.0521  0.6522  0.4723
11788TIP3    H156855   4.478   2.848   5.031  0.1954  0.4626  0.8575
11788TIP3    H256856   4.392   2.784   5.139  0.5166 -2.6638 -0.6286
11789TIP3   OH256857   0.397   0.327   0.340  0.1116 -0.6936  0.2076
11789TIP3    H156858   0.404   0.345   0.246  0.1957  2.3736  0.7107
11789TIP3    H256859   0.487   0.311   0.368  0.5355  1.5139  0.2522
11790TIP3   OH256860   3.758   1.668   3.900  0.4807 -0.0715  0.5127
11790TIP3    H156861   3.827   1.733   3.906  0.1094  0.3789 -0.0340
11790TIP3    H256862   3.679   1.718   3.878 -0.1314 -0.5086  1.6198
11791TIP3   OH256863   0.588   2.433  13.568 -0.2682  0.4088  0.3502
11791TIP3    H156864   0.607   2.485  13.490  0.7784 -0.2511  0.1414
11791TIP3    H256865   0.493   2.428  13.572 -0.3341  0.6850 -0.7249
11792TIP3   OH256866   5.314   4.397  10.488  0.6194  0.1244 -0.6735
11792TIP3    H156867   5.342   4.317  10.444  1.1163 -0.2448  0.2883
11792TIP3    H256868   5.257   4.440  10.424 -1.4628 -2.0643 -0.4281
11793TIP3   OH256869   3.883   1.656   0.439  0.3991 -0.0471  0.2305
11793TIP3    H156870   3.891   1.566   0.470  2.0152 -0.0733 -0.1524
11793TIP3    H256871   3.846   1.648   0.351  1.6902 -0.4578 -0.2984
11794TIP3   OH256872   0.470   1.427   5.909 -0.1053 -0.1421 -0.6842
11794TIP3    H156873   0.416   1.444   5.986  1.2952  0.3642  0.2315
11794TIP3    H256874   0.520   1.507   5.896  1.2901 -0.9818 -0.7548
11795TIP3   OH256875   1.935   0.537   4.334  0.2154 -0.3239 -0.1516
11795TIP3    H156876   1.987   0.460   4.357  2.3653  1.2269  0.4411
11795TIP3    H256877   1.949   0.548   4.240 -0.0641 -0.6097 -0.2295
11796TIP3   OH256878   5.513   2.164   1.451 -0.2712 -0.3169 -0.2433
11796TIP3    H156879   5.523   2.070   1.467  0.1144 -0.5057 -1.4802
11796TIP3    H256880   5.476   2.198   1.532  1.9274 -1.1122  1.1789
11797TIP3   OH256881   4.586   1.343   4.464 -0.1894  0.4367 -0.0740
11797TIP3    H156882   4.606   1.341   4.558 -0.2552 -0.2053 -0.0689
11797TIP3    H256883   4.601   1.253   4.435 -1.7089  0.2387 -0.3469
11798TIP3   OH256884   6.057   6.658  17.248 -0.1694  0.3583  0.0999
11798TIP3    H156885   6.035   6.600  17.321 -0.9628  1.0233  0.4095
11798TIP3    H256886   6.096   6.600  17.182 -0.9387 -0.5229  0.3974
11799TIP3   OH256887   3.518   3.839  12.615 -0.3113  0.3185 -0.3425
11799TIP3    H156888   3.552   3.762  12.661 -1.3571 -0.8539 -1.4488
11799TIP3    H256889   3.436   3.860  12.659  0.2525  1.1770  0.3201
11800TIP3   OH256890   2.271   1.504  13.833  0.1113  1.0070  0.0895
11800TIP3    H156891   2.281   1.413  13.805  0.6379  1.0733  0.0518
11800TIP3    H256892   2.358   1.529  13.865  0.1941  1.7641 -0.6981
11801TIP3   OH256893   3.449   1.010   2.907  0.8537 -0.5666 -0.4724
11801TIP3    H156894   3.508   1.085   2.902 -0.2846  0.7814  3.2681
11801TIP3    H256895   3.506   0.934   2.910  2.1723  0.3665 -0.9821
11802TIP3   OH256896   5.613   0.344   1.615 -0.3204 -0.3055  0.2381
11802TIP3    H156897   5.614   0.271   1.677 -1.5407  0.3533  1.0865
11802TIP3    H256898   5.694   0.335   1.566 -0.5317 -2.3516  0.1706
11803TIP3   OH256899   3.688   3.727   1.812 -0.0354  0.4451 -0.4190
11803TIP3    H156900   3.687   3.648   1.866 -1.8969  0.3612 -0.4896
11803TIP3    H256901   3.780   3.745   1.796  0.4361 -1.4955 -0.0874
11804TIP3   OH256902   1.498   4.766   3.761 -0.5525  0.0833 -0.2940
11804TIP3    H156903   1.531   4.856   3.762 -1.3579  0.4580  2.6588
11804TIP3    H256904   1.571   4.714   3.728  0.4262  1.6560 -0.7195
11805TIP3   OH256905   1.942   1.501   1.861  0.1586  0.2131  0.8825
11805TIP3    H156906   1.875   1.432   1.856  0.9505 -0.5758  1.0290
11805TIP3    H256907   1.892   1.582   1.854 -1.0173 -0.2817  2.7153
11806TIP3   OH256908   1.424   5.138   6.024  0.7830 -0.0809 -0.4008
11806TIP3    H156909   1.378   5.106   5.947 -1.8033 -0.2584  1.1002
11806TIP3    H256910   1.447   5.058   6.073  1.8080  0.0561 -0.6447
11807TIP3   OH256911   0.257   1.308  15.458  0.5370 -0.2347 -0.0419
11807TIP3    H156912   0.352   1.312  15.448  0.6701  1.8999  1.3224
11807TIP3    H256913   0.231   1.399  15.473 -1.8575 -0.6286 -1.3399
11808TIP3   OH256914   5.272   2.048   0.309 -0.4216 -0.3878  0.3386
11808TIP3    H156915   5.226   2.010   0.385  0.1502 -0.3434  0.7119
11808TIP3    H256916   5.277   2.141   0.328 -1.1499 -0.2289 -0.2234
11809TIP3   OH256917   5.956   2.361  15.868 -0.3557 -0.0551 -0.6241
11809TIP3    H156918   6.047   2.370  15.897 -1.2306 -0.0841  2.4264
11809TIP3    H256919   5.961   2.306  15.790  2.2580  0.3569 -0.8313
11810TIP3   OH256920   1.995   0.537   0.333 -0.1863 -0.0157  0.1066
11810TIP3    H156921   1.992   0.520   0.427  2.8454 -0.2058  0.2594
11810TIP3    H256922   1.918   0.492   0.299 -0.3552 -1.5422  2.2792
11811TIP3   OH256923   0.803   4.355  14.620 -0.1062 -0.0967  0.4779
11811TIP3    H156924   0.722   4.304  14.618 -1.3478  1.7697  1.0015
11811TIP3    H256925   0.860   4.311  14.556 -1.9811 -0.7357 -0.8369
11812TIP3   OH256926   0.591   2.441   1.095  0.4104  0.5700 -0.3416
11812TIP3    H156927   0.654   2.370   1.083  0.5409  0.5681  0.3236
11812TIP3    H256928   0.629   2.515   1.047  1.3649  0.8252  0.7771
11813TIP3   OH256929   0.083   0.921   2.723  0.1152  0.2554  0.2282
11813TIP3    H156930  -0.005   0.942   2.693 -0.3397 -1.0373  0.5899
11813TIP3    H256931   0.085   0.825   2.727  0.4363  0.2832  3.3544
11814TIP3   OH256932   0.440   4.997   5.987 -0.1663 -0.3168  0.4926
11814TIP3    H156933   0.375   4.953   5.933  0.8179 -0.1118 -0.9236
11814TIP3    H256934   0.514   5.011   5.928  0.6688  0.5943  1.7092
11815TIP3   OH256935   4.461   5.888  16.654 -0.0962  0.2649 -0.1166
11815TIP3    H156936   4.520   5.859  16.584  3.2900  1.1935  2.0947
11815TIP3    H256937   4.445   5.810  16.706 -1.5533 -0.1455 -1.1117
11816TIP3   OH256938   0.026   2.135   4.163  0.5934  0.2988 -0.2484
11816TIP3    H156939   0.041   2.230   4.167 -0.9347  0.7250 -2.5316
11816TIP3    H256940   0.026   2.107   4.255 -0.8308  2.8757  0.6551
11817TIP3   OH256941   2.142   0.356   2.077 -0.0094 -0.2116  0.0187
11817TIP3    H156942   2.124   0.335   1.986  1.3121  0.6898 -0.4727
11817TIP3    H256943   2.055   0.369   2.116 -0.6331 -1.5776 -0.8391
11818TIP3   OH256944   3.157   5.317   2.921 -0.7848  0.2711  0.1960
11818TIP3    H156945   3.082   5.299   2.978 -0.8761 -0.8005 -0.2392
11818TIP3    H256946   3.120   5.363   2.846 -0.9864 -0.1145  0.0566
11819TIP3   OH256947   1.455   2.471  14.574 -0.5138 -0.1390 -0.0035
11819TIP3    H156948   1.384   2.413  14.548 -0.3910 -0.1354 -0.3475
11819TIP3    H256949   1.533   2.433  14.533 -0.0873 -0.9057  1.4465
11820TIP3   OH256950   3.810   6.133   4.665 -0.3785 -0.0314 -0.6259
11820TIP3    H156951   3.719   6.155   4.646  0.0672  2.4985 -0.2552
11820TIP3    H256952   3.814   6.129   4.761 -0.0184  0.3599 -0.6204
11821TIP3   OH256953   0.333   5.776  13.759 -0.0461 -0.5602  0.0934
11821TIP3    H156954   0.396   5.734  13.701  0.1734  2.3149 -1.9661
11821TIP3    H256955   0.387   5.834  13.814 -0.6425  0.0819  0.0180
11822TIP3   OH256956   2.582   4.719  15.685  0.4154 -0.2942 -0.0600
11822TIP3    H156957   2.547   4.716  15.595 -0.4476  0.1947  0.2474
11822TIP3    H256958   2.504   4.725  15.740  0.9986  2.2238  0.5852
11823TIP3   OH256959   6.487   5.942   0.102  0.0806  0.7411  0.2723
11823TIP3    H156960   6.521   5.898   0.023 -0.3664 -1.8192  1.4073
11823TIP3    H256961   6.558   5.935   0.165 -0.4432  0.5988  0.8499
11824TIP3   OH256962   1.576   2.583   3.023 -0.2025 -0.0608  0.2773
11824TIP3    H156963   1.622   2.666   3.008 -0.4978 -0.0620 -0.6775
11824TIP3    H256964   1.541   2.559   2.938  0.6679 -1.6484  0.3347
11825TIP3   OH256965   3.637   0.602   9.931 -0.0950  0.5514  0.6280
11825TIP3    H156966   3.646   0.697   9.926 -0.5158  0.5247 -0.9958
11825TIP3    H256967   3.561   0.588   9.988  0.5373  1.1293  1.6613
11826TIP3   OH256968   0.443   3.252  15.684 -0.5940  0.6211 -0.7903
11826TIP3    H156969   0.379   3.240  15.614 -1.1846  0.4987 -0.2381
11826TIP3    H256970   0.410   3.327  15.734 -0.1069  0.7927 -0.7198
11827TIP3   OH256971   0.364   2.999   6.100  0.4844 -0.2366 -0.1991
11827TIP3    H156972   0.315   2.918   6.096  0.8586 -0.5144  0.6520
11827TIP3    H256973   0.301   3.067   6.074  0.3483 -0.8535 -1.5504
11828TIP3   OH256974   0.040   0.354   5.580  0.4252  0.2202 -0.0012
11828TIP3    H156975   0.003   0.393   5.659 -0.6200 -0.3166 -0.2138
11828TIP3    H256976  -0.019   0.380   5.510  1.2299  0.5180 -0.5915
11829TIP3   OH256977   6.114   2.208  13.154  0.1548  0.3522 -0.1259
11829TIP3    H156978   6.050   2.250  13.212  1.3864  1.1735  0.6866
11829TIP3    H256979   6.100   2.114  13.167 -1.0088  0.5091 -0.1212
11830TIP3   OH256980   4.180   3.686  12.310  0.2463  0.2169 -0.3647
11830TIP3    H156981   4.259   3.690  12.363  0.2916 -0.2628 -0.3841
11830TIP3    H256982   4.167   3.592  12.294 -0.0443  0.3240 -0.7799
11831TIP3   OH256983   2.692   0.591   0.413  0.8707  0.1884 -0.3258
11831TIP3    H156984   2.697   0.499   0.386 -0.1081  0.1725 -0.4578
11831TIP3    H256985   2.715   0.641   0.335  2.7388  0.0531  0.0835
11832TIP3   OH256986   6.340   0.917   3.283  0.1277 -0.2478 -0.0438
11832TIP3    H156987   6.420   0.966   3.265  0.6426 -0.9698  0.1976
11832TIP3    H256988   6.338   0.911   3.379 -1.0687  1.1254  0.0469
11833TIP3   OH256989   2.467   2.763  12.335  0.2776  0.1062 -0.1411
11833TIP3    H156990   2.432   2.683  12.295  1.9245  0.9172 -3.6713
11833TIP3    H256991   2.535   2.733  12.394 -1.1590 -1.1447  0.9625
11834TIP3   OH256992   2.103   5.507   0.732  0.2530  0.2718  0.4525
11834TIP3    H156993   2.171   5.451   0.769  1.6515  0.4579 -1.6411
11834TIP3    H256994   2.128   5.595   0.760  0.8912  0.3334 -0.2575
11835TIP3   OH256995   2.683   5.366   4.356 -0.2360 -0.1063 -0.0021
11835TIP3    H156996   2.765   5.320   4.375 -0.1079  0.2353  0.2736
11835TIP3    H256997   2.691   5.391   4.264 -0.2471 -0.5082 -0.1162
11836TIP3   OH256998   1.949   0.444  16.057  0.3308 -0.4558 -0.0924
11836TIP3    H156999   1.881   0.507  16.035  1.2014  0.2105 -0.9697
11836TIP3    H257000   1.970   0.464  16.148 -1.0359 -1.0625  0.3783
11837TIP3   OH257001   4.593   1.967   5.011 -0.0962 -0.2390  0.8265
11837TIP3    H157002   4.626   1.881   5.038 -0.4594 -0.3191  1.0183
11837TIP3    H257003   4.542   1.998   5.085 -0.6402 -0.2197  0.4541
11838TIP3   OH257004   2.024   1.877  12.807 -0.8524 -0.1875  0.4799
11838TIP3    H157005   2.100   1.822  12.787 -0.1781 -0.1229  2.6687
11838TIP3    H257006   2.058   1.966  12.806 -0.8734 -0.1563  1.4579
11839TIP3   OH257007   4.307   4.679   3.327 -0.7567  0.4456  0.0451
11839TIP3    H157008   4.335   4.761   3.369 -2.2258  1.1885 -0.3482
11839TIP3    H257009   4.249   4.638   3.391  0.5119 -0.6567  0.5205
11840TIP3   OH257010   1.692   2.393  17.047  0.0661  0.4598 -0.9959
11840TIP3    H157011   1.768   2.450  17.037 -0.6165  1.4024 -0.9425
11840TIP3    H257012   1.692   2.339  16.968  0.4239  0.8974 -1.3019
11841TIP3   OH257013   5.406   2.136   5.511 -0.3387  0.0196  0.0420
11841TIP3    H157014   5.431   2.110   5.423  1.0148  0.4503  0.2753
11841TIP3    H257015   5.356   2.062   5.545 -0.3405 -0.4012 -0.8626
11842TIP3   OH257016   6.354   5.702  15.923  0.2895  0.0646 -0.0455
11842TIP3    H157017   6.325   5.648  15.849 -0.6582  1.2211 -0.5608
11842TIP3    H257018   6.435   5.743  15.893  0.0746  0.2853 -0.3340
11843TIP3   OH257019   2.758   6.727   1.410  0.3449  0.4740  0.0900
11843TIP3    H157020   2.727   6.731   1.500  0.6028 -0.4784  0.2292
11843TIP3    H257021   2.840   6.677   1.415 -0.1486 -0.4661 -0.7852
11844TIP3   OH257022   3.120   1.028  13.324 -1.0167 -0.3118  0.3976
11844TIP3    H157023   3.175   0.951  13.340 -1.2336 -0.6752 -0.5449
11844TIP3    H257024   3.111   1.069  13.410  1.0601 -0.0052  0.5136
11845TIP3   OH257025   0.418   2.368  11.008  0.1797  0.2040 -0.3546
11845TIP3    H157026   0.431   2.422  11.086  0.4535  0.2754 -0.4455
11845TIP3    H257027   0.472   2.291  11.023  0.4501  0.3441 -0.5908
11846TIP3   OH257028   5.736   1.834   5.065  0.2116 -0.1019  0.4488
11846TIP3    H157029   5.686   1.915   5.056  0.3039 -0.1424 -0.4968
11846TIP3    H257030   5.674   1.765   5.041  0.5855 -0.1861 -0.2989
11847TIP3   OH257031   5.801   5.904   1.910  0.0740 -0.1365 -0.1338
11847TIP3    H157032   5.771   5.994   1.899 -0.2531 -0.2116  0.1335
11847TIP3    H257033   5.889   5.913   1.948 -0.7252  0.0590  1.7604
11848TIP3   OH257034   5.008   1.912  12.377 -0.3065 -0.1655 -0.1237
11848TIP3    H157035   5.080   1.853  12.354 -2.8570 -2.4078 -3.3290
11848TIP3    H257036   5.012   1.982  12.312 -1.3630 -0.6943 -0.7870
11849TIP3   OH257037   6.070   1.792  11.699  0.0442 -0.7057 -0.2098
11849TIP3    H157038   5.988   1.744  11.690 -1.9537  2.4519 -0.6675
11849TIP3    H257039   6.084   1.832  11.614 -0.4753  2.3291  0.9875
11850TIP3   OH257040   3.046   2.176  16.235  0.2859  0.0052  1.2301
11850TIP3    H157041   3.052   2.225  16.154 -1.8726 -0.4612  0.7241
11850TIP3    H257042   3.016   2.240  16.300  1.5790  0.2765  1.5800
11851TIP3   OH257043   3.047   0.829  11.997 -0.6666  0.4782 -0.0813
11851TIP3    H157044   3.095   0.848  12.078  1.8372  0.4110 -1.4630
11851TIP3    H257045   2.979   0.767  12.024  0.7158 -0.3149  1.8189
11852TIP3   OH257046   5.767   2.525  12.483  0.3025  0.0728 -0.4099
11852TIP3    H157047   5.715   2.574  12.547  0.0793 -0.2263 -0.3560
11852TIP3    H257048   5.747   2.433  12.502 -0.8502 -0.0000 -1.7872
11853TIP3   OH257049   0.085   3.647   2.938  0.2368 -0.2357 -0.4278
11853TIP3    H157050   0.169   3.678   2.972  0.8998  0.1823 -2.3247
11853TIP3    H257051   0.023   3.660   3.010  1.6794 -0.0182  0.8079
11854TIP3   OH257052   3.573   3.533  13.963 -0.1383  0.3570  0.3394
11854TIP3    H157053   3.523   3.462  13.921  0.4480 -0.2317  0.6221
11854TIP3    H257054   3.659   3.495  13.981  0.1769  1.1343  0.5334
11855TIP3   OH257055   2.422   0.394   1.604 -0.0114  0.4535 -0.2635
11855TIP3    H157056   2.458   0.461   1.662 -0.1241  0.8501 -0.6446
11855TIP3    H257057   2.484   0.321   1.611 -0.4057  0.2108  0.8940
11856TIP3   OH257058   2.704   4.058  17.033 -0.4233 -0.3741 -0.0477
11856TIP3    H157059   2.751   3.976  17.049  1.4751  0.1885 -2.2129
11856TIP3    H257060   2.754   4.124  17.081 -0.7510 -0.2067  0.0631
11857TIP3   OH257061   5.639   5.369  11.134  0.5907 -0.1161 -0.6189
11857TIP3    H157062   5.561   5.412  11.169  1.0546  0.3301 -0.1198
11857TIP3    H257063   5.607   5.319  11.059 -0.2954 -0.5104  0.0054
11858TIP3   OH257064   6.344   3.108   5.598  0.0331  0.2280 -0.3739
11858TIP3    H157065   6.332   3.013   5.598  0.7752  0.0225  2.7283
11858TIP3    H257066   6.275   3.141   5.655  2.5480  0.9328  2.5033
11859TIP3   OH257067   5.783   2.976   2.548  0.4400  0.1698 -0.0815
11859TIP3    H157068   5.873   2.989   2.581  0.5451 -2.3044  0.8147
11859TIP3    H257069   5.794   2.925   2.468 -0.1767 -0.7434  0.4033
11860TIP3   OH257070   0.761   6.612   1.398 -0.1293  0.0984  0.1225
11860TIP3    H157071   0.792   6.561   1.472  0.1889 -1.2011 -0.8599
11860TIP3    H257072   0.831   6.604   1.333 -0.5962  0.8287 -0.4811
11861TIP3   OH257073   4.100   1.006   3.973  0.8350 -0.0845  0.5601
11861TIP3    H157074   4.053   0.984   4.054  0.5408 -0.5315  0.2735
11861TIP3    H257075   4.031   1.012   3.907  1.0120  0.8271  0.4483
11862TIP3   OH257076   4.480   5.332   2.144 -0.0708 -0.3386 -0.2409
11862TIP3    H157077   4.411   5.266   2.135 -0.0288 -0.2003 -2.0738
11862TIP3    H257078   4.517   5.340   2.056  1.6474  0.2947  0.4831
11863TIP3   OH257079   0.429   6.721   0.641  0.4852  0.1560  0.1370
11863TIP3    H157080   0.401   6.661   0.710 -0.4023 -0.4822 -0.7334
11863TIP3    H257081   0.490   6.670   0.588  0.5207  0.3577 -0.0198
11864TIP3   OH257082   4.506   3.971  15.747 -0.0156 -0.2000  0.0708
11864TIP3    H157083   4.521   4.039  15.682  1.0975  0.0042  0.5212
11864TIP3    H257084   4.592   3.930  15.760 -0.8244 -2.4167 -0.9670
11865TIP3   OH257085   4.264   6.056  10.786  0.2374 -0.5174  0.7273
11865TIP3    H157086   4.329   6.029  10.720 -0.3089 -0.0042 -0.0308
11865TIP3    H257087   4.221   5.974  10.810  1.4575 -0.9407  1.5820
11866TIP3   OH257088   1.569   2.214   4.926 -0.6115  0.2769  0.0201
11866TIP3    H157089   1.495   2.155   4.919  0.1615 -0.5699 -1.4394
11866TIP3    H257090   1.592   2.213   5.019 -1.5734 -0.5043  0.2614
11867TIP3   OH257091   5.094   6.310   3.773 -0.4520  0.1446 -0.2620
11867TIP3    H157092   5.016   6.316   3.828 -0.6146 -1.2482 -0.2964
11867TIP3    H257093   5.073   6.242   3.709 -0.0363  1.3093 -1.6940
11868TIP3   OH257094   4.751   5.651   3.454  0.1501 -0.2782 -0.4977
11868TIP3    H157095   4.808   5.705   3.509  1.1181 -0.1130 -1.6352
11868TIP3    H257096   4.689   5.713   3.416 -0.3227 -0.3491  0.1342
11869TIP3   OH257097   5.763   3.797   6.055 -1.1519 -0.5020 -0.4946
11869TIP3    H157098   5.698   3.806   6.124  0.3753  1.1278  0.8290
11869TIP3    H257099   5.827   3.735   6.090  0.3406  1.3543  0.2045
11870TIP3   OH257100   6.748   2.898  16.966 -0.2113 -0.2322 -0.0855
11870TIP3    H157101   6.746   2.924  16.875  1.6808 -0.6310 -0.2975
11870TIP3    H257102   6.663   2.859  16.983 -2.5192  4.1627 -0.2395
11871TIP3   OH257103   4.058   4.256  15.940 -0.3061 -0.0294  0.7263
11871TIP3    H157104   4.143   4.239  15.898 -0.1760 -0.7276  1.2531
11871TIP3    H257105   4.076   4.327  16.001 -0.4960  0.9959 -0.3659
11872TIP3   OH257106   0.718   5.900  15.138  0.0720 -0.3884 -0.1770
11872TIP3    H157107   0.813   5.889  15.145  0.2590  0.5610 -1.0010
11872TIP3    H257108   0.705   5.995  15.136 -0.8075 -0.5062 -1.1513
11873TIP3   OH257109   5.404   3.487   5.969  0.8756  0.0892  0.1002
11873TIP3    H157110   5.348   3.449   6.037  0.0830  1.3264  0.1741
11873TIP3    H257111   5.487   3.504   6.014  0.5031  0.4862  0.6577
11874TIP3   OH257112   6.669   3.267   4.562 -0.4836 -0.3325 -0.1716
11874TIP3    H157113   6.662   3.312   4.646  0.7606  0.3796 -0.4353
11874TIP3    H257114   6.586   3.221   4.553 -0.5285 -0.6785  1.5982
11875TIP3   OH257115   3.220   4.537   1.716 -0.0916  0.1276 -0.8086
11875TIP3    H157116   3.255   4.460   1.760  2.0455 -0.1494 -2.8100
11875TIP3    H257117   3.268   4.610   1.754 -0.1167  0.1634 -0.8461
11876TIP3   OH257118   2.039   2.187  16.972 -0.1986  0.1061  0.5192
11876TIP3    H157119   2.086   2.121  17.023  2.8012  1.2728 -0.5340
11876TIP3    H257120   2.023   2.145  16.888  2.4543  0.8642 -0.4481
11877TIP3   OH257121   4.698   5.719  12.329 -0.2506  0.0904  0.4123
11877TIP3    H157122   4.656   5.769  12.399  1.8619  0.9057  1.1673
11877TIP3    H257123   4.704   5.781  12.256  0.4713  0.2905  0.6341
11878TIP3   OH257124   2.932   2.478   3.039  0.3757 -0.5414 -0.1817
11878TIP3    H157125   3.009   2.422   3.032  1.4003  0.9150 -0.9546
11878TIP3    H257126   2.897   2.482   2.950  0.0257 -0.3559 -0.0351
11879TIP3   OH257127   5.468   3.109  14.401 -0.2377 -0.2710 -0.1307
11879TIP3    H157128   5.505   3.066  14.478 -1.1997 -1.6771 -0.4017
11879TIP3    H257129   5.453   3.037  14.339  1.4680  0.9328 -2.0555
11880TIP3   OH257130   3.894   2.202  11.967 -0.1736 -1.2767  0.6414
11880TIP3    H157131   3.940   2.272  12.014 -1.8897  0.5219 -0.2199
11880TIP3    H257132   3.959   2.132  11.960  1.1232 -0.4261  2.9290
11881TIP3   OH257133   1.049   1.264  15.088 -0.6342 -0.0057 -0.0176
11881TIP3    H157134   1.002   1.324  15.030 -2.4388 -1.3020  0.0162
11881TIP3    H257135   0.999   1.182  15.083  0.8049 -1.0121  1.1936
11882TIP3   OH257136   2.882   1.423   4.258 -0.0270  0.2698  0.3489
11882TIP3    H157137   2.930   1.444   4.338  1.0056 -0.3026 -0.1031
11882TIP3    H257138   2.796   1.394   4.289  0.8723 -1.4650  1.3822
11883TIP3   OH257139   6.735   3.148   1.013  0.0828 -0.6684  0.2186
11883TIP3    H157140   6.760   3.233   0.978 -0.1527 -1.0773 -1.0156
11883TIP3    H257141   6.675   3.112   0.947 -1.0253 -1.1579  1.4353
11884TIP3   OH257142   0.506   1.229  14.835 -0.2675 -0.2888  0.2750
11884TIP3    H157143   0.440   1.175  14.790 -2.3217  1.4323  1.0730
11884TIP3    H257144   0.543   1.283  14.765 -1.6681  0.6172  0.1878
11885TIP3   OH257145   4.037   4.222  15.549 -0.0525 -0.0898  0.1988
11885TIP3    H157146   4.056   4.314  15.569  1.0114 -0.3670  0.4866
11885TIP3    H257147   4.120   4.177  15.560 -0.6622 -1.1711  0.4729
11886TIP3   OH257148   5.213   0.871  14.523  0.1150 -0.2312 -0.2342
11886TIP3    H157149   5.121   0.852  14.509 -0.0885  0.5702 -0.0478
11886TIP3    H257150   5.234   0.939  14.458  0.5813 -0.4229 -0.2918
11887TIP3   OH257151   3.876   1.830  15.682 -0.1623  0.1954  0.0688
11887TIP3    H157152   3.958   1.865  15.647 -0.6725  1.2307 -0.1484
11887TIP3    H257153   3.825   1.807  15.605  0.0293 -0.7286  0.2076
11888TIP3   OH257154   1.269   6.383  13.877 -0.1130 -0.2428  0.5468
11888TIP3    H157155   1.199   6.447  13.890 -0.5474 -0.8806  1.3927
11888TIP3    H257156   1.251   6.314  13.941 -0.9613 -2.3694 -1.8228
11889TIP3   OH257157   6.600   5.890   4.603  0.0165  0.4427  0.1962
11889TIP3    H157158   6.633   5.811   4.559  2.1164  1.2495  0.1844
11889TIP3    H257159   6.679   5.943   4.618 -1.3570  2.7623 -0.2384
11890TIP3   OH257160   1.786   3.191   1.877  0.1442 -0.2945  0.7919
11890TIP3    H157161   1.802   3.101   1.851 -1.1721 -0.1780 -0.5137
11890TIP3    H257162   1.795   3.241   1.795  1.1938  0.8281  1.5477
11891TIP3   OH257163   0.368   0.391   3.292 -0.0379  0.0083  0.7660
11891TIP3    H157164   0.388   0.343   3.372 -1.7280 -1.7085  0.2245
11891TIP3    H257165   0.408   0.477   3.305  2.2751 -1.1871  2.1812
11892TIP3   OH257166   2.886   6.166   5.837 -0.3074 -0.7831 -0.0905
11892TIP3    H157167   2.839   6.215   5.769  0.7195  0.9576  0.4122
11892TIP3    H257168   2.901   6.080   5.797 -0.3838 -0.0569 -1.7784
11893TIP3   OH257169   5.612   2.505  13.263  0.0894  0.4658  0.2504
11893TIP3    H157170   5.658   2.469  13.188 -0.4702  0.4418 -0.0895
11893TIP3    H257171   5.551   2.436  13.290 -0.8582  1.0683 -0.2928
11894TIP3   OH257172   5.271   6.168  14.888 -0.3989  0.1713 -0.4993
11894TIP3    H157173   5.217   6.231  14.840 -0.5666 -0.8958 -1.7755
11894TIP3    H257174   5.356   6.210  14.894 -0.2682  0.2224 -2.0929
11895TIP3   OH257175   1.280   3.081  12.746  0.0259  0.0396 -1.1887
11895TIP3    H157176   1.310   3.063  12.835  1.3487  0.4958 -1.5191
11895TIP3    H257177   1.244   3.169  12.750  0.8665  0.3943 -1.2761
11896TIP3   OH257178   3.810   4.183  13.185  0.3943  0.6261  0.1630
11896TIP3    H157179   3.762   4.132  13.120 -0.3402 -0.1415  1.2777
11896TIP3    H257180   3.744   4.238  13.227  0.8907  1.2528  0.1392
11897TIP3   OH257181   0.046   2.058  16.149 -0.6639  0.2768  0.0304
11897TIP3    H157182  -0.046   2.036  16.135 -0.8332  0.7195  0.3932
11897TIP3    H257183   0.067   2.023  16.235  0.0690 -1.5075 -0.8318
11898TIP3   OH257184   6.672   2.467   2.284 -0.5288  0.3794 -0.0821
11898TIP3    H157185   6.611   2.528   2.326  0.2726  1.4865 -0.4728
11898TIP3    H257186   6.719   2.521   2.221 -0.5242 -0.8811 -1.2051
11899TIP3   OH257187   2.030   5.676  10.540 -0.2702 -0.0389 -0.1213
11899TIP3    H157188   1.970   5.751  10.537  0.1864  0.3643  0.4823
11899TIP3    H257189   1.978   5.606  10.579  0.2679  0.9519  2.5827
11900TIP3   OH257190   3.386   0.365  15.687  0.2242 -0.0681  0.2159
11900TIP3    H157191   3.376   0.272  15.668  1.8102 -0.1499 -0.3489
11900TIP3    H257192   3.453   0.395  15.625 -0.0443  1.3826  0.5975
11901TIP3   OH257193   6.020   0.335  10.948  0.0065 -0.3659  0.0323
11901TIP3    H157194   6.056   0.355  11.034 -0.1076 -1.1770  0.2782
11901TIP3    H257195   6.081   0.271  10.911 -0.0834 -0.2140 -0.3883
11902TIP3   OH257196   5.284   5.267   2.604 -0.0418  0.4142  0.0631
11902TIP3    H157197   5.264   5.236   2.516  1.6266 -0.2097 -0.1373
11902TIP3    H257198   5.367   5.315   2.595  0.8037 -0.6811  1.4596
11903TIP3   OH257199   4.808   3.234  15.144  0.6093 -0.1534 -0.1578
11903TIP3    H157200   4.882   3.173  15.135  1.1462  0.2997  1.0585
11903TIP3    H257201   4.805   3.279  15.059 -0.4943 -2.5804 -1.5273
11904TIP3   OH257202   6.259   0.492  13.812  0.1404 -0.4205 -0.4350
11904TIP3    H157203   6.344   0.504  13.771  0.6799 -3.7582 -0.5975
11904TIP3    H257204   6.279   0.452  13.897 -1.1841  1.5962  0.9134
11905TIP3   OH257205   1.851   1.479  15.968  0.0432 -0.2263 -0.4162
11905TIP3    H157206   1.769   1.450  16.008 -0.1221 -0.9752 -1.2826
11905TIP3    H257207   1.830   1.496  15.877  0.6901  0.3166 -0.4771
11906TIP3   OH257208   2.073   6.077   0.980 -0.3638 -0.9206  0.1539
11906TIP3    H157209   2.106   6.013   1.043  1.3938 -0.5692 -0.3484
11906TIP3    H257210   1.984   6.049   0.961 -0.6680 -1.5062  2.1621
11907TIP3   OH257211   4.199   4.796  12.992  0.0384  0.0861 -0.0214
11907TIP3    H157212   4.166   4.836  13.073 -0.3414  2.7848 -1.4036
11907TIP3    H257213   4.132   4.732  12.968 -0.3247 -0.0559  1.2750
11908TIP3   OH257214   4.356   1.049  15.630  0.1534  0.0242  0.0817
11908TIP3    H157215   4.368   1.072  15.537  0.3044 -4.0312 -1.0856
11908TIP3    H257216   4.445   1.043  15.665  0.2161 -0.5831 -0.1644
11909TIP3   OH257217   4.357   1.700  13.912  1.2460  0.5453  0.5372
11909TIP3    H157218   4.452   1.691  13.921  1.2912  1.4104  1.0048
11909TIP3    H257219   4.322   1.619  13.951  1.8425 -1.0194 -1.9307
11910TIP3   OH257220   1.128   0.931   3.164  0.0580  0.6304 -0.1681
11910TIP3    H157221   1.174   0.851   3.137 -1.0720  0.5779 -2.1606
11910TIP3    H257222   1.153   0.943   3.255  1.5211 -1.1078 -0.2693
11911TIP3   OH257223   6.764   2.356   3.392 -0.2900 -0.0919 -0.0637
11911TIP3    H157224   6.758   2.274   3.343  0.3625 -0.2463  0.0970
11911TIP3    H257225   6.758   2.330   3.484 -0.7591  0.1158 -0.0345
11912TIP3   OH257226   1.261   2.960  11.619  0.5282  0.4653 -0.3577
11912TIP3    H157227   1.334   2.924  11.670  0.1401 -0.2511 -0.2981
11912TIP3    H257228   1.206   3.001  11.685 -0.6177 -1.5376  0.0200
11913TIP3   OH257229   0.861   6.012  11.860  0.8201  0.5147  0.0717
11913TIP3    H157230   0.765   6.015  11.852  0.7657 -0.8445 -0.0397
11913TIP3    H257231   0.878   6.013  11.954  0.7452  1.3615  0.0904
11914TIP3   OH257232   4.409   6.020   2.050  0.4691  0.0890  0.4451
11914TIP3    H157233   4.421   6.111   2.077  0.0184  0.3836 -0.2938
11914TIP3    H257234   4.489   5.976   2.078  0.3346  0.5182  1.5788
11915TIP3   OH257235   3.226   3.019   2.587 -0.0022 -0.9144  0.2449
11915TIP3    H157236   3.294   2.958   2.615  1.4371 -0.8987 -2.8521
11915TIP3    H257237   3.249   3.101   2.630  1.1036 -1.2903  0.4194
11916TIP3   OH257238   0.054   5.996   5.685  0.4246 -0.6876  0.5999
11916TIP3    H157239  -0.038   6.022   5.677  1.1270  1.8478 -0.3263
11916TIP3    H257240   0.084   6.042   5.764  1.2535 -0.2731  0.0495
11917TIP3   OH257241   4.976   0.382   3.861 -0.1766  0.2082 -0.2661
11917TIP3    H157242   5.032   0.438   3.807  0.2199 -0.3642 -0.4583
11917TIP3    H257243   4.903   0.439   3.887 -1.2320  0.0859 -2.7107
11918TIP3   OH257244   0.293   5.415  13.938  0.2649  0.7016 -0.4847
11918TIP3    H157245   0.233   5.346  13.966 -0.5598  1.3437 -0.6034
11918TIP3    H257246   0.237   5.493  13.933  1.2847  1.5054  0.2311
11919TIP3   OH257247   0.706   3.125  12.508  0.4464 -0.4011  0.0938
11919TIP3    H157248   0.728   3.212  12.542 -0.2995  0.1181 -0.7310
11919TIP3    H257249   0.655   3.084  12.578 -1.6861  0.9254 -0.6063
11920TIP3   OH257250   3.791   2.401  15.442 -0.2487  0.1490  0.4066
11920TIP3    H157251   3.742   2.343  15.383 -0.0605 -0.4503  0.8273
11920TIP3    H257252   3.725   2.461  15.476 -0.4048  0.3410 -0.2090
11921TIP3   OH257253   2.120   2.390   2.103 -0.2351 -1.0703  0.6989
11921TIP3    H157254   2.068   2.334   2.046 -0.7210 -0.7060  0.7764
11921TIP3    H257255   2.092   2.367   2.192 -0.8958 -0.2751  0.7072
11922TIP3   OH257256   3.723   6.381   0.371  0.4607  0.0347  0.4978
11922TIP3    H157257   3.742   6.329   0.293  1.3432  0.6644  0.2851
11922TIP3    H257258   3.673   6.321   0.427 -1.3915  0.0098 -1.0936
11923TIP3   OH257259   5.324   2.833  14.720 -0.0419  0.0594 -0.1306
11923TIP3    H157260   5.377   2.837  14.800  2.8700 -0.2892 -1.8799
11923TIP3    H257261   5.352   2.752  14.678 -1.6700  0.1294 -1.4466
11924TIP3   OH257262   3.710   3.290  14.270 -0.0237  0.0028 -0.0472
11924TIP3    H157263   3.626   3.331  14.288 -0.0317  1.3658 -2.6741
11924TIP3    H257264   3.763   3.307  14.348 -2.3219 -1.5638  2.0064
11925TIP3   OH257265   4.302   6.666  10.918 -0.1340  0.1568  0.0717
11925TIP3    H157266   4.332   6.664  10.827 -0.0622  3.8671 -0.1580
11925TIP3    H257267   4.286   6.759  10.936 -1.6406 -0.5746  3.4064
11926TIP3   OH257268   4.693   6.490   0.499  0.1670 -0.1834  0.4261
11926TIP3    H157269   4.623   6.553   0.481 -0.4186 -0.8195  0.4644
11926TIP3    H257270   4.758   6.540   0.547 -0.6715  0.1864  1.1990
11927TIP3   OH257271   0.131   2.619  12.985 -0.1715  0.2876 -0.4537
11927TIP3    H157272   0.147   2.549  13.048  0.3107  1.6646  1.0346
11927TIP3    H257273   0.068   2.677  13.029 -0.5082  0.8254 -1.6080
11928TIP3   OH257274   6.361   2.839   3.017  0.1053  0.2391  0.2119
11928TIP3    H157275   6.440   2.827   2.965 -0.6666  0.2131 -1.0000
11928TIP3    H257276   6.390   2.832   3.107  1.4614  0.1093 -0.2165
11929TIP3   OH257277   2.695   6.607  16.195  0.6868 -0.4298  0.0347
11929TIP3    H157278   2.613   6.647  16.166 -0.5020 -1.2677  2.0186
11929TIP3    H257279   2.698   6.523  16.149  0.6402 -0.2184 -0.3534
11930TIP3   OH257280   6.603   3.550   1.060  0.1154 -0.3483 -0.5544
11930TIP3    H157281   6.652   3.499   0.996  1.0204  0.9850 -0.9652
11930TIP3    H257282   6.611   3.641   1.030 -0.3552  0.1902  0.8554
11931TIP3   OH257283   4.862   3.781  15.408 -0.2080  0.4994 -0.1038
11931TIP3    H157284   4.830   3.727  15.335  0.5435  0.0811 -0.1278
11931TIP3    H257285   4.893   3.718  15.472 -0.3055  0.8866  0.3297
11932TIP3   OH257286   5.810   3.968  13.449  0.2179  0.1535  0.0165
11932TIP3    H157287   5.821   3.914  13.371  2.0127 -0.7302  0.8266
11932TIP3    H257288   5.899   3.992  13.475 -0.4366  2.1002  0.6733
11933TIP3   OH257289   5.524   5.988  16.078  0.2546  0.2643  0.9333
11933TIP3    H157290   5.454   6.051  16.097 -1.9214 -1.9780  0.8181
11933TIP3    H257291   5.481   5.918  16.029  2.8770 -0.6636 -0.2679
11934TIP3   OH257292   2.553   1.022  14.586 -0.0638 -0.2528  0.7091
11934TIP3    H157293   2.562   1.109  14.626  0.3211  0.6270 -1.1741
11934TIP3    H257294   2.460   1.015  14.564  0.5143  1.9992 -3.7336
11935TIP3   OH257295   3.671   4.684   0.502  0.2458  0.1063  0.2356
11935TIP3    H157296   3.579   4.665   0.517  0.6234 -2.1492  0.0742
11935TIP3    H257297   3.699   4.731   0.580 -0.8395  0.0446  0.6773
11936TIP3   OH257298   4.676   0.534   5.223  0.4130 -0.1149 -0.0137
11936TIP3    H157299   4.744   0.537   5.156 -0.6938 -0.6409 -1.2102
11936TIP3    H257300   4.704   0.464   5.282  0.1131 -1.5067 -1.4415
11937TIP3   OH257301   3.808   3.935  13.436 -0.2510  0.9784 -0.0039
11937TIP3    H157302   3.896   3.914  13.405 -0.0270  0.3403  1.0245
11937TIP3    H257303   3.754   3.931  13.357  0.4754  0.4568 -0.4945
11938TIP3   OH257304   2.837   6.601   1.763  0.4976 -0.0856 -0.6714
11938TIP3    H157305   2.774   6.533   1.736  1.0528 -0.8038 -0.1994
11938TIP3    H257306   2.841   6.592   1.858  1.0460  0.1996 -0.6710
11939TIP3   OH257307   1.472   4.315   4.692 -0.0951 -0.4348  0.0561
11939TIP3    H157308   1.542   4.265   4.736 -0.5330 -0.3207  0.8962
11939TIP3    H257309   1.421   4.248   4.646 -0.0163 -0.6393  0.2601
11940TIP3   OH257310   1.102   1.289  13.020 -0.3878 -0.2253  0.7136
11940TIP3    H157311   1.007   1.293  13.017 -0.3658  1.5625  1.0361
11940TIP3    H257312   1.130   1.322  12.934 -0.0565 -1.2450  0.4239
11941TIP3   OH257313   3.125   2.842  16.213 -0.3450 -0.0355 -0.4228
11941TIP3    H157314   3.208   2.838  16.166 -0.6151 -1.4572 -0.8254
11941TIP3    H257315   3.148   2.875  16.299  0.6271 -0.2919 -0.5697
11942TIP3   OH257316   5.797   4.598   0.806 -0.1483 -0.4974 -0.0611
11942TIP3    H157317   5.870   4.539   0.788 -1.1913 -1.6399 -0.7865
11942TIP3    H257318   5.722   4.556   0.763 -0.9673  1.2985 -0.4794
11943TIP3   OH257319   4.303   5.711   4.575 -0.4731 -0.1392  0.9216
11943TIP3    H157320   4.295   5.737   4.667  1.2267  0.6196  0.9053
11943TIP3    H257321   4.392   5.676   4.568 -1.1902 -1.8722 -0.0737
11944TIP3   OH257322   1.500   0.530  16.363  0.2124  0.1160 -0.2092
11944TIP3    H157323   1.414   0.560  16.332  0.5810 -0.7390 -2.1982
11944TIP3    H257324   1.563   0.578  16.310  0.8991 -0.7469 -0.1959
11945TIP3   OH257325   2.954   0.951   1.679 -0.0920  0.1876 -0.1232
11945TIP3    H157326   2.933   0.861   1.707  2.6391 -0.7792 -0.9238
11945TIP3    H257327   2.968   0.944   1.585 -0.2100  1.5717 -0.2646
11946TIP3   OH257328   2.533   4.630   2.050 -0.0261  0.0070  0.1339
11946TIP3    H157329   2.621   4.595   2.063  0.1971  0.6678  0.4403
11946TIP3    H257330   2.527   4.703   2.112 -1.2680 -0.8530  1.0543
11947TIP3   OH257331   5.500   0.720  11.882 -0.1418 -0.4555 -0.4502
11947TIP3    H157332   5.465   0.787  11.939  1.8661 -0.5131  0.9515
11947TIP3    H257333   5.443   0.644  11.894 -1.4748  0.4620 -0.8351
11948TIP3   OH257334   5.125   0.833  10.992  0.0996  0.2942  0.4202
11948TIP3    H157335   5.169   0.883  10.924 -1.0191  0.4584 -0.2107
11948TIP3    H257336   5.042   0.879  11.007 -0.2574 -0.4769  0.9524
11949TIP3   OH257337   2.376   4.337   2.093  0.1180  0.0093  0.1189
11949TIP3    H157338   2.418   4.252   2.103  0.4324  0.1890  0.3811
11949TIP3    H257339   2.313   4.342   2.164  0.3395  0.1314  0.3082
11950TIP3   OH257340   5.025   4.537   2.998 -0.6943 -0.5276  0.0135
11950TIP3    H157341   5.090   4.467   3.009 -0.7749 -0.7317 -0.7404
11950TIP3    H257342   4.943   4.491   2.982 -0.5513 -0.2698 -1.5879
11951TIP3   OH257343   2.023   2.148  12.551 -0.1076  0.3610  0.0237
11951TIP3    H157344   2.069   2.112  12.627  0.7079  0.1955 -0.5248
11951TIP3    H257345   1.999   2.236  12.578  1.8721  1.0175 -0.1500
11952TIP3   OH257346   3.584   6.737  16.248  0.6885  1.1214  0.2701
11952TIP3    H157347   3.522   6.666  16.267  2.7483 -0.6728  0.6131
11952TIP3    H257348   3.574   6.752  16.154  1.6615 -1.1786 -0.2835
11953TIP3   OH257349   5.547   6.327  17.256 -0.2122  0.1798 -0.1855
11953TIP3    H157350   5.603   6.251  17.240 -1.3079 -0.8037  0.5412
11953TIP3    H257351   5.492   6.301  17.330 -0.5339  1.7224  0.1431
11954TIP3   OH257352   2.043   3.276   6.067  0.0869 -0.0318 -0.0198
11954TIP3    H157353   2.058   3.182   6.077 -1.8534 -0.3360  0.2947
11954TIP3    H257354   2.020   3.306   6.155  1.0108  0.8230 -0.0503
11955TIP3   OH257355   4.986   4.928  12.774 -0.4840  0.3663 -0.6964
11955TIP3    H157356   4.942   5.012  12.779  0.4714  0.8619 -0.4625
11955TIP3    H257357   5.009   4.907  12.864  0.0969  0.2912 -0.8615
11956TIP3   OH257358   2.730   2.602   4.066 -0.2261  0.6023  0.2465
11956TIP3    H157359   2.767   2.596   3.978 -1.7375  1.4396 -0.4835
11956TIP3    H257360   2.655   2.544   4.065  0.8781 -0.9672  1.6679
11957TIP3   OH257361   4.273   1.631   1.188  0.3021  0.3988 -0.1864
11957TIP3    H157362   4.255   1.584   1.106  1.9899  0.0804 -0.4123
11957TIP3    H257363   4.256   1.567   1.257  3.1106 -0.8511 -0.5095
11958TIP3   OH257364   5.641   4.099  15.646 -0.8150 -0.6584  0.4864
11958TIP3    H157365   5.642   4.195  15.650  0.1473 -0.6907  3.1236
11958TIP3    H257366   5.734   4.075  15.636 -0.9669 -1.3211  0.6313
11959TIP3   OH257367   5.971   6.752   1.787 -0.3755 -0.0221 -0.1316
11959TIP3    H157368   5.954   6.718   1.699 -0.5329  1.0796 -0.5428
11959TIP3    H257369   6.066   6.756   1.794 -0.3593 -0.3649 -0.1462
11960TIP3   OH257370   0.146   3.806  14.182 -0.3966  0.1890 -0.2406
11960TIP3    H157371   0.130   3.889  14.136  0.9338 -0.2174 -1.4955
11960TIP3    H257372   0.237   3.784  14.162 -0.8386 -1.7900 -0.2914
11961TIP3   OH257373   2.075   4.945   1.699 -0.4210  0.0719 -0.1213
11961TIP3    H157374   2.017   4.876   1.667  1.0864 -1.3200  0.0323
11961TIP3    H257375   2.051   5.022   1.648 -1.8095 -0.6656 -0.6500
11962TIP3   OH257376   3.548   1.613  11.524  0.3753 -0.3796  0.3816
11962TIP3    H157377   3.567   1.527  11.486  1.1815  0.1180 -0.3954
11962TIP3    H257378   3.615   1.625  11.591 -0.4956 -0.8716  1.3582
11963TIP3   OH257379   4.494   1.966  13.918 -0.0326  0.0476  0.3159
11963TIP3    H157380   4.407   1.930  13.901 -0.1503  0.4968 -0.0538
11963TIP3    H257381   4.543   1.949  13.838  0.7426 -1.6637  1.0838
11964TIP3   OH257382   3.002   3.835  12.924 -0.5160  0.3488 -0.6382
11964TIP3    H157383   2.917   3.801  12.896 -1.8262  1.9874  1.0661
11964TIP3    H257384   2.981   3.919  12.966  1.7818  0.1713  1.0187
11965TIP3   OH257385   1.220   1.066   0.305  0.2705  0.1926 -0.0361
11965TIP3    H157386   1.276   1.058   0.228  1.5855 -0.2678  0.9379
11965TIP3    H257387   1.279   1.053   0.379 -1.1842 -0.6221  1.0297
11966TIP3   OH257388   3.650   4.988  14.795  0.2269  0.5249  0.2299
11966TIP3    H157389   3.634   4.947  14.879  0.9106 -0.8898 -0.2928
11966TIP3    H257390   3.725   5.046  14.810  1.2946 -0.8306  0.2846
11967TIP3   OH257391   4.933   2.454   3.147 -0.1515  0.1295 -0.3100
11967TIP3    H157392   4.858   2.467   3.088 -0.6592  0.0904  0.3144
11967TIP3    H257393   4.898   2.473   3.234 -0.0504 -2.0094  0.2680
11968TIP3   OH257394   5.983   2.938   5.891 -0.1245  0.1538  0.2848
11968TIP3    H157395   6.011   2.847   5.905  2.2375  0.5739 -1.1725
11968TIP3    H257396   5.952   2.966   5.977 -0.3504 -1.8369  0.9163
11969TIP3   OH257397   1.707   5.002   5.056  0.2201 -0.5098  0.2098
11969TIP3    H157398   1.684   4.910   5.066 -1.4324 -0.2634 -0.9308
11969TIP3    H257399   1.801   5.001   5.036 -0.1417 -2.1019 -1.7108
11970TIP3   OH257400   3.090   0.411   5.000  0.4807  0.1106  0.2738
11970TIP3    H157401   3.091   0.397   4.906  0.1614 -0.3286  0.3359
11970TIP3    H257402   3.126   0.331   5.038  2.0788  0.8697  0.4689
11971TIP3   OH257403   3.906   1.550   2.962 -0.8537  0.5983 -0.1385
11971TIP3    H157404   3.817   1.534   2.995 -1.5428 -0.7666 -2.4641
11971TIP3    H257405   3.894   1.605   2.886  0.3608  0.7979 -0.2011
11972TIP3   OH257406   4.472   3.772  12.931  0.1832  0.5827  0.9872
11972TIP3    H157407   4.434   3.854  12.899 -0.2360  0.8165  2.0033
11972TIP3    H257408   4.505   3.728  12.853 -0.5582  1.2244  0.2885
11973TIP3   OH257409   4.640   3.838  14.594  0.3647 -0.0951 -0.1908
11973TIP3    H157410   4.623   3.879  14.509  2.8648  0.2252 -0.6316
11973TIP3    H257411   4.667   3.749  14.572  0.4235 -0.1986  0.3038
11974TIP3   OH257412   1.015   0.620   3.858 -0.0577  0.0616  0.8751
11974TIP3    H157413   0.952   0.684   3.891 -0.8678  0.4178 -1.2131
11974TIP3    H257414   0.966   0.571   3.792  1.2586 -1.1220  0.7467
11975TIP3   OH257415   3.598   3.915  13.607  0.2773 -0.1636 -0.1450
11975TIP3    H157416   3.550   3.848  13.559  0.1367  0.5856 -1.0950
11975TIP3    H257417   3.687   3.909  13.573  0.4035 -0.2710  0.2072
11976TIP3   OH257418   4.971   1.707  16.107  0.1993 -0.1207  0.8133
11976TIP3    H157419   4.959   1.612  16.109  2.0787 -0.3919  1.2198
11976TIP3    H257420   5.002   1.726  16.019 -1.8824  0.4033  0.1382
11977TIP3   OH257421   6.016   3.346   4.700 -0.0728  0.0611 -0.0263
11977TIP3    H157422   6.105   3.336   4.664 -0.0019  0.7922 -0.0675
11977TIP3    H257423   5.982   3.425   4.658 -0.1494  0.6986  1.1993
11978TIP3   OH257424   0.162   1.082  17.095  0.5055  0.0774  0.3850
11978TIP3    H157425   0.212   1.026  17.036 -0.6304 -0.0901 -0.4495
11978TIP3    H257426   0.226   1.111  17.160  1.5761 -0.4999 -0.3731
11979TIP3   OH257427   0.702   0.037  14.095 -0.6376  0.2583 -0.2332
11979TIP3    H157428   0.615  -0.001  14.102  0.0589 -1.5460 -0.6751
11979TIP3    H257429   0.756  -0.033  14.057  1.2030  0.9717  0.8982
11980TIP3   OH257430   5.485   2.187   6.157 -0.1303 -0.0383  0.7696
11980TIP3    H157431   5.546   2.261   6.164 -0.2348  0.4856 -2.4273
11980TIP3    H257432   5.402   2.221   6.188  0.3340  0.4711  1.4782
11981TIP3   OH257433   6.227   2.367   4.143 -0.4777  0.3284 -0.3607
11981TIP3    H157434   6.293   2.298   4.155 -1.0828  0.0968  2.5446
11981TIP3    H257435   6.167   2.332   4.078  0.1801 -1.1461 -0.2174
11982TIP3   OH257436   6.598   6.647  11.577 -0.4528  0.7791  0.0267
11982TIP3    H157437   6.679   6.638  11.527 -0.0072  1.8490  0.5147
11982TIP3    H257438   6.595   6.740  11.599 -1.2502  0.5378  0.9597
11983TIP3   OH257439   6.323   1.421   2.630 -0.5335 -0.2377  0.5531
11983TIP3    H157440   6.305   1.451   2.541 -0.9957 -1.8970  0.0669
11983TIP3    H257441   6.383   1.487   2.666  1.2415 -0.5493 -1.6524
11984TIP3   OH257442   5.932   5.027   5.203  0.6762  0.0460  0.6336
11984TIP3    H157443   5.897   4.962   5.142  2.3675  0.4178 -0.8532
11984TIP3    H257444   5.910   4.994   5.290  0.7121 -2.0639 -0.1066
11985TIP3   OH257445   3.763   1.309  12.686 -0.1995 -0.0007  0.8674
11985TIP3    H157446   3.789   1.231  12.637 -0.2210 -0.8046  2.0836
11985TIP3    H257447   3.669   1.316  12.671 -0.1442 -0.0283  0.5041
11986TIP3   OH257448   5.707   5.910  14.731  0.3958  0.2445  0.2822
11986TIP3    H157449   5.657   5.880  14.808  0.3034  0.4697  0.3115
11986TIP3    H257450   5.786   5.856  14.732 -0.4773 -1.1298 -0.5731
11987TIP3   OH257451   5.728   4.540   5.500  0.1266 -0.4725 -0.0861
11987TIP3    H157452   5.638   4.526   5.471  0.1176  1.0126 -0.8669
11987TIP3    H257453   5.771   4.455   5.488 -1.0790 -1.1092  0.0027
11988TIP3   OH257454   1.503   4.572   4.568  0.6482 -0.1567 -0.3415
11988TIP3    H157455   1.522   4.607   4.655 -0.3230  0.9339 -0.5439
11988TIP3    H257456   1.539   4.483   4.569  3.6098  0.9376  0.0635
11989TIP3   OH257457   2.489   1.000  13.412 -0.4026  0.0345 -0.4086
11989TIP3    H157458   2.448   0.915  13.397 -0.9425  0.0279  0.9532
11989TIP3    H257459   2.468   1.051  13.334 -0.9865 -0.7386 -0.7668
11990TIP3   OH257460   0.518   6.240   4.955  0.5624 -0.1483 -0.4611
11990TIP3    H157461   0.523   6.277   5.043 -0.1032 -0.6887 -0.1926
11990TIP3    H257462   0.458   6.167   4.963  0.2018  0.0283 -1.4493
11991TIP3   OH257463   3.340   1.603  15.715  0.0309 -0.7771  0.3299
11991TIP3    H157464   3.299   1.634  15.634 -0.1451 -1.1365  0.2832
11991TIP3    H257465   3.434   1.611  15.698 -0.0133  0.4146  0.5794
11992TIP3   OH257466   0.364   1.492   4.680  0.3482  0.1786  0.2043
11992TIP3    H157467   0.384   1.543   4.601  0.8108  0.1789  0.3241
11992TIP3    H257468   0.339   1.558   4.745 -2.4487  0.0793 -0.6080
11993TIP3   OH257469   4.066   2.480   4.923  0.4180 -0.2243  0.4848
11993TIP3    H157470   4.091   2.518   5.006  0.1217 -0.4711  0.6899
11993TIP3    H257471   4.143   2.432   4.893  0.8963  0.7871  0.0723
11994TIP3   OH257472   1.885   2.450   5.253  0.0966 -0.2429  0.1511
11994TIP3    H157473   1.883   2.543   5.276 -1.4080 -0.7848  2.6022
11994TIP3    H257474   1.934   2.408   5.323 -0.7587 -1.4835  0.0561
11995TIP3   OH257475   4.018   1.071   0.569 -0.0875 -0.3939  0.1858
11995TIP3    H157476   3.938   1.120   0.548  2.1175  4.1785  1.1241
11995TIP3    H257477   4.050   1.040   0.484 -1.5602 -0.1298 -0.5043
11996TIP3   OH257478   3.342   4.026  15.666 -0.1912  0.0834 -0.0568
11996TIP3    H157479   3.273   3.965  15.694  0.6930 -0.5374  0.8359
11996TIP3    H257480   3.349   4.088  15.738 -0.4855  0.7339 -0.5826
11997TIP3   OH257481   0.244   1.690   5.938  0.2828  0.3268  0.2610
11997TIP3    H157482   0.255   1.656   6.027 -0.8623 -2.3941 -0.5504
11997TIP3    H257483   0.156   1.728   5.938  0.1544  0.0294  0.2002
11998TIP3   OH257484   6.289   5.696  16.446  0.2080 -0.0280  0.1955
11998TIP3    H157485   6.358   5.670  16.386 -0.5455  1.3576 -1.3446
11998TIP3    H257486   6.286   5.626  16.511  1.1977 -1.4762 -1.2572
11999TIP3   OH257487   1.245   4.867  17.020 -0.2993 -0.1861  0.4721
11999TIP3    H157488   1.330   4.898  17.051  0.8280 -2.8216  0.2479
11999TIP3    H257489   1.237   4.903  16.932  1.3492 -1.1858 -0.1177
12000TIP3   OH257490   4.640   5.923  15.236 -0.1957  0.5059 -0.1174
12000TIP3    H157491   4.621   6.003  15.189 -0.4946 -0.2679 -1.3377
12000TIP3    H257492   4.655   5.857  15.168 -2.1607 -1.0157  0.8134
12001TIP3   OH257493   1.504   0.901   2.800  0.0385 -0.6018 -0.0452
12001TIP3    H157494   1.446   0.977   2.807  0.1628 -0.5583  0.5558
12001TIP3    H257495   1.585   0.928   2.843 -0.0850 -1.2343  0.6001
12002TIP3   OH257496   2.075   0.516  14.129 -0.2412  0.0813 -0.1693
12002TIP3    H157497   2.137   0.468  14.185  0.2313  1.2793  0.3610
12002TIP3    H257498   1.990   0.501  14.170 -0.3119 -1.4301 -0.8022
12003TIP3   OH257499   3.252   6.123   4.129  0.1950  0.3021 -0.0031
12003TIP3    H157500   3.248   6.070   4.209 -2.3337 -0.6447 -0.6696
12003TIP3    H257501   3.299   6.202   4.156  0.6272 -0.5710  2.0436
12004TIP3   OH257502   4.060   5.003   4.781 -0.2664  0.0276  0.1723
12004TIP3    H157503   4.100   5.020   4.696 -2.2538 -1.8128 -1.2734
12004TIP3    H257504   4.027   5.088   4.810 -0.6783  0.4917 -1.5490
12005TIP3   OH257505   4.832   3.944  11.385  0.7680 -0.3531 -0.2383
12005TIP3    H157506   4.836   3.891  11.306 -0.9239 -0.4396 -0.3161
12005TIP3    H257507   4.854   3.884  11.456 -0.5468 -1.0569 -0.3900
12006TIP3   OH257508   4.171   4.947   4.295  0.1356 -0.1262  0.0801
12006TIP3    H157509   4.254   4.902   4.279  0.8085  1.2578 -0.4202
12006TIP3    H257510   4.128   4.948   4.209 -0.0288 -0.0982  0.1625
12007TIP3   OH257511   6.800   6.144   4.026 -0.3683  0.1174  0.0988
12007TIP3    H157512   6.866   6.102   3.971 -0.7780 -0.6420  0.1714
12007TIP3    H257513   6.748   6.071   4.060  0.5000  0.4768  2.3400
12008TIP3   OH257514   3.108   2.416  12.326  0.0472  0.1097 -0.5336
12008TIP3    H157515   3.148   2.503  12.317  1.5047 -0.2923  1.3884
12008TIP3    H257516   3.014   2.434  12.338 -0.0798  1.2148 -2.6570
12009TIP3   OH257517   3.424   0.469   1.666 -0.9366  0.4109 -0.3784
12009TIP3    H157518   3.506   0.434   1.700 -0.5757  0.9103 -0.7078
12009TIP3    H257519   3.448   0.507   1.581 -1.6948 -0.2985 -0.9357
12010TIP3   OH257520   0.449   6.349   1.703 -0.2249 -0.2673  0.1264
12010TIP3    H157521   0.482   6.399   1.628 -1.1241 -0.2005 -0.2370
12010TIP3    H257522   0.498   6.382   1.778  0.5771 -0.2285 -0.4103
12011TIP3   OH257523   3.989   4.782   1.836 -0.2559  0.2436 -0.0825
12011TIP3    H157524   3.914   4.840   1.847  0.1605  0.6089  0.8536
12011TIP3    H257525   4.064   4.834   1.861  0.3681 -0.0256 -1.2987
12012TIP3   OH257526   1.095   4.309   6.328  0.6209  0.1674  0.2834
12012TIP3    H157527   1.176   4.358   6.312 -0.1491  0.9326 -1.4755
12012TIP3    H257528   1.031   4.377   6.348  0.0866 -0.3302  0.2559
12013TIP3   OH257529   0.948   5.846   3.855 -0.1568  0.0220  0.6797
12013TIP3    H157530   1.003   5.923   3.863  0.1318  0.2899 -2.4647
12013TIP3    H257531   1.009   5.773   3.847 -0.2241  0.1278 -1.2355
12014TIP3   OH257532   3.839   2.803  14.664 -0.0082  0.6898 -0.2997
12014TIP3    H157533   3.857   2.877  14.606  1.8718 -0.2506 -0.9919
12014TIP3    H257534   3.766   2.757  14.623  1.4381 -0.0903 -2.1300
12015TIP3   OH257535   2.015   0.108   3.211  0.1593  0.2542  0.2067
12015TIP3    H157536   2.088   0.056   3.246 -0.1431 -0.2378  0.1144
12015TIP3    H257537   2.011   0.085   3.119 -1.0054 -0.8083  0.4913
12016TIP3   OH257538   3.763   3.422   1.121  0.3297  0.3621 -0.3505
12016TIP3    H157539   3.729   3.369   1.049 -1.2668 -0.3800  0.8910
12016TIP3    H257540   3.802   3.359   1.181 -1.5517  0.5176  1.1206
12017TIP3   OH257541   3.021   2.139   1.521 -0.4527 -0.4837 -0.2064
12017TIP3    H157542   2.959   2.197   1.476  0.9704  0.3456 -1.1860
12017TIP3    H257543   3.032   2.065   1.460 -1.0323 -1.0075  0.3099
12018TIP3   OH257544   2.404   1.085  13.146  0.2501  0.0381  0.4557
12018TIP3    H157545   2.329   1.027  13.160  0.4055 -0.1255  0.6112
12018TIP3    H257546   2.367   1.163  13.106 -0.0210  0.0110  0.6574
12019TIP3   OH257547   5.277   2.811   0.368 -0.3563 -0.2403 -0.5242
12019TIP3    H157548   5.258   2.903   0.387  1.9149  0.4179 -1.2141
12019TIP3    H257549   5.368   2.810   0.340 -0.2395 -2.7593 -0.2913
12020TIP3   OH257550   2.996   3.628   0.491 -0.0057  0.2535  0.3609
12020TIP3    H157551   3.005   3.617   0.585  0.9406 -1.5318  0.0932
12020TIP3    H257552   3.084   3.615   0.456 -0.0878  2.0865 -0.7061
12021TIP3   OH257553   0.426   0.318   6.224 -0.3128  0.3225 -0.3370
12021TIP3    H157554   0.501   0.362   6.186  0.1551  0.0938  0.2985
12021TIP3    H257555   0.406   0.368   6.304 -1.0325  0.5686 -0.6591
12022TIP3   OH257556   6.687   3.231  12.509  0.2583  0.3668  0.6735
12022TIP3    H157557   6.773   3.189  12.506  0.3156  0.0529  3.5309
12022TIP3    H257558   6.632   3.169  12.555 -0.3094  2.3092  2.7956
12023TIP3   OH257559   1.873   1.673  14.234  0.0363  0.2779  0.2167
12023TIP3    H157560   1.933   1.677  14.159 -0.5692  0.5650 -0.2546
12023TIP3    H257561   1.925   1.705  14.307  1.4428 -2.2243  0.4591
12024TIP3   OH257562   6.664   5.788   1.697  0.5731  0.7813  0.2716
12024TIP3    H157563   6.598   5.789   1.627  0.5911  0.6893  0.2526
12024TIP3    H257564   6.705   5.874   1.693  0.8405  0.6396 -0.0860
12025TIP3   OH257565   4.859   2.465  15.800 -0.2301 -0.0636  0.4059
12025TIP3    H157566   4.913   2.474  15.878  1.3433  0.0993 -0.6638
12025TIP3    H257567   4.796   2.537  15.806  0.3995  0.4407  1.1112
12026TIP3   OH257568   5.676   1.991   5.888  0.1039 -0.0582 -0.5704
12026TIP3    H157569   5.623   1.938   5.947 -0.3941  0.1820 -0.7993
12026TIP3    H257570   5.639   2.079   5.895  0.0203 -0.0366 -1.2599
12027TIP3   OH257571   1.104   0.357  12.801  0.1568  0.4143 -0.2242
12027TIP3    H157572   1.085   0.296  12.730  0.2550  0.3587 -0.2014
12027TIP3    H257573   1.148   0.305  12.868 -0.2660  0.3813  0.0366
12028TIP3   OH257574   2.140   0.983  10.998 -0.1952  0.3615 -0.1253
12028TIP3    H157575   2.092   1.039  10.937  2.7827  0.8936 -2.1945
12028TIP3    H257576   2.176   0.913  10.944  0.4632 -0.6143  1.4986
12029TIP3   OH257577   3.355   5.404  12.178  0.4221 -0.5000 -0.3902
12029TIP3    H157578   3.270   5.365  12.157 -0.2227  0.0270  1.0995
12029TIP3    H257579   3.344   5.497  12.155  0.1601 -0.1915  0.8922
12030TIP3   OH257580   2.362   4.946  13.368  0.0766  0.2028 -0.4524
12030TIP3    H157581   2.384   4.853  13.363 -1.7794 -0.4085  1.3569
12030TIP3    H257582   2.326   4.967  13.282  0.0887 -0.8769 -0.7358
12031TIP3   OH257583   3.223   6.133  13.523  0.1880 -0.6532  0.5654
12031TIP3    H157584   3.298   6.174  13.564  0.1791 -0.7195  0.6491
12031TIP3    H257585   3.150   6.151  13.582  0.1570 -0.6724  0.5338
12032TIP3   OH257586   6.242   0.778  13.289 -0.1218  0.4078  0.2526
12032TIP3    H157587   6.186   0.717  13.335 -1.4523  0.0602 -1.7128
12032TIP3    H257588   6.285   0.829  13.358 -0.8095 -1.1165  1.8567
12033TIP3   OH257589   3.790   2.225   5.619  0.5379  0.0454  0.3844
12033TIP3    H157590   3.863   2.188   5.570  0.4775 -1.1921  1.1662
12033TIP3    H257591   3.750   2.288   5.560  0.5271 -1.3140 -1.1264
12034TIP3   OH257592   2.547   5.975   2.781  0.1710 -0.1432 -0.2092
12034TIP3    H157593   2.452   5.974   2.794  0.1597  0.4167 -0.2205
12034TIP3    H257594   2.568   6.067   2.766  0.7068 -0.2751 -0.2823
12035TIP3   OH257595   5.229   3.226   3.474 -0.0017 -0.2808  0.0663
12035TIP3    H157596   5.161   3.290   3.496  0.2423  0.0948 -0.2516
12035TIP3    H257597   5.298   3.278   3.433  0.0292 -0.8069 -0.5608
12036TIP3   OH257598   1.743   3.361  12.005  0.2594 -0.3143  0.8284
12036TIP3    H157599   1.714   3.440  12.052  1.0941 -0.0525  0.9118
12036TIP3    H257600   1.662   3.311  11.991 -0.2202  0.3536  1.1470
12037TIP3   OH257601   4.403   6.179   3.377  0.9160 -0.2621  0.4299
12037TIP3    H157602   4.417   6.175   3.471 -1.6617 -2.0740  0.8316
12037TIP3    H257603   4.396   6.273   3.357 -1.1272  0.1139  2.5347
12038TIP3   OH257604   2.575   1.232  13.807 -0.7186  0.7026  0.1883
12038TIP3    H157605   2.585   1.150  13.855 -1.0513 -0.3113 -1.4056
12038TIP3    H257606   2.658   1.279  13.822  1.2077 -1.6860 -2.0550
12039TIP3   OH257607   4.834   0.188   0.415  0.0082 -0.1266  0.1328
12039TIP3    H157608   4.902   0.122   0.403  0.1199  0.1486 -0.8320
12039TIP3    H257609   4.765   0.163   0.353 -1.4551 -1.2290  2.0872
12040TIP3   OH257610   0.663   3.852   5.962 -0.0069  1.0463 -0.2786
12040TIP3    H157611   0.719   3.796   5.909 -0.8596  0.4883 -0.6134
12040TIP3    H257612   0.665   3.812   6.049 -0.2927  0.7168 -0.4193
12041TIP3   OH257613   0.833   4.711  14.047  0.3239 -0.1864  0.3300
12041TIP3    H157614   0.800   4.797  14.020  0.4682  0.6506  2.6415
12041TIP3    H257615   0.774   4.683  14.117 -0.4909 -2.6266 -1.1868
12042TIP3   OH257616   2.082   6.209   0.753 -0.0418  0.0688  0.1874
12042TIP3    H157617   1.993   6.204   0.718  1.0343  0.3365 -2.9239
12042TIP3    H257618   2.080   6.156   0.832 -2.8551 -0.2186  0.0197
12043TIP3   OH257619   3.371   0.392  11.349 -0.1228  0.7120 -0.1566
12043TIP3    H157620   3.443   0.373  11.289 -0.3226  0.8329 -0.4376
12043TIP3    H257621   3.404   0.464  11.403  0.3610  0.0718  0.4258
12044TIP3   OH257622   2.148   3.532  15.489  0.2579 -0.3780 -0.2381
12044TIP3    H157623   2.119   3.454  15.442 -1.4485 -0.4600  0.8707
12044TIP3    H257624   2.124   3.515  15.580  0.6413  1.0812  0.1583
12045TIP3   OH257625   5.745   2.216   3.039  0.7249  0.3525 -0.0905
12045TIP3    H157626   5.821   2.180   2.994  0.9413 -0.6072  0.9884
12045TIP3    H257627   5.724   2.296   2.991  1.1000 -0.4804 -1.6866
12046TIP3   OH257628   0.912   1.967   3.668 -0.4452 -0.4739  0.0491
12046TIP3    H157629   0.932   2.035   3.604 -0.7397 -1.1467 -0.7871
12046TIP3    H257630   0.889   1.890   3.615 -1.5121 -0.8113  0.9514
12047TIP3   OH257631   1.309   5.140  15.000  0.1619 -0.0741 -0.1660
12047TIP3    H157632   1.249   5.067  15.016 -0.7474  0.5634 -0.6074
12047TIP3    H257633   1.253   5.212  14.970  1.1386  0.5455 -0.5654
12048TIP3   OH257634   3.113   0.426   6.249 -0.3913 -0.0719 -0.4024
12048TIP3    H157635   3.044   0.363   6.269 -1.8073  1.5698  0.1359
12048TIP3    H257636   3.101   0.496   6.314  0.8205  0.9792 -1.2612
12049TIP3   OH257637   2.746   2.726  14.206 -0.1781 -0.1989 -0.0808
12049TIP3    H157638   2.684   2.788  14.243 -0.3805 -0.0226 -0.7123
12049TIP3    H257639   2.752   2.750  14.114  1.5055  0.3722  0.1402
12050TIP3   OH257640   1.813   6.250   5.807 -0.0891  0.3261  0.2165
12050TIP3    H157641   1.907   6.258   5.819  0.1673 -1.6011 -0.2335
12050TIP3    H257642   1.788   6.329   5.757  0.9362  1.7689  1.8769
12051TIP3   OH257643   0.215   5.143   0.295  0.3310 -0.1631 -0.1364
12051TIP3    H157644   0.222   5.050   0.318 -0.8226 -0.2852 -0.1951
12051TIP3    H257645   0.213   5.188   0.379 -1.0074 -0.3693 -0.0325
12052TIP3   OH257646   5.096   2.872   3.891  0.5605 -0.8493  0.2438
12052TIP3    H157647   5.160   2.939   3.916  0.2924 -0.3129 -0.4694
12052TIP3    H257648   5.149   2.797   3.866  0.8525 -1.4583  2.4279
12053TIP3   OH257649   4.766   5.603  14.867 -0.2633 -0.6097 -0.6205
12053TIP3    H157650   4.855   5.590  14.900 -0.0437 -0.8247 -1.2815
12053TIP3    H257651   4.713   5.541  14.918  0.0757 -0.9546 -0.6792
12054TIP3   OH257652   3.508   2.221   1.869 -0.2532 -0.1517 -0.3033
12054TIP3    H157653   3.574   2.237   1.803  2.0952 -0.0434  1.9082
12054TIP3    H257654   3.450   2.297   1.865 -0.2928 -0.2398 -2.2743
12055TIP3   OH257655   1.408   3.056  13.801  0.2160  0.0149 -0.0529
12055TIP3    H157656   1.403   2.993  13.873 -0.6774  0.3733  0.2106
12055TIP3    H257657   1.483   3.027  13.749  1.5607  0.3622  1.6124
12056TIP3   OH257658   2.419   4.164   0.875  0.2462  0.1317  0.0475
12056TIP3    H157659   2.354   4.163   0.805  0.6425  1.7525 -0.3840
12056TIP3    H257660   2.404   4.247   0.921  1.4043  0.1160  0.4940
12057TIP3   OH257661   0.620   1.416   4.408  0.4805 -0.1632 -0.0264
12057TIP3    H157662   0.562   1.490   4.428 -0.9530 -1.1370 -0.3956
12057TIP3    H257663   0.625   1.366   4.490  2.5261  0.9911  0.6206
12058TIP3   OH257664   1.858   5.241  16.362  0.3770  0.0180 -0.5926
12058TIP3    H157665   1.906   5.259  16.443  1.1240 -0.9713 -0.7862
12058TIP3    H257666   1.922   5.195  16.307 -0.6427 -0.8519 -1.0747
12059TIP3   OH257667   4.609   4.925  12.425  0.1063  0.0796 -0.5959
12059TIP3    H157668   4.659   4.844  12.430  0.3681  0.3330  1.5233
12059TIP3    H257669   4.665   4.984  12.373  1.3722 -0.1185  0.4920
12060TIP3   OH257670   6.111   3.312   4.314  0.4628 -0.4629  0.1960
12060TIP3    H157671   6.200   3.329   4.347  0.6660  2.3571 -1.4988
12060TIP3    H257672   6.118   3.325   4.219 -1.8162  0.1787  0.0641
12061TIP3   OH257673   6.603   6.378   1.832 -0.3782 -0.4355  0.3414
12061TIP3    H157674   6.519   6.424   1.825 -0.1010  0.1439  0.7157
12061TIP3    H257675   6.591   6.298   1.781  0.1893  1.5725 -3.2892
12062TIP3   OH257676   3.862   6.620  12.943  0.5669  0.0194  0.4875
12062TIP3    H157677   3.854   6.604  13.037  1.0247 -2.0193  0.2351
12062TIP3    H257678   3.956   6.623  12.927  0.5520 -1.7656 -0.1612
12063TIP3   OH257679   6.382   1.180   5.600 -0.1251  0.4228  0.3454
12063TIP3    H157680   6.408   1.245   5.666 -2.4159  0.6178  1.1694
12063TIP3    H257681   6.391   1.225   5.517 -1.5043  1.8047  0.8921
12064TIP3   OH257682   4.939   6.302   0.407  0.3575 -0.3146 -0.0577
12064TIP3    H157683   4.870   6.367   0.416  0.2152 -0.6042  1.1417
12064TIP3    H257684   4.902   6.237   0.347  0.5554  0.7574 -1.3617
12065TIP3   OH257685   4.586   4.919  10.652 -0.0011  0.1526 -0.1416
12065TIP3    H157686   4.585   4.861  10.728  2.9414  1.3553  0.9540
12065TIP3    H257687   4.663   4.891  10.602 -1.0532  0.3302 -1.9358
12066TIP3   OH257688   1.206   1.713  17.219 -0.0817  0.2444  0.3987
12066TIP3    H157689   1.147   1.638  17.226  0.1477 -0.0565 -0.6445
12066TIP3    H257690   1.178   1.772  17.288 -0.9759 -0.3231  0.5440
12067TIP3   OH257691   2.295   5.452   1.787  0.4015  0.4557  0.4348
12067TIP3    H157692   2.260   5.526   1.837  1.1602  0.8369  0.4310
12067TIP3    H257693   2.363   5.416   1.843  0.6375  0.3152  0.0631
12068TIP3   OH257694   2.680   5.211  14.380  0.7434 -0.2334 -0.1991
12068TIP3    H157695   2.694   5.256  14.463 -0.1349  0.5995 -0.4885
12068TIP3    H257696   2.602   5.252  14.342  0.2324 -1.6200 -0.7429
12069TIP3   OH257697   1.028   6.584   2.795  0.2504 -0.0993  0.4066
12069TIP3    H157698   1.021   6.668   2.841 -0.0822  0.1931 -0.1609
12069TIP3    H257699   0.941   6.546   2.801  0.0278  0.2250 -0.4875
12070TIP3   OH257700   2.142   4.661  14.780 -0.0386 -0.1957 -1.0204
12070TIP3    H157701   2.167   4.569  14.781  0.2198 -0.1265 -0.8342
12070TIP3    H257702   2.221   4.707  14.752  0.2735  0.0855  0.2486
12071TIP3   OH257703   4.051   0.912  16.752  0.0658 -0.0790 -0.0652
12071TIP3    H157704   4.079   0.825  16.723  2.0913  0.3473  0.4596
12071TIP3    H257705   3.989   0.895  16.822 -1.8573 -1.0862 -1.9084
12072TIP3   OH257706   1.695   0.218   4.511  0.5877 -0.3081  0.2167
12072TIP3    H157707   1.731   0.267   4.585  1.5626 -1.2093  0.3610
12072TIP3    H257708   1.624   0.167   4.550  0.4005  0.0194  0.3130
12073TIP3   OH257709   2.906   1.013   6.348  0.7229 -0.0551  0.3035
12073TIP3    H157710   2.999   0.989   6.348  0.3655 -1.5266  0.0225
12073TIP3    H257711   2.872   0.976   6.266 -0.1724  0.2040  0.5543
12074TIP3   OH257712   1.465   5.199  15.428 -0.0382  0.3207  0.6899
12074TIP3    H157713   1.457   5.104  15.429 -1.5288  0.3615 -1.0375
12074TIP3    H257714   1.374   5.230  15.427  0.1265  1.5223 -4.0184
12075TIP3   OH257715   1.357   6.174  11.632  0.3042  0.6838 -0.4670
12075TIP3    H157716   1.357   6.104  11.697  2.1646  0.7184 -0.3731
12075TIP3    H257717   1.343   6.129  11.549 -0.7357  0.4800 -0.1892
12076TIP3   OH257718   0.558   0.932   0.249  0.1042  0.1306  0.0391
12076TIP3    H157719   0.518   0.845   0.250  0.8668 -0.2278  0.0121
12076TIP3    H257720   0.485   0.992   0.232 -0.2443 -0.5997 -1.1719
12077TIP3   OH257721   2.620   2.276   3.007 -0.1926 -0.4721  0.1112
12077TIP3    H157722   2.639   2.199   2.954  2.0980 -0.3045  0.5954
12077TIP3    H257723   2.640   2.248   3.097 -0.3120  0.3995  0.4161
12078TIP3   OH257724   3.497   1.958   2.734  0.0244 -0.2775 -0.2696
12078TIP3    H157725   3.591   1.972   2.749 -0.3739  1.2957  0.9482
12078TIP3    H257726   3.459   1.951   2.822 -0.8515 -2.2636 -0.7500
12079TIP3   OH257727   3.828   1.478   0.874 -0.2806  0.0747 -0.2470
12079TIP3    H157728   3.899   1.435   0.826 -1.5197 -1.0243 -1.1848
12079TIP3    H257729   3.765   1.502   0.807 -0.5909  1.5105  0.5132
12080TIP3   OH257730   0.884   2.663   1.840 -0.1169 -0.1707  0.1340
12080TIP3    H157731   0.965   2.712   1.828 -0.7909  1.0049  0.1842
12080TIP3    H257732   0.854   2.686   1.928 -1.4307  0.8988 -0.5519
12081TIP3   OH257733   3.447   0.882  15.097 -0.3915 -0.2735  0.2031
12081TIP3    H157734   3.536   0.864  15.128 -0.1469  0.6067  0.0258
12081TIP3    H257735   3.397   0.899  15.178 -0.1672  0.2228  0.2403
12082TIP3   OH257736   2.861   0.235   5.228  0.5258  0.0130  0.4251
12082TIP3    H157737   2.824   0.290   5.297  0.5711 -0.0009  0.4604
12082TIP3    H257738   2.786   0.186   5.193  0.2195  1.1318 -0.5634
12083TIP3   OH257739   2.393   2.085   1.168 -0.2737  0.3460 -0.4772
12083TIP3    H157740   2.466   2.024   1.153 -0.3537 -0.6043  2.3989
12083TIP3    H257741   2.323   2.053   1.110  0.6463 -0.4581 -1.2004
12084TIP3   OH257742   2.894   4.445  14.958  0.4679  0.2049 -0.2550
12084TIP3    H157743   2.967   4.502  14.983  0.3828 -0.1008  0.7623
12084TIP3    H257744   2.821   4.476  15.013  0.6595 -1.4525  1.0120
12085TIP3   OH257745   1.025   2.908   3.368  0.2763  0.5297 -0.4726
12085TIP3    H157746   1.079   2.979   3.335 -0.7717  0.1602 -3.2864
12085TIP3    H257747   1.030   2.840   3.300 -3.2048  0.2620 -0.6507
12086TIP3   OH257748   0.196   0.830   2.000 -0.0938  0.3819 -0.2231
12086TIP3    H157749   0.123   0.891   2.011  0.3085  1.0749 -1.2282
12086TIP3    H257750   0.174   0.756   2.055 -0.2891  1.7191  1.5843
12087TIP3   OH257751   3.949   1.166   2.191  0.1417 -1.0148  0.1491
12087TIP3    H157752   4.033   1.197   2.225  0.0893 -1.0126  0.2788
12087TIP3    H257753   3.914   1.241   2.142  0.5681 -1.2711 -0.5609
12088TIP3   OH257754   5.933   4.143  16.606 -0.0898  0.6511 -0.3713
12088TIP3    H157755   5.877   4.128  16.530 -1.9859  0.2127  1.0204
12088TIP3    H257756   5.994   4.069  16.606 -1.3696 -0.4568 -0.4091
12089TIP3   OH257757   4.582   2.139   3.158 -0.1815  0.5099  0.0782
12089TIP3    H157758   4.668   2.114   3.124  0.6581  0.7844  1.8509
12089TIP3    H257759   4.602   2.177   3.244 -2.1000  0.4486  0.5773
12090TIP3   OH257760   3.174   1.942  14.363 -0.3173 -0.1629  0.5259
12090TIP3    H157761   3.110   2.000  14.323  1.2236  0.5276 -1.0598
12090TIP3    H257762   3.131   1.856  14.365 -1.2503  0.2613 -0.5837
12091TIP3   OH257763   3.129   3.117  15.083  0.3033 -0.1056  0.4964
12091TIP3    H157764   3.087   3.136  14.999  1.3529 -1.0756 -0.2757
12091TIP3    H257765   3.202   3.059  15.061 -0.4184 -1.7776  2.2645
12092TIP3   OH257766   5.347   2.431  14.130  0.1931  0.5059  0.4275
12092TIP3    H157767   5.348   2.469  14.042  2.7668  0.4918  0.3557
12092TIP3    H257768   5.365   2.506  14.188  0.9847  0.1413  0.6766
12093TIP3   OH257769   6.193   4.283   2.466  0.3598  0.5057 -0.0176
12093TIP3    H157770   6.260   4.215   2.454  0.7728  0.8943  0.0707
12093TIP3    H257771   6.110   4.236   2.456  0.5384 -0.6222  2.7311
12094TIP3   OH257772   1.803   0.381  14.258 -0.0027 -0.2909  0.3232
12094TIP3    H157773   1.795   0.429  14.341 -1.5316 -0.9071  0.5746
12094TIP3    H257774   1.734   0.418  14.203  0.7783 -0.1338 -0.5720
12095TIP3   OH257775   4.174   6.687   4.384  0.5589 -0.3694  0.3318
12095TIP3    H157776   4.130   6.696   4.468  1.0445  1.5636  0.4406
12095TIP3    H257777   4.233   6.762   4.380  1.1019 -0.8402 -1.4086
12096TIP3   OH257778   3.407   5.701   5.221  0.1455 -0.0869 -0.3480
12096TIP3    H157779   3.460   5.735   5.293 -0.0843 -0.2676 -0.0921
12096TIP3    H257780   3.399   5.608   5.239  1.6873 -0.5146 -1.6254
12097TIP3   OH257781   0.613   0.696  11.930 -0.3308 -0.2342 -0.1799
12097TIP3    H157782   0.561   0.763  11.974  0.4889  0.3411 -0.0644
12097TIP3    H257783   0.660   0.743  11.861  1.5722 -0.3152  0.9852
12098TIP3   OH257784   6.540   4.917  15.266  0.3892 -0.7517  0.0415
12098TIP3    H157785   6.586   4.885  15.344  0.2621 -4.2951 -1.1643
12098TIP3    H257786   6.609   4.938  15.203  0.4225 -0.2923  0.2217
12099TIP3   OH257787   1.624   6.049  16.258 -0.4917 -0.1668  0.0293
12099TIP3    H157788   1.700   5.996  16.234  1.3536  1.3777  2.1006
12099TIP3    H257789   1.596   6.088  16.175 -0.3818 -2.3374 -1.1232
12100TIP3   OH257790   3.899   5.839   5.809  0.1085  0.0951  0.3041
12100TIP3    H157791   3.955   5.852   5.886 -0.0037 -1.4065  0.6642
12100TIP3    H257792   3.817   5.885   5.831 -0.9960 -2.5756  2.3470
12101TIP3   OH257793   4.174   3.451  15.646  0.1229 -0.4507 -0.5022
12101TIP3    H157794   4.253   3.425  15.598 -0.8664  0.0919 -2.5686
12101TIP3    H257795   4.168   3.545  15.633 -0.0315 -0.2282  1.0135
12102TIP3   OH257796   5.509   4.618  16.179 -0.0487 -0.3125  0.0286
12102TIP3    H157797   5.474   4.533  16.150 -0.0741 -0.3786  0.2487
12102TIP3    H257798   5.578   4.595  16.241  1.4150 -0.2195 -1.4981
12103TIP3   OH257799   0.520   1.598   6.341  0.0973  0.1600 -0.1743
12103TIP3    H157800   0.507   1.692   6.356  0.8973  0.3320 -0.5033
12103TIP3    H257801   0.476   1.556   6.415 -0.3097  0.7926 -0.0493
12104TIP3   OH257802   3.755   4.572   6.215 -0.6484  0.4792 -0.1465
12104TIP3    H157803   3.696   4.625   6.269 -1.9489  1.2147 -2.1969
12104TIP3    H257804   3.747   4.609   6.127 -0.3485 -2.0974 -1.3417
12105TIP3   OH257805   1.559   6.329  16.690 -0.2165  0.2227  0.0500
12105TIP3    H157806   1.520   6.293  16.609  0.9406  0.5699 -0.6806
12105TIP3    H257807   1.587   6.417  16.666  0.8515  0.0463  0.5998
12106TIP3   OH257808   4.992   3.153  13.919 -0.0310  0.0247  0.1522
12106TIP3    H157809   4.988   3.059  13.903  0.6112  0.0771 -0.3622
12106TIP3    H257810   5.024   3.190  13.837 -0.6484  0.7336  0.2214
12107TIP3   OH257811   0.906   6.254  14.668  0.0473 -0.5664 -0.1761
12107TIP3    H157812   0.890   6.196  14.742  0.4071 -1.0705 -0.4882
12107TIP3    H257813   0.962   6.323  14.703  1.7496 -1.7886 -0.3953
12108TIP3   OH257814   4.519   0.640  15.767  0.2273  0.0097  0.0724
12108TIP3    H157815   4.585   0.611  15.830 -0.5994 -0.9122  0.5502
12108TIP3    H257816   4.487   0.560  15.726  0.1603  0.5315 -0.9297
12109TIP3   OH257817   1.325   6.318   0.298 -0.1414 -0.2311  0.5875
12109TIP3    H157818   1.256   6.337   0.235 -0.4975 -3.5321 -0.2364
12109TIP3    H257819   1.287   6.341   0.383 -1.9836 -1.1948  0.0790
12110TIP3   OH257820   4.009   3.930  12.330 -1.3662  0.7140  0.1102
12110TIP3    H157821   4.030   3.958  12.241 -0.7703 -0.0669 -0.0056
12110TIP3    H257822   4.024   3.835  12.329 -1.2068  0.7222  1.0836
12111TIP3   OH257823   2.097   1.913   5.683 -0.5327  0.2482 -0.2672
12111TIP3    H157824   2.133   1.910   5.594 -1.4954  0.4605 -0.6774
12111TIP3    H257825   2.043   1.835   5.689  0.9946 -0.7797  0.8065
12112TIP3   OH257826   1.091   0.076  14.981 -0.3805  0.6737  0.2721
12112TIP3    H157827   1.100   0.026  15.062 -0.6090 -0.3825 -0.3238
12112TIP3    H257828   1.165   0.135  14.980  0.4623 -0.3453  0.5514
12113TIP3   OH257829   0.981   5.825  12.749 -0.3083 -0.3397  0.4411
12113TIP3    H157830   1.012   5.916  12.750 -1.5924  0.1836 -1.5608
12113TIP3    H257831   0.886   5.832  12.737 -0.3110 -1.9500 -0.8109
12114TIP3   OH257832   0.986   2.249  14.182 -0.3548  0.0656  0.0390
12114TIP3    H157833   1.042   2.203  14.245 -0.9993  0.7389  1.1409
12114TIP3    H257834   0.915   2.286  14.235 -0.3716  1.5149 -0.9258
12115TIP3   OH257835   3.730   1.615   1.782  0.1969  0.2578 -0.8590
12115TIP3    H157836   3.774   1.534   1.757  0.7328  0.0979  0.5426
12115TIP3    H257837   3.648   1.586   1.822 -0.1158  0.4628 -1.3401
12116TIP3   OH257838   2.455   5.656  16.898  0.3874 -0.8363 -0.0075
12116TIP3    H157839   2.442   5.579  16.953 -0.3835 -0.2452  0.6635
12116TIP3    H257840   2.459   5.622  16.809 -2.8158 -1.4608 -0.0478
12117TIP3   OH257841   0.064   5.657  14.471 -0.2427  0.1575  0.2267
12117TIP3    H157842   0.069   5.582  14.531 -1.1964  1.3830  1.8951
12117TIP3    H257843   0.081   5.619  14.385  0.0859 -1.8433  1.1157
12118TIP3   OH257844   2.165   4.088  12.152  0.5812 -0.2252 -0.4276
12118TIP3    H157845   2.198   3.999  12.162 -0.1873 -0.3361  1.9431
12118TIP3    H257846   2.243   4.142  12.142  1.0456 -1.1497 -2.1001
12119TIP3   OH257847   1.533   0.661   1.893  0.1276 -0.4181 -0.2312
12119TIP3    H157848   1.439   0.647   1.907  0.1903 -1.1080 -0.4658
12119TIP3    H257849   1.575   0.611   1.963  0.3178  0.1448  0.0626
12120TIP3   OH257850   2.798   0.499   1.613 -0.2545  0.0272 -0.2206
12120TIP3    H157851   2.850   0.419   1.623  2.8365  1.4450 -2.9905
12120TIP3    H257852   2.760   0.491   1.525 -1.2538  0.9134  0.1191
12121TIP3   OH257853   4.587   0.928   3.630  0.4838 -0.3848  0.0837
12121TIP3    H157854   4.502   0.943   3.671  0.3906 -0.6221 -0.0211
12121TIP3    H257855   4.649   0.925   3.703  0.0372 -3.0528  0.4613
12122TIP3   OH257856   5.351   0.139  10.325  0.5528  0.1581 -0.0726
12122TIP3    H157857   5.401   0.213  10.360 -1.3423  0.6615  1.7640
12122TIP3    H257858   5.394   0.061  10.361  1.1490  0.4838 -0.0794
12123TIP3   OH257859   5.310   5.700   1.028 -0.2350 -0.1660 -0.1718
12123TIP3    H157860   5.328   5.660   0.943 -0.5423 -1.0913  0.1893
12123TIP3    H257861   5.308   5.794   1.011  2.1821 -0.1571 -0.7543
12124TIP3   OH257862   1.098   5.868   2.737  0.3530 -0.2615  0.6560
12124TIP3    H157863   1.091   5.773   2.737  0.1694 -0.2785  2.4144
12124TIP3    H257864   1.140   5.889   2.821 -0.2461  1.2309  0.6085
12125TIP3   OH257865   4.233   2.572  11.867 -0.4753 -0.3082  0.0469
12125TIP3    H157866   4.268   2.524  11.791  0.0510 -0.6610  0.5028
12125TIP3    H257867   4.141   2.545  11.872 -1.0756  1.2242 -1.6303
12126TIP3   OH257868   5.755   5.224  15.356  0.1970 -0.3526  0.6836
12126TIP3    H157869   5.710   5.270  15.285  1.4919  1.9786  1.2827
12126TIP3    H257870   5.802   5.152  15.313 -1.6151 -0.9788 -0.3302
12127TIP3   OH257871   3.259   4.802  16.535  0.1805  0.4556 -0.0018
12127TIP3    H157872   3.237   4.741  16.605  0.3547 -0.1480 -0.4628
12127TIP3    H257873   3.178   4.851  16.518 -0.5003 -0.9186 -0.8768
12128TIP3   OH257874   0.389   0.005  13.690 -1.0383 -0.1319  0.4045
12128TIP3    H157875   0.400   0.012  13.785  1.9503  2.0368  0.0541
12128TIP3    H257876   0.456  -0.058  13.663 -1.8991 -0.7678 -0.3047
12129TIP3   OH257877   4.022   2.471   3.223 -0.2006  0.0815  0.0910
12129TIP3    H157878   3.948   2.501   3.170 -0.3408 -0.7522 -0.1942
12129TIP3    H257879   4.017   2.375   3.220  0.8976  0.0093  0.0606
12130TIP3   OH257880   4.857   4.168   1.427  0.0848 -0.2176 -0.1968
12130TIP3    H157881   4.941   4.189   1.386 -0.0183 -2.2360 -1.6116
12130TIP3    H257882   4.792   4.187   1.360 -0.4264 -0.2748  0.2773
12131TIP3   OH257883   1.821   0.799   2.586  0.4478 -0.1691 -0.2023
12131TIP3    H157884   1.914   0.799   2.563  0.7118 -2.4000  0.6335
12131TIP3    H257885   1.820   0.779   2.679 -0.8727 -1.0186 -0.3737
12132TIP3   OH257886   2.682   3.217   4.548 -0.1660  0.0588 -0.0085
12132TIP3    H157887   2.640   3.223   4.462 -0.1807 -2.7544 -0.2895
12132TIP3    H257888   2.644   3.288   4.599  0.0790  2.0039 -2.4003
12133TIP3   OH257889   5.170   3.300   5.324 -0.0808 -0.3478  0.1773
12133TIP3    H157890   5.202   3.343   5.403  0.7439  0.5925 -0.6414
12133TIP3    H257891   5.085   3.341   5.306  0.6812  0.9481 -0.5741
12134TIP3   OH257892   5.321   2.906   5.721 -0.1864 -0.3456 -0.6181
12134TIP3    H157893   5.366   2.833   5.764 -1.6632 -0.9005  0.0628
12134TIP3    H257894   5.347   2.983   5.771 -0.6180 -0.7688  0.2908
12135TIP3   OH257895   6.391   4.658  15.714 -0.3937  0.5181  0.2251
12135TIP3    H157896   6.323   4.708  15.758 -0.6629 -2.0247  3.0276
12135TIP3    H257897   6.465   4.660  15.775  0.5498 -0.2150 -0.8511
12136TIP3   OH257898   1.621   0.763   5.042  0.0002 -0.0144 -0.4528
12136TIP3    H157899   1.695   0.794   4.990  2.2759 -0.2059  2.4321
12136TIP3    H257900   1.615   0.669   5.022  1.5066 -0.2973  0.3439
12137TIP3   OH257901   2.865   4.519  15.906  0.1458  0.0843  0.6583
12137TIP3    H157902   2.841   4.478  15.823  0.7251 -0.5556  0.7991
12137TIP3    H257903   2.867   4.447  15.968  0.1334  0.4968  1.1372
12138TIP3   OH257904   4.197   3.760  11.696 -0.2694 -0.0917 -0.3874
12138TIP3    H157905   4.255   3.775  11.771  0.4343 -0.0659 -0.9385
12138TIP3    H257906   4.246   3.704  11.637 -1.6049 -1.8875  0.0919
12139TIP3   OH257907   5.053   0.936   3.244 -0.2674 -0.3794 -0.0447
12139TIP3    H157908   5.007   0.871   3.298 -1.9696  0.9646  0.2312
12139TIP3    H257909   4.983   0.988   3.204  1.0165  0.8623 -0.7888
12140TIP3   OH257910   3.424   2.151  16.085  0.5048 -0.2435 -0.2320
12140TIP3    H157911   3.394   2.070  16.125 -0.8754  0.3031 -0.1011
12140TIP3    H257912   3.383   2.220  16.138  0.6915  0.5196 -1.0642
12141TIP3   OH257913   1.061   3.204  15.110  0.1868  0.0391 -0.0933
12141TIP3    H157914   1.034   3.288  15.147  1.0985  0.8422 -1.1752
12141TIP3    H257915   1.152   3.194  15.139  0.1462 -0.4855 -0.1421
12142TIP3   OH257916   3.280   2.706   5.903  0.3338 -0.0689 -0.0073
12142TIP3    H157917   3.302   2.612   5.907  0.5715  0.0204  1.0365
12142TIP3    H257918   3.189   2.708   5.873  0.6481 -0.5758 -1.0835
12143TIP3   OH257919   1.609   6.428  13.579  0.5532  0.2579  0.2140
12143TIP3    H157920   1.670   6.365  13.616  2.0669  1.7970  0.4710
12143TIP3    H257921   1.664   6.492  13.534 -0.9855  0.8083 -0.9772
12144TIP3   OH257922   1.233   1.412  11.078 -0.0476 -0.5936  0.1021
12144TIP3    H157923   1.295   1.352  11.038  0.7144 -0.3486  0.8801
12144TIP3    H257924   1.206   1.470  11.007 -0.6489 -1.7117 -0.6107
12145TIP3   OH257925   3.276   1.030   1.683 -0.3259  0.1840  0.0718
12145TIP3    H157926   3.298   0.970   1.611  0.7162 -1.6052  1.7854
12145TIP3    H257927   3.215   0.981   1.737 -1.0153  1.4638  0.4901
12146TIP3   OH257928   4.040   2.876   5.242 -0.6319 -0.0464  0.3631
12146TIP3    H157929   3.974   2.931   5.284 -0.1344 -0.5794  1.9182
12146TIP3    H257930   4.038   2.902   5.150 -1.5017  1.4534  0.7688
12147TIP3   OH257931   4.828   2.850  10.845 -0.0258 -0.4284 -0.4696
12147TIP3    H157932   4.776   2.792  10.789 -0.2091  0.7665 -1.5898
12147TIP3    H257933   4.775   2.929  10.855  0.2056 -0.4382  1.0506
12148TIP3   OH257934   0.222   5.711   0.026 -0.2138 -0.0924  0.2568
12148TIP3    H157935   0.231   5.727  -0.067 -0.2885 -0.9913  0.0885
12148TIP3    H257936   0.158   5.777   0.056 -1.2575 -0.6968 -0.5855
12149TIP3   OH257937   5.208   0.659  11.316  0.3484 -0.4042  0.3902
12149TIP3    H157938   5.180   0.641  11.226  2.0121 -1.6610  0.0818
12149TIP3    H257939   5.164   0.593  11.369 -0.5428  0.2667  0.5177
12150TIP3   OH257940   6.467   4.586   1.437  0.0723  0.2336 -0.1361
12150TIP3    H157941   6.401   4.597   1.368  0.6877 -0.6392 -0.8901
12150TIP3    H257942   6.482   4.675   1.470 -2.1158  0.3421  0.6910
12151TIP3   OH257943   1.671   6.155   1.136 -0.4597 -0.3187  0.5601
12151TIP3    H157944   1.694   6.091   1.069 -0.9411 -0.7397  0.7860
12151TIP3    H257945   1.656   6.236   1.088  1.8205  0.0866  0.4440
12152TIP3   OH257946   0.480   1.542  11.504 -0.1190 -0.0641 -0.0473
12152TIP3    H157947   0.481   1.607  11.434  1.4118  1.3919  1.2243
12152TIP3    H257948   0.393   1.548  11.542 -1.0593 -1.0440 -1.9044
12153TIP3   OH257949   3.166   6.597  16.159  0.4927  0.0755  0.3077
12153TIP3    H157950   3.114   6.674  16.180 -0.1701 -0.4344  0.5789
12153TIP3    H257951   3.229   6.589  16.231  0.6895  0.4708  0.1798
12154TIP3   OH257952   4.321   3.633  16.058  0.3583 -0.6894 -0.0247
12154TIP3    H157953   4.240   3.623  16.007  0.8436 -1.9193 -0.5829
12154TIP3    H257954   4.304   3.585  16.139  0.0685  0.1469  0.4179
12155TIP3   OH257955   5.146   3.423   1.413  0.0327 -0.2107 -0.1040
12155TIP3    H157956   5.193   3.361   1.469  0.0663  1.0952  1.3632
12155TIP3    H257957   5.199   3.428   1.334 -0.5090 -2.8105 -0.7270
12156TIP3   OH257958   4.661   0.861   0.694  0.4025 -0.3257 -0.1331
12156TIP3    H157959   4.677   0.827   0.605 -1.0691 -0.9950 -0.1806
12156TIP3    H257960   4.578   0.821   0.720  1.0675 -0.5630  1.7761
12157TIP3   OH257961   0.788   4.380  15.929  0.1894  1.0411  0.4500
12157TIP3    H157962   0.744   4.321  15.991  0.7049  0.9246  0.7090
12157TIP3    H257963   0.719   4.406  15.868  0.1313 -0.4449 -0.1392
12158TIP3   OH257964   6.673   0.805   1.273 -0.1016 -0.7706 -0.0610
12158TIP3    H157965   6.748   0.841   1.224  1.7030 -3.5285  0.4859
12158TIP3    H257966   6.629   0.748   1.210 -2.8849  2.0018 -0.8891
12159TIP3   OH257967   0.194   0.925   0.992  0.5298  0.0083 -0.0885
12159TIP3    H157968   0.259   0.927   1.062  1.4484 -0.2427 -0.9070
12159TIP3    H257969   0.222   0.854   0.935 -1.5393 -1.3783  0.5031
12160TIP3   OH257970   2.824   4.608   3.146 -0.2036 -0.1169 -0.1668
12160TIP3    H157971   2.730   4.596   3.132 -0.2399 -0.1626  0.1095
12160TIP3    H257972   2.848   4.676   3.084 -0.5163  0.2358  0.0911
12161TIP3   OH257973   3.329   2.379  13.159 -0.1471  0.3871  0.2945
12161TIP3    H157974   3.290   2.419  13.081 -0.2657  2.3619  1.3083
12161TIP3    H257975   3.257   2.333  13.202 -0.8724  2.0798  0.9474
12162TIP3   OH257976   6.579   5.823  16.366  0.0275  0.0731  0.2271
12162TIP3    H157977   6.522   5.805  16.291 -0.8978  1.3716  0.5666
12162TIP3    H257978   6.641   5.889  16.334  0.0631  0.1250  0.3984
12163TIP3   OH257979   4.123   1.060   3.405  0.4791 -0.2452 -0.0534
12163TIP3    H157980   4.056   1.104   3.456  2.0745  2.1543  0.1336
12163TIP3    H257981   4.146   0.983   3.457 -0.0597  0.4939  1.3351
12164TIP3   OH257982   5.140   4.602   5.883 -0.2757  0.0956  0.2804
12164TIP3    H157983   5.067   4.544   5.907 -0.5095  0.5553  0.6960
12164TIP3    H257984   5.098   4.679   5.845  0.0961 -0.8217 -2.1941
12165TIP3   OH257985   2.648   5.793   5.417 -0.0130 -0.0885 -0.0198
12165TIP3    H157986   2.688   5.861   5.363  1.1815 -0.6902  0.0769
12165TIP3    H257987   2.720   5.759   5.470 -1.0091 -0.0436  1.4125
12166TIP3   OH257988   4.906   2.547   5.174 -0.4256  0.3490 -0.2494
12166TIP3    H157989   4.836   2.485   5.198 -0.3030  0.3235  0.0378
12166TIP3    H257990   4.878   2.582   5.089 -1.4450  1.3144  0.4617
12167TIP3   OH257991   2.894   4.444   6.400 -0.2125  0.0850 -0.0781
12167TIP3    H157992   2.842   4.394   6.462  2.2407 -1.1844  1.1104
12167TIP3    H257993   2.910   4.384   6.327 -1.6592  0.9950 -1.1799
12168TIP3   OH257994   2.854   3.074   3.654  0.4243  0.1971  0.3895
12168TIP3    H157995   2.937   3.027   3.656 -0.3229 -1.1465  2.0956
12168TIP3    H257996   2.790   3.012   3.689 -1.1669  1.4689 -0.1378
12169TIP3   OH257997   3.871   5.079   1.923 -0.2473  0.4203 -0.2161
12169TIP3    H157998   3.908   5.102   1.838  1.5241 -0.2315  0.3353
12169TIP3    H257999   3.864   5.163   1.969  1.1276  0.5261 -0.1438
12170TIP3   OH258000   5.931   4.425  13.125  0.1056 -0.0279  0.2083
12170TIP3    H158001   5.964   4.515  13.134 -0.5197  0.0910  1.3602
12170TIP3    H258002   5.847   4.425  13.169  0.5376 -1.4293  1.0845
12171TIP3   OH258003   6.150   3.858   1.345 -0.3044 -1.2371  0.0590
12171TIP3    H158004   6.199   3.829   1.268  0.3444  0.5969 -0.2731
12171TIP3    H258005   6.059   3.843   1.322 -0.0657 -1.6793 -0.6379
12172TIP3   OH258006   2.241   5.474   5.062 -0.2599 -0.4964 -0.6246
12172TIP3    H158007   2.326   5.494   5.102 -0.7732 -1.9118  1.3477
12172TIP3    H258008   2.209   5.558   5.031  1.1308  0.3480  0.0908
12173TIP3   OH258009   1.976   5.805   4.942  0.3776 -0.0389  0.2701
12173TIP3    H158010   2.066   5.837   4.938  0.2595  0.2169 -0.8547
12173TIP3    H258011   1.961   5.787   5.034  1.8260 -0.8213  0.3888
12174TIP3   OH258012   3.785   5.140   5.976 -0.6818  0.4397  0.4156
12174TIP3    H158013   3.839   5.190   6.037 -0.6387 -2.0897  2.6122
12174TIP3    H258014   3.713   5.105   6.029 -0.2688 -2.4571 -0.7454
12175TIP3   OH258015   5.381   2.328  13.285 -0.1016  0.2294 -0.2542
12175TIP3    H158016   5.345   2.348  13.371  1.1357  2.0388 -0.1021
12175TIP3    H258017   5.347   2.398  13.228  0.7839  0.2762 -0.7461
12176TIP3   OH258018   5.430   0.580  16.191  0.0727 -0.2201 -0.5510
12176TIP3    H158019   5.479   0.534  16.259  0.8995  1.0784 -0.2190
12176TIP3    H258020   5.497   0.615  16.133 -0.3747  1.9736  0.1584
12177TIP3   OH258021   2.139   5.073  13.246 -0.5562 -0.2456 -0.4354
12177TIP3    H158022   2.198   5.016  13.197  1.8861  0.8546  1.0118
12177TIP3    H258023   2.075   5.103  13.182  1.1557 -0.6055 -2.4003
12178TIP3   OH258024   2.183   5.983  10.717  0.2392  0.8221  0.0407
12178TIP3    H158025   2.221   5.929  10.648 -1.2863  0.4429 -0.5545
12178TIP3    H258026   2.258   6.018  10.765  1.3213  0.7782 -1.5610
12179TIP3   OH258027   0.802   2.323   4.221  0.2035 -0.2621 -0.3130
12179TIP3    H158028   0.888   2.356   4.198  0.6439 -0.1377  1.3851
12179TIP3    H258029   0.789   2.350   4.312  0.0683 -3.5884  0.8222
12180TIP3   OH258030   4.157   5.676  11.231 -0.7213 -0.1410  0.1730
12180TIP3    H158031   4.146   5.688  11.325  1.1187  1.0104  0.2998
12180TIP3    H258032   4.195   5.589  11.222  1.3452  0.6392  0.7615
12181TIP3   OH258033   5.837   5.917   2.569 -0.2454 -0.1052 -0.4829
12181TIP3    H158034   5.789   5.993   2.538 -0.3440 -0.6228 -1.6360
12181TIP3    H258035   5.890   5.889   2.495 -0.7430 -1.5757 -0.3298
12182TIP3   OH258036   2.253   1.281  15.190  0.0332 -0.1950  0.0462
12182TIP3    H158037   2.338   1.260  15.230  0.2147  0.3032 -0.0721
12182TIP3    H258038   2.261   1.373  15.164 -0.4577 -0.2169 -0.1855
12183TIP3   OH258039   2.186   4.845  12.859 -0.6030 -0.7111  0.0157
12183TIP3    H158040   2.166   4.905  12.786 -0.2752  1.4728  1.6217
12183TIP3    H258041   2.197   4.760  12.817  0.0568  0.5333 -2.5658
12184TIP3   OH258042   1.803   0.776   0.129 -1.0256  0.2814 -0.5125
12184TIP3    H158043   1.810   0.868   0.158 -1.5083  0.7283 -1.7686
12184TIP3    H258044   1.747   0.735   0.195 -0.7629  0.8721  0.0970
12185TIP3   OH258045   5.636   0.771  16.366 -0.4338  0.0584 -0.2611
12185TIP3    H158046   5.680   0.856  16.369 -1.3241  0.5021  1.6912
12185TIP3    H258047   5.582   0.774  16.288 -0.1277  1.1170 -0.4404
12186TIP3   OH258048   2.163   5.476   1.502 -0.0124  0.0629  0.0021
12186TIP3    H158049   2.174   5.457   1.596  1.0068 -0.7256 -0.2556
12186TIP3    H258050   2.078   5.438   1.480  0.0085 -0.2820  0.4816
12187TIP3   OH258051   2.386   1.779  15.648 -0.1715  0.2936 -0.2481
12187TIP3    H158052   2.364   1.871  15.634 -0.6055  0.2449  0.1050
12187TIP3    H258053   2.302   1.736  15.662  0.0182 -0.1896 -0.5815
12188TIP3   OH258054   6.440   3.629  15.194  0.3523 -0.0678 -0.1045
12188TIP3    H158055   6.363   3.578  15.168  0.4068 -0.0804 -0.2448
12188TIP3    H258056   6.502   3.616  15.122  1.4494 -2.0620  1.1230
12189TIP3   OH258057   4.034   1.295  16.470 -0.3172 -0.6829 -0.5674
12189TIP3    H158058   3.988   1.350  16.533  2.2524  0.7026  0.2179
12189TIP3    H258059   4.018   1.205  16.500 -0.7955 -0.1468  0.8487
12190TIP3   OH258060   3.768   2.569  15.787 -0.5632 -0.3986  0.0544
12190TIP3    H158061   3.710   2.513  15.735 -2.5569  0.3022  1.4271
12190TIP3    H258062   3.763   2.654  15.743  1.7494 -0.9683 -1.4901
12191TIP3   OH258063   4.570   5.880   0.445 -0.5842  0.0168 -0.4834
12191TIP3    H158064   4.478   5.860   0.457 -0.7174  0.3141 -0.9727
12191TIP3    H258065   4.571   5.967   0.404  0.0079  1.7815  2.9051
12192TIP3   OH258066   6.733   0.980   1.000 -0.4244  0.3096  0.5535
12192TIP3    H158067   6.693   0.894   1.011  0.7870 -0.5514 -1.3746
12192TIP3    H258068   6.821   0.962   0.969 -0.6246  2.2505 -1.3500
12193TIP3   OH258069   3.439   3.857   2.315 -0.2639 -0.0008  0.6070
12193TIP3    H158070   3.397   3.781   2.355 -0.8340 -0.5436 -0.9561
12193TIP3    H258071   3.489   3.821   2.241  1.0056  0.9245  0.9677
12194TIP3   OH258072   0.678   6.529   6.198 -0.1139  0.0211  0.2811
12194TIP3    H158073   0.681   6.434   6.210 -1.4041  0.1353  1.8183
12194TIP3    H258074   0.770   6.555   6.190  0.4616 -1.0640  2.5795
12195TIP3   OH258075   1.206   2.166   6.164  0.3984  0.2373  0.0274
12195TIP3    H158076   1.282   2.110   6.183 -0.8670 -1.7450 -0.5045
12195TIP3    H258077   1.229   2.211   6.083  1.9633  1.5817  1.1266
12196TIP3   OH258078   5.790   0.099   3.156 -0.0155 -0.5311 -0.2641
12196TIP3    H158079   5.845   0.020   3.152 -0.4071 -0.7438 -2.3917
12196TIP3    H258080   5.801   0.141   3.071 -1.0071  0.9083  0.2797
12197TIP3   OH258081   0.973   2.272  15.324  0.0695  0.1498 -0.2040
12197TIP3    H158082   0.895   2.271  15.269 -0.1323 -0.7967  0.0736
12197TIP3    H258083   1.046   2.271  15.262 -0.1374  0.6926 -0.4618
12198TIP3   OH258084   3.077   4.924  13.249 -0.5807  0.0449 -0.0310
12198TIP3    H158085   3.013   4.867  13.291  0.6167 -1.1479  0.2248
12198TIP3    H258086   3.074   5.005  13.300 -0.9191 -0.4892  0.8153
12199TIP3   OH258087   6.214   4.958   5.236 -0.1965 -0.0564  0.0197
12199TIP3    H158088   6.177   4.869   5.236 -3.8463  1.1156  3.9540
12199TIP3    H258089   6.138   5.015   5.224  2.0346  2.7171 -2.5820
12200TIP3   OH258090   6.705   5.615   1.343  0.4954 -0.3448 -0.2935
12200TIP3    H158091   6.636   5.604   1.278  1.1302 -1.1208 -0.8658
12200TIP3    H258092   6.669   5.676   1.408 -1.2243 -1.7508  0.1416
12201TIP3   OH258093   5.645   3.312   3.150  0.4988 -0.1337  0.0384
12201TIP3    H158094   5.625   3.406   3.146  0.9608 -0.0637 -0.8672
12201TIP3    H258095   5.686   3.300   3.235  1.5886  0.7203 -0.3440
12202TIP3   OH258096   3.127   0.068  15.920  0.5574  0.0427 -0.8287
12202TIP3    H158097   3.148  -0.020  15.890 -0.6265 -0.8038  0.6617
12202TIP3    H258098   3.046   0.090  15.874  0.7831  0.3036 -1.1028
12203TIP3   OH258099   6.026   3.107   4.493 -0.5061  0.2624  0.1131
12203TIP3    H158100   6.041   3.198   4.467 -2.6795  1.2104  1.8291
12203TIP3    H258101   5.994   3.064   4.414  1.5667  0.6299 -1.0071
12204TIP3   OH258102   5.888   2.451   5.374 -0.1906  0.1643  0.2357
12204TIP3    H158103   5.823   2.447   5.304  0.4200 -1.7261 -0.2764
12204TIP3    H258104   5.844   2.408   5.449 -0.9400  2.4054  1.1580
12205TIP3   OH258105   4.304   2.111  10.715 -0.3285 -0.0016 -0.4062
12205TIP3    H158106   4.221   2.136  10.757 -0.3253  0.3593 -0.6156
12205TIP3    H258107   4.280   2.039  10.657 -0.4288 -0.1466 -0.1879
12206TIP3   OH258108   6.801   4.754  11.322  0.1089  0.0425 -0.3266
12206TIP3    H158109   6.802   4.669  11.367  0.0168 -0.1807 -0.7471
12206TIP3    H258110   6.793   4.732  11.229 -2.0610  0.5505 -0.2973
12207TIP3   OH258111   2.687   5.348   2.938  0.2329  0.7011 -0.3128
12207TIP3    H158112   2.705   5.401   3.015  2.9480  0.7912 -0.8940
12207TIP3    H258113   2.761   5.288   2.932 -0.5156 -0.1312 -2.1575
12208TIP3   OH258114   0.486   2.260   4.430 -0.5551  0.8775  0.3540
12208TIP3    H158115   0.400   2.258   4.471 -1.4752 -1.6534 -1.4464
12208TIP3    H258116   0.489   2.343   4.382 -2.7246  0.3194 -0.8712
12209TIP3   OH258117   6.193   0.723  16.683 -0.0254 -0.0913  0.4845
12209TIP3    H158118   6.261   0.787  16.704 -0.6924  0.2394  1.7184
12209TIP3    H258119   6.214   0.694  16.594  1.0664  0.8349  0.4198
12210TIP3   OH258120   1.439   6.419  11.669 -0.5521  0.5325 -0.5530
12210TIP3    H158121   1.402   6.473  11.599 -0.4246  0.6502 -0.5300
12210TIP3    H258122   1.414   6.330  11.647 -2.0872  0.7416  0.2064
12211TIP3   OH258123   2.823   3.142   1.034 -0.0972 -0.3681  0.0721
12211TIP3    H158124   2.847   3.217   0.980  0.9435 -0.5125  0.3208
12211TIP3    H258125   2.831   3.172   1.124  1.7150 -1.1545  0.2124
12212TIP3   OH258126   3.141   1.451   0.967  0.1838 -0.0013  0.0956
12212TIP3    H158127   3.213   1.450   0.904  0.9835  1.7111  0.9054
12212TIP3    H258128   3.072   1.503   0.924 -1.1446 -2.5764 -1.1590
12213TIP3   OH258129   1.018   0.590   1.632  0.3798 -0.3888  0.0450
12213TIP3    H158130   0.982   0.505   1.610 -0.0270 -0.1512 -0.2107
12213TIP3    H258131   1.084   0.607   1.565 -0.3520  0.0113 -0.5888
12214TIP3   OH258132   1.208   3.340   3.683  0.3517 -0.0013  0.0039
12214TIP3    H158133   1.132   3.368   3.633  1.7818 -2.2645 -3.9070
12214TIP3    H258134   1.187   3.251   3.711  1.4515 -0.5974 -1.0002
12215TIP3   OH258135   5.424   4.558  16.577 -0.1304 -0.2640 -0.3039
12215TIP3    H158136   5.370   4.605  16.641  0.5141  1.4858 -0.9852
12215TIP3    H258137   5.459   4.484  16.626 -1.0086  0.0769  0.8959
12216TIP3   OH258138   4.715   3.608  14.834 -0.0481  0.5325 -0.3124
12216TIP3    H158139   4.747   3.578  14.748  1.4231 -0.6544  0.5979
12216TIP3    H258140   4.773   3.680  14.857  0.5083 -0.0978  0.3045
12217TIP3   OH258141   5.240   5.508  16.095 -0.0609 -0.1397  0.3998
12217TIP3    H158142   5.159   5.507  16.043  0.1988  1.6423 -0.0835
12217TIP3    H258143   5.217   5.557  16.174  0.3355 -0.3268  0.6318
12218TIP3   OH258144   1.489   4.341  17.102  0.2744 -0.7112  0.6140
12218TIP3    H158145   1.472   4.249  17.085 -1.2503 -0.6657  1.6864
12218TIP3    H258146   1.402   4.382  17.099  0.9406  0.7355 -0.0662
12219TIP3   OH258147   5.761   1.859   1.741  0.3825  0.3235 -0.2276
12219TIP3    H158148   5.685   1.808   1.712  0.3407 -0.0881  0.5781
12219TIP3    H258149   5.738   1.950   1.720 -0.4324  0.2267  0.2137
12220TIP3   OH258150   5.261   0.142  13.280  0.3279  0.3453 -0.0692
12220TIP3    H158151   5.306   0.108  13.202  0.2821 -1.1587  0.5263
12220TIP3    H258152   5.200   0.073  13.304 -1.0016  1.5808  0.2268
12221TIP3   OH258153   0.262   5.173   4.649 -0.4195 -0.0755 -0.4202
12221TIP3    H158154   0.190   5.234   4.638  1.3095  2.0473 -0.7651
12221TIP3    H258155   0.267   5.126   4.566 -0.5951  0.7001 -0.8764
12222TIP3   OH258156   4.417   2.916  14.327  0.2094 -0.1669  0.0623
12222TIP3    H158157   4.412   2.822  14.342  0.8441 -0.0137  1.4454
12222TIP3    H258158   4.363   2.954  14.396  1.3671  0.5307  0.6203
12223TIP3   OH258159   0.992   2.626  13.324 -0.5227 -0.2691 -0.3121
12223TIP3    H158160   1.068   2.605  13.269 -0.5831  0.1507 -0.5591
12223TIP3    H258161   0.990   2.557  13.390 -0.1907 -0.5331 -0.5772
12224TIP3   OH258162   2.660   1.015   2.214  0.4659 -0.3824 -0.4820
12224TIP3    H158163   2.751   1.043   2.204  0.3656  0.7382  1.3669
12224TIP3    H258164   2.610   1.096   2.214 -0.3531 -0.8720  0.1888
12225TIP3   OH258165   5.477   2.413   0.132 -0.5754 -1.0925  0.2090
12225TIP3    H158166   5.410   2.479   0.113  0.3228 -0.5280 -1.1153
12225TIP3    H258167   5.466   2.348   0.063  2.0270  0.4390 -1.8356
12226TIP3   OH258168   4.194   1.652  12.836 -0.1044  0.2260 -0.3009
12226TIP3    H158169   4.289   1.658  12.826 -0.0840 -1.0431 -0.9759
12226TIP3    H258170   4.177   1.561  12.862 -1.2512 -0.0271 -1.7925
12227TIP3   OH258171   5.859   1.895   0.903  0.0725 -0.0832 -0.2172
12227TIP3    H158172   5.807   1.946   0.841 -1.1430  0.7502  1.4138
12227TIP3    H258173   5.935   1.866   0.852  0.7205  3.1451 -1.3322
12228TIP3   OH258174   2.393   0.264  13.641 -0.1605 -0.8382 -0.0248
12228TIP3    H158175   2.375   0.199  13.709 -2.1613  1.1115  1.4098
12228TIP3    H258176   2.309   0.279  13.599  0.1939  0.9462 -0.1842
12229TIP3   OH258177   6.148   1.577   0.583 -0.6298 -0.1107  0.3157
12229TIP3    H158178   6.121   1.485   0.575 -0.5872 -0.2641  1.7145
12229TIP3    H258179   6.224   1.575   0.640 -0.0364  0.7192 -0.4136
12230TIP3   OH258180   0.668   5.423  13.871 -0.1549 -0.0329  0.2226
12230TIP3    H158181   0.609   5.425  13.795  0.4631 -0.2537 -0.2688
12230TIP3    H258182   0.683   5.515  13.892 -1.7564  0.0540  1.2254
12231TIP3   OH258183   2.515   5.860  11.880 -0.4016 -0.4917  0.3480
12231TIP3    H158184   2.598   5.844  11.834 -0.8295 -1.7631 -0.0068
12231TIP3    H258185   2.518   5.803  11.956 -2.0932 -2.6692 -1.1079
12232TIP3   OH258186   6.576   3.390   0.347  0.3257 -0.0877 -0.1066
12232TIP3    H158187   6.506   3.390   0.412 -0.7055  0.0905 -1.1859
12232TIP3    H258188   6.598   3.483   0.335 -0.2962 -0.0241 -0.8369
12233TIP3   OH258189   1.603   3.474   2.666 -0.0770 -0.4744  0.2119
12233TIP3    H158190   1.670   3.449   2.603  1.5985  0.5554  1.5006
12233TIP3    H258191   1.612   3.411   2.738 -1.1811 -0.9280 -0.0241
12234TIP3   OH258192   3.682   2.660   4.559  0.0898  0.2252  0.1828
12234TIP3    H158193   3.748   2.619   4.615 -0.3788  0.5040  0.9556
12234TIP3    H258194   3.608   2.679   4.618  0.2191  2.0146 -0.1626
12235TIP3   OH258195   6.602   0.644  15.141 -0.0352  0.7649  0.0722
12235TIP3    H158196   6.633   0.585  15.210  0.7642  0.8384 -0.2130
12235TIP3    H258197   6.647   0.726  15.158  1.7482  0.2189 -1.6907
12236TIP3   OH258198   0.847   3.364  12.025  0.0000  0.2042 -0.4672
12236TIP3    H158199   0.924   3.391  12.075  0.8551  1.1599 -2.2078
12236TIP3    H258200   0.851   3.417  11.945 -1.6313 -0.8424 -1.2858
12237TIP3   OH258201   5.242   3.664  11.698  0.6325  0.1415  0.4248
12237TIP3    H158202   5.300   3.735  11.669 -0.0172  0.6001  0.2300
12237TIP3    H258203   5.298   3.586  11.699  0.8617  0.2581 -1.3445
12238TIP3   OH258204   5.275   5.387   1.641 -0.1730  0.0155  0.2769
12238TIP3    H158205   5.272   5.298   1.605 -0.7997 -0.4369  1.4223
12238TIP3    H258206   5.184   5.417   1.640 -0.1083  0.2399  0.9058
12239TIP3   OH258207   5.277   1.647  13.695 -0.1465  0.3483 -0.4465
12239TIP3    H158208   5.203   1.586  13.686 -0.8574  1.1475 -0.1950
12239TIP3    H258209   5.281   1.692  13.611  1.4087 -1.1277 -1.2298
12240TIP3   OH258210   3.568   4.114   6.102  0.2250 -0.4291  0.2372
12240TIP3    H158211   3.579   4.030   6.057  0.6634 -1.5939  2.3731
12240TIP3    H258212   3.654   4.132   6.140 -0.0159  0.7270  0.2562
12241TIP3   OH258213   2.891   2.187  16.553 -0.0610 -0.1956  0.4043
12241TIP3    H158214   2.832   2.115  16.576  0.0571 -0.7778 -1.0124
12241TIP3    H258215   2.834   2.255  16.520 -0.0115 -0.5486 -0.4449
12242TIP3   OH258216   4.133   6.724  13.107 -0.5809  0.2628  0.1847
12242TIP3    H158217   4.092   6.809  13.092  0.4090  0.6210 -0.6093
12242TIP3    H258218   4.159   6.695  13.020 -1.3574 -1.0965  0.3874
12243TIP3   OH258219   0.239   4.362  14.916  0.0309  0.2467 -0.4871
12243TIP3    H158220   0.226   4.278  14.873  0.6842  0.0679 -0.3492
12243TIP3    H258221   0.228   4.427  14.847 -0.5582  0.0571 -0.5774
12244TIP3   OH258222   1.569   4.878  11.595 -0.1856  0.1344 -0.2231
12244TIP3    H158223   1.637   4.816  11.570 -0.0939  0.4718 -0.8290
12244TIP3    H258224   1.501   4.824  11.636 -0.5594 -0.5285 -1.6242
12245TIP3   OH258225   6.374   2.657   4.618  0.3090  0.4884 -0.3227
12245TIP3    H158226   6.418   2.590   4.566 -1.3489 -1.7346  0.9707
12245TIP3    H258227   6.291   2.672   4.573  0.6198  1.6817 -0.5471
12246TIP3   OH258228   6.327   0.482   6.696 -0.0006 -0.5999 -0.0868
12246TIP3    H158229   6.391   0.545   6.663  1.0651 -1.2977  0.5705
12246TIP3    H258230   6.317   0.418   6.625  0.9433 -1.1320  0.2432
12247TIP3   OH258231   4.761   6.214   4.253 -0.5198 -0.3208 -0.4759
12247TIP3    H158232   4.852   6.196   4.279 -0.9571 -1.6314  0.2178
12247TIP3    H258233   4.721   6.128   4.244 -1.2811  0.1778 -2.3998
12248TIP3   OH258234   5.219   1.513  12.946  0.1070  0.1881 -0.2594
12248TIP3    H158235   5.275   1.457  13.001 -1.2301  0.9262  1.9919
12248TIP3    H258236   5.194   1.586  13.003 -0.3425  1.7047 -2.2930
12249TIP3   OH258237   6.687   6.370  13.951 -0.1469 -0.1689  0.0877
12249TIP3    H158238   6.621   6.439  13.958  0.1706  0.2005 -0.5141
12249TIP3    H258239   6.716   6.373  13.860  2.3965  1.2489  0.8595
12250TIP3   OH258240   4.936   0.649  12.110 -0.1088  0.2863 -0.4146
12250TIP3    H158241   4.842   0.629  12.112 -0.0304 -0.0699 -0.1568
12250TIP3    H258242   4.979   0.564  12.115  0.2331  0.4853  0.1722
12251TIP3   OH258243   2.775   6.634   3.190 -0.7395  0.5738 -0.2426
12251TIP3    H158244   2.851   6.676   3.230 -0.7387 -0.9218  1.4751
12251TIP3    H258245   2.808   6.550   3.157 -1.1385  1.0081 -1.8292
12252TIP3   OH258246   1.096   5.172   3.402  0.2809  0.6731  0.1336
12252TIP3    H158247   1.130   5.259   3.422  1.5359  0.3454 -0.4542
12252TIP3    H258248   1.032   5.154   3.471 -0.1140  2.1092  0.1684
12253TIP3   OH258249   6.280   4.054   0.621  0.2128  1.0276  0.0358
12253TIP3    H158250   6.296   4.133   0.671 -0.3984  0.6878  0.7864
12253TIP3    H258251   6.193   4.067   0.583  0.9148  1.5467 -1.4676
12254TIP3   OH258252   0.752   1.184   5.746 -0.2769  0.1430 -0.4967
12254TIP3    H158253   0.681   1.180   5.682  0.0932  1.4127 -1.0136
12254TIP3    H258254   0.816   1.120   5.714 -0.3045  0.4304 -1.1457
12255TIP3   OH258255   1.654   5.703   0.432  0.2055  0.0806 -0.1910
12255TIP3    H158256   1.618   5.614   0.423  0.1919 -0.2465  2.3754
12255TIP3    H258257   1.577   5.759   0.443  0.1980  0.5078 -2.1121
12256TIP3   OH258258   1.460   5.327   1.223 -0.0725  0.2583  0.1886
12256TIP3    H158259   1.506   5.310   1.305  0.2778 -2.4399 -0.4857
12256TIP3    H258260   1.527   5.322   1.155 -0.9921 -2.2800 -0.6623
12257TIP3   OH258261   4.858   3.547  15.801 -0.0321  0.0760  0.5044
12257TIP3    H158262   4.837   3.540  15.894 -0.8518 -2.7263  0.1948
12257TIP3    H258263   4.781   3.589  15.762  1.4351  3.9515  1.3253
12258TIP3   OH258264   3.109   4.190   2.186 -0.0295  0.2747 -0.4852
12258TIP3    H158265   3.062   4.185   2.270  0.1519  1.1344 -0.3320
12258TIP3    H258266   3.044   4.162   2.122 -0.2347 -0.1940 -0.0862
12259TIP3   OH258267   4.026   6.767   0.796 -0.7558  0.5641 -0.3997
12259TIP3    H158268   4.045   6.761   0.890 -0.9646  1.2496 -0.3110
12259TIP3    H258269   4.017   6.676   0.768 -1.4030  0.3750  0.3885
12260TIP3   OH258270   5.316   1.573  16.848 -0.3073  0.1528  0.1312
12260TIP3    H158271   5.404   1.566  16.886 -0.1192  0.9431 -0.1592
12260TIP3    H258272   5.286   1.661  16.871 -1.4891 -0.4825  1.2065
12261TIP3   OH258273   5.385   5.863  14.850  0.2168  0.2474 -0.1775
12261TIP3    H158274   5.308   5.854  14.906 -0.2684  3.1701 -0.2232
12261TIP3    H258275   5.362   5.933  14.789  1.6619 -1.1535 -2.4728
12262TIP3   OH258276   3.709   3.316  12.608  0.2349  0.1607 -0.2248
12262TIP3    H158277   3.788   3.370  12.599  0.4633 -0.2998 -1.1638
12262TIP3    H258278   3.675   3.309  12.518 -0.1203 -0.7581 -0.0266
12263TIP3   OH258279   5.923   2.913   0.985  0.2151 -0.5471  0.1285
12263TIP3    H158280   5.979   2.989   0.971 -1.0689  1.3489  3.8733
12263TIP3    H258281   5.860   2.916   0.913  1.4687  0.6386 -0.9717
12264TIP3   OH258282   1.735   1.069  11.958  0.9587  0.1480  1.0066
12264TIP3    H158283   1.712   1.056  12.050  1.1601 -0.9787  0.9211
12264TIP3    H258284   1.830   1.086  11.959  0.9755  0.0583  1.0139
12265TIP3   OH258285   0.497   6.412  12.674  0.6211  0.1077 -0.3631
12265TIP3    H158286   0.456   6.372  12.751  1.3878  0.4769  0.2485
12265TIP3    H258287   0.428   6.464  12.634 -0.0518 -0.8316 -0.4715
12266TIP3   OH258288   4.345   1.882   5.270  0.1294  0.0079 -0.9483
12266TIP3    H158289   4.385   1.962   5.237  0.0156  0.8866  0.8955
12266TIP3    H258290   4.309   1.907   5.355  0.3247 -2.0804 -0.2028
12267TIP3   OH258291   3.585   6.544  15.846  0.0882  0.0146  0.0346
12267TIP3    H158292   3.547   6.487  15.779  2.8275 -0.0733 -1.5754
12267TIP3    H258293   3.578   6.492  15.927 -0.9132 -0.9826 -0.6485
12268TIP3   OH258294   3.595   3.528   2.462  0.0713 -0.4052 -0.1452
12268TIP3    H158295   3.634   3.575   2.535  0.4842  0.6521 -1.0112
12268TIP3    H258296   3.582   3.439   2.494  2.6380 -0.6638  0.3922
12269TIP3   OH258297   4.417   6.386  12.430  0.3749  0.1778  0.2732
12269TIP3    H158298   4.502   6.357  12.462  0.4733  0.6142  0.4160
12269TIP3    H258299   4.436   6.433  12.349  0.1947 -0.3269 -0.0692
12270TIP3   OH258300   5.878   3.350  13.478  0.3124  0.8332  0.2736
12270TIP3    H158301   5.810   3.294  13.441 -1.2268  2.7284  0.0953
12270TIP3    H258302   5.900   3.309  13.562 -0.7078 -0.0826  0.1123
12271TIP3   OH258303   4.980   3.441   0.444  0.3031 -0.3343  0.1379
12271TIP3    H158304   5.069   3.477   0.441  0.8481 -1.5667  0.8293
12271TIP3    H258305   4.933   3.487   0.374  0.9411  1.7369  0.9811
12272TIP3   OH258306   0.282   4.323  14.650 -0.0313  0.4913  0.2445
12272TIP3    H158307   0.374   4.302  14.634 -0.3732  0.1796 -1.4549
12272TIP3    H258308   0.233   4.246  14.620 -0.8855  0.8158  0.7441
12273TIP3   OH258309   5.356   6.102  10.626 -0.0250 -0.2591 -0.0601
12273TIP3    H158310   5.312   6.150  10.696 -0.1246  1.6029 -1.3348
12273TIP3    H258311   5.292   6.098  10.555  0.8247 -0.1367 -0.8628
12274TIP3   OH258312   3.828   2.635   3.370 -0.5639  0.3116 -0.3145
12274TIP3    H158313   3.923   2.628   3.380 -0.5024  0.0154 -1.0272
12274TIP3    H258314   3.809   2.584   3.292 -1.1513  1.4663 -0.9467
12275TIP3   OH258315   3.821   1.339  16.651  0.4392 -0.2872 -0.1298
12275TIP3    H158316   3.741   1.356  16.601  1.2138  0.4908 -1.1464
12275TIP3    H258317   3.837   1.420  16.699 -0.4640 -1.1245  1.6867
12276TIP3   OH258318   4.047   2.064   0.776 -0.2620 -0.3952  0.1667
12276TIP3    H158319   4.060   2.148   0.820 -0.8784  0.4187 -1.1423
12276TIP3    H258320   3.959   2.036   0.803 -0.2875 -0.3326  0.1477
12277TIP3   OH258321   6.004   4.804  15.370  0.2698 -0.2596 -0.5568
12277TIP3    H158322   6.092   4.837  15.353  0.5168 -1.5936 -2.1135
12277TIP3    H258323   5.954   4.880  15.399  1.8732  0.5594  0.1615
12278TIP3   OH258324   3.570   0.845   4.176  0.6218 -0.0565  0.0186
12278TIP3    H158325   3.530   0.863   4.261  1.1776  0.4135  0.1871
12278TIP3    H258326   3.495   0.827   4.118  0.2729 -1.1060  0.7552
12279TIP3   OH258327   2.519   0.126   5.622 -0.1991  0.2706  0.4752
12279TIP3    H158328   2.539   0.084   5.705  0.0408 -1.5987 -0.4685
12279TIP3    H258329   2.464   0.063   5.576  0.0647  1.0522 -0.9775
12280TIP3   OH258330   4.921   1.035  15.161 -0.1767  0.6000 -0.1485
12280TIP3    H158331   4.882   1.058  15.077  0.8024 -2.5489 -1.5972
12280TIP3    H258332   4.854   0.982  15.204  0.5531 -0.5572 -0.4164
12281TIP3   OH258333   4.633   0.995   2.492 -0.4410  0.1400  0.3083
12281TIP3    H158334   4.690   0.986   2.416  1.1777  2.9703  1.0447
12281TIP3    H258335   4.628   0.907   2.529  0.4257 -0.8857 -1.8518
12282TIP3   OH258336   3.822   4.056  14.300 -0.1320 -0.5666 -0.9713
12282TIP3    H158337   3.751   4.033  14.240  0.1264 -1.3292 -0.9944
12282TIP3    H258338   3.875   4.119  14.252  0.2751 -1.4441 -1.6925
12283TIP3   OH258339   5.785   6.030  12.896  0.6879  0.1043  0.0114
12283TIP3    H158340   5.804   6.063  12.809  2.3186  0.3746  0.4283
12283TIP3    H258341   5.854   6.067  12.951 -0.8994  0.7875  1.6249
12284TIP3   OH258342   5.241   2.241   1.027 -0.0382  0.0397 -0.1228
12284TIP3    H158343   5.233   2.170   0.964  2.9638  0.1514 -0.7962
12284TIP3    H258344   5.227   2.200   1.113 -0.3156 -0.9230 -0.6202
12285TIP3   OH258345   5.164   3.913   2.752  0.2896  0.1699 -0.1101
12285TIP3    H158346   5.208   3.971   2.690 -0.3295 -0.9581 -1.6724
12285TIP3    H258347   5.142   3.836   2.700 -2.0854  0.0316  1.0004
12286TIP3   OH258348   2.751   1.420   0.360 -0.3210  0.2369  0.0151
12286TIP3    H158349   2.736   1.429   0.455 -2.1892  1.8702 -0.3547
12286TIP3    H258350   2.827   1.475   0.343 -0.2610  0.3193  0.5212
12287TIP3   OH258351   5.505   2.126  13.730  0.2566 -0.7012 -0.0144
12287TIP3    H158352   5.538   2.036  13.723  1.0056 -0.4862  0.6237
12287TIP3    H258353   5.410   2.117  13.720  0.2594 -1.6431  0.6102
12288TIP3   OH258354   2.968   4.408  12.348 -0.0987 -0.4670  0.6500
12288TIP3    H158355   2.916   4.441  12.275 -0.0271 -2.3950 -0.3293
12288TIP3    H258356   3.020   4.484  12.376 -1.3723  0.7643 -0.1449
12289TIP3   OH258357   4.194   3.168   5.251  0.0831  0.1871  0.0937
12289TIP3    H158358   4.231   3.131   5.331  0.3823 -0.9192 -0.5498
12289TIP3    H258359   4.099   3.167   5.266  0.0538 -1.2478 -0.0692
12290TIP3   OH258360   3.518   3.109   4.439  0.1630 -0.1024  0.3003
12290TIP3    H158361   3.560   3.153   4.513  0.9662 -0.1045 -0.1384
12290TIP3    H258362   3.443   3.164   4.418 -2.1337 -1.8252  3.2152
12291TIP3   OH258363   5.005   6.132   5.353 -0.1349 -0.4412  0.2441
12291TIP3    H158364   4.920   6.104   5.385 -0.7959 -0.4771 -1.4280
12291TIP3    H258365   5.022   6.215   5.396 -1.8022  0.3918 -0.6419
12292TIP3   OH258366   0.927   6.504  13.974 -0.5541  1.2243  0.0909
12292TIP3    H158367   0.972   6.563  13.913  2.1169  0.1391  0.8652
12292TIP3    H258368   0.972   6.517  14.058 -2.4343  0.8080  1.2058
12293TIP3   OH258369   1.454   1.865  14.151  0.3044  0.6144  0.3232
12293TIP3    H158370   1.532   1.834  14.106  1.1712  1.9755  0.8111
12293TIP3    H258371   1.456   1.822  14.236  0.8310  1.0440  0.5348
12294TIP3   OH258372   6.046   4.884   2.827  0.7588  0.2222  0.5416
12294TIP3    H158373   5.993   4.804   2.823 -0.1222  0.7302  1.6013
12294TIP3    H258374   6.104   4.870   2.902  0.3641  0.7080  0.9444
12295TIP3   OH258375   2.494   5.808   6.401  0.4298  0.1462  0.6163
12295TIP3    H158376   2.547   5.804   6.480  0.5512 -0.7094  0.5002
12295TIP3    H258377   2.556   5.796   6.329 -0.0272 -2.2809  0.5251
12296TIP3   OH258378   1.289   3.500   3.459  0.1374 -0.1066 -0.5890
12296TIP3    H158379   1.294   3.592   3.483 -1.6902 -0.2853  0.7193
12296TIP3    H258380   1.281   3.454   3.543 -0.3640 -1.3411 -1.2821
12297TIP3   OH258381   1.872   0.261  13.245  0.1927  0.0346  0.0508
12297TIP3    H158382   1.920   0.182  13.266 -0.8501 -0.6374 -0.0155
12297TIP3    H258383   1.858   0.304  13.330 -0.7675 -0.7687  0.3209
12298TIP3   OH258384   6.304   6.129   5.830  0.1112  0.2796  0.1402
12298TIP3    H158385   6.364   6.202   5.814  0.7366 -0.3354 -0.3774
12298TIP3    H258386   6.324   6.065   5.761 -1.0688  0.0100  0.0217
12299TIP3   OH258387   2.705   6.299  11.553 -0.4286 -0.4493  0.7552
12299TIP3    H158388   2.653   6.228  11.514 -2.1303  0.8860  0.4893
12299TIP3    H258389   2.752   6.257  11.624 -0.0667 -2.1978 -0.4545
12300TIP3   OH258390   0.367   2.345  17.053 -0.4989 -0.0525  0.0722
12300TIP3    H158391   0.394   2.409  16.987  0.3884 -0.0088  0.4560
12300TIP3    H258392   0.272   2.338  17.043 -0.5217  0.8258 -0.4251
12301TIP3   OH258393   2.471   0.529   4.392 -0.2292 -0.1678  0.1219
12301TIP3    H158394   2.394   0.475   4.409  0.9208 -2.4825 -1.5041
12301TIP3    H258395   2.438   0.604   4.344 -1.8661  0.5915  2.2969
12302TIP3   OH258396   6.511   0.705  15.462 -0.2783 -0.1673 -0.1211
12302TIP3    H158397   6.605   0.698  15.445 -0.3722 -0.6983 -0.4409
12302TIP3    H258398   6.470   0.677  15.380 -0.7724 -3.4850  1.1245
12303TIP3   OH258399   6.773   1.787  13.501  0.0462 -0.2709  0.3077
12303TIP3    H158400   6.697   1.785  13.443  0.7417 -1.4140 -0.6078
12303TIP3    H258401   6.845   1.815  13.445  0.9037 -2.2601  0.3416
12304TIP3   OH258402   1.504   0.717   0.871  0.0347  0.1109 -0.3412
12304TIP3    H158403   1.542   0.632   0.848  0.1240  0.3706 -1.1557
12304TIP3    H258404   1.559   0.749   0.943  2.0012  0.9184 -2.1110
12305TIP3   OH258405   2.840   5.853   5.009  0.0952 -0.3645  0.3213
12305TIP3    H158406   2.745   5.861   5.007  0.2430  2.1583 -1.1224
12305TIP3    H258407   2.860   5.785   4.945 -0.7154 -0.5956  0.3028
12306TIP3   OH258408   1.013   5.816   0.513 -0.2630  0.0655 -0.3892
12306TIP3    H158409   0.921   5.837   0.497  0.1530  1.7462 -0.7403
12306TIP3    H258410   1.051   5.808   0.426  0.0982  0.2291 -0.2488
12307TIP3   OH258411   3.707   6.519   0.630 -0.5608 -0.4240  0.0918
12307TIP3    H158412   3.617   6.491   0.610 -0.5801 -0.1103 -0.2732
12307TIP3    H258413   3.753   6.510   0.546 -0.1160 -1.1011  0.4031
12308TIP3   OH258414   6.191   0.713   5.590  0.1259  0.1253 -0.5585
12308TIP3    H158415   6.126   0.643   5.584  1.1442 -0.9686  0.5096
12308TIP3    H258416   6.174   0.755   5.674  2.2683 -1.8083  0.9735
12309TIP3   OH258417   5.019   6.747   2.768 -0.7533 -0.1330 -0.2290
12309TIP3    H158418   4.986   6.763   2.856  2.2661 -1.8999  1.3853
12309TIP3    H258419   5.066   6.828   2.745 -0.8621  0.0256  0.1008
12310TIP3   OH258420   3.477   3.130  16.923 -0.4667  0.3827 -0.0394
12310TIP3    H158421   3.502   3.049  16.967 -1.6040 -0.0666 -0.1855
12310TIP3    H258422   3.557   3.183  16.924  0.8384 -1.3988 -1.4440
12311TIP3   OH258423   3.915   5.543  11.782  0.4345 -0.5312 -0.3986
12311TIP3    H158424   3.884   5.509  11.867 -0.0240  0.4163 -0.1802
12311TIP3    H258425   3.883   5.633  11.779  1.9555  0.0278 -0.8022
12312TIP3   OH258426   3.695   3.232   6.384 -0.0930  0.3474  0.5006
12312TIP3    H158427   3.765   3.208   6.323 -1.0362 -0.1054 -0.4454
12312TIP3    H258428   3.685   3.157   6.441 -1.5287 -0.6821 -1.0258
12313TIP3   OH258429   1.792   5.091   4.478  0.1377  0.3459 -0.1915
12313TIP3    H158430   1.742   5.019   4.439  0.4656  0.3157 -0.5554
12313TIP3    H258431   1.880   5.080   4.445 -0.1044  1.7508 -1.3939
12314TIP3   OH258432   4.609   0.554   4.119 -0.0445 -0.3765 -0.1606
12314TIP3    H158433   4.518   0.528   4.106 -0.7889  2.1526 -0.4823
12314TIP3    H258434   4.651   0.476   4.155 -1.8598 -2.2198 -1.7872
12315TIP3   OH258435   0.690   2.605   0.895  0.4217 -0.0910 -0.2331
12315TIP3    H158436   0.711   2.544   0.825 -0.3486  2.3913 -2.7844
12315TIP3    H258437   0.750   2.679   0.882  0.0809  0.5591  1.5882
12316TIP3   OH258438   5.721   5.250  15.672 -0.1339  0.1572 -0.3878
12316TIP3    H158439   5.758   5.165  15.697 -0.4177  0.1785  0.1148
12316TIP3    H258440   5.756   5.267  15.585  0.1278 -0.3582 -0.3843
12317TIP3   OH258441   0.675   6.690   5.704  0.1189 -0.2655  0.9453
12317TIP3    H158442   0.680   6.757   5.637  1.6245 -0.3079  0.9778
12317TIP3    H258443   0.707   6.733   5.784  0.5109 -0.8356  1.1040
12318TIP3   OH258444   5.022   3.975  13.276  0.1855 -0.2477  0.1269
12318TIP3    H158445   5.049   3.917  13.205 -2.3174  0.2468 -1.3600
12318TIP3    H258446   5.062   3.938  13.354  0.8388 -2.4220 -1.1654
12319TIP3   OH258447   1.817   0.551  14.500  0.3474  0.3704  0.5202
12319TIP3    H158448   1.874   0.526  14.574  1.5401 -0.0234 -0.4971
12319TIP3    H258449   1.771   0.629  14.531 -0.2089 -0.5592  2.1715
12320TIP3   OH258450   4.025   5.909   2.876 -0.7013  0.3565  0.5832
12320TIP3    H158451   4.006   5.833   2.931 -2.8555  0.4829  0.1170
12320TIP3    H258452   4.064   5.973   2.936  0.4639 -0.8125  1.1297
12321TIP3   OH258453   5.563   5.844   4.964 -0.6642  0.0526 -0.0003
12321TIP3    H158454   5.582   5.852   5.058  1.2597  1.3091 -0.4323
12321TIP3    H258455   5.485   5.898   4.951 -0.7242  0.1779  0.8227
12322TIP3   OH258456   4.230   4.859  17.139  0.7128  0.0764  0.1485
12322TIP3    H158457   4.223   4.936  17.083  0.8383 -0.9759 -1.3711
12322TIP3    H258458   4.300   4.881  17.201  2.6293  0.2059 -1.9532
12323TIP3   OH258459   3.979   1.524  13.260  1.0831 -0.6224  0.5864
12323TIP3    H158460   4.001   1.432  13.270  0.8658 -0.6822  0.5299
12323TIP3    H258461   4.017   1.566  13.337  1.3427 -0.7294  0.5169
12324TIP3   OH258462   1.442   2.661   3.742 -0.0711  0.3924  0.3686
12324TIP3    H158463   1.381   2.613   3.687  0.5886 -0.0295 -0.0055
12324TIP3    H258464   1.472   2.734   3.688  0.4229  0.0927  0.2280
12325TIP3   OH258465   2.042   4.494   6.424 -0.2591  0.7098 -0.2777
12325TIP3    H158466   1.963   4.519   6.473  0.1275  1.6575 -0.1189
12325TIP3    H258467   2.114   4.532   6.474  0.2538  0.4251 -0.7898
12326TIP3   OH258468   3.782   5.757  11.587 -0.5563 -0.1826  0.0452
12326TIP3    H158469   3.800   5.822  11.655  1.2815 -2.1822  1.6247
12326TIP3    H258470   3.826   5.791  11.509 -0.7044  1.0363  0.4730
12327TIP3   OH258471   0.885   2.528  10.947 -0.0833  0.1446  0.6347
12327TIP3    H158472   0.837   2.465  10.894 -1.0875  1.8145 -0.5252
12327TIP3    H258473   0.928   2.586  10.884  1.1184  0.4275  1.6627
12328TIP3   OH258474   5.947   0.139  12.679  0.0201 -0.9139  0.1456
12328TIP3    H158475   5.895   0.168  12.604  1.1379 -1.4916 -0.8823
12328TIP3    H258476   5.931   0.205  12.746 -0.1913  0.1765 -0.9502
12329TIP3   OH258477   4.357   2.305   0.211  0.0556 -0.4574  1.0110
12329TIP3    H158478   4.286   2.257   0.253 -0.8093 -1.5445 -1.5084
12329TIP3    H258479   4.435   2.251   0.225 -0.2975 -0.9989  0.8820
12330TIP3   OH258480   4.753   4.895   6.269  0.2715 -0.9707  0.2911
12330TIP3    H158481   4.798   4.853   6.342 -0.5701  0.4687  1.6843
12330TIP3    H258482   4.823   4.918   6.207  1.3327  0.1119  1.8366
12331TIP3   OH258483   2.839   0.630   3.849 -0.2087 -0.1846  0.0624
12331TIP3    H158484   2.747   0.656   3.839 -0.1781 -0.4612 -1.0205
12331TIP3    H258485   2.841   0.538   3.821  0.1437 -0.6199  1.4620
12332TIP3   OH258486   1.026   5.739  10.834  0.5003 -0.1996 -0.2781
12332TIP3    H158487   0.991   5.690  10.759 -0.1821 -0.8009  0.4192
12332TIP3    H258488   1.097   5.684  10.867 -0.9111 -1.2909  1.1262
12333TIP3   OH258489   4.437   4.816  11.557  0.1890  0.3797 -0.5484
12333TIP3    H158490   4.486   4.754  11.611  0.8458  1.1192 -0.2852
12333TIP3    H258491   4.463   4.795  11.467 -1.0911 -1.0178 -0.6473
12334TIP3   OH258492   1.206   5.000   0.893  0.0758 -0.0850 -0.0265
12334TIP3    H158493   1.254   5.023   0.972  1.3207  0.9668 -1.0349
12334TIP3    H258494   1.164   5.082   0.865 -2.7935 -1.0448  1.0570
12335TIP3   OH258495   0.957   2.160  14.864  0.5948 -0.5079  0.2721
12335TIP3    H158496   0.872   2.201  14.848  0.8647  0.8103  1.9576
12335TIP3    H258497   0.938   2.087  14.923  0.5386 -0.7657 -0.0601
12336TIP3   OH258498   6.782   4.783  15.441 -0.4749 -0.3567 -0.5534
12336TIP3    H158499   6.860   4.766  15.388 -0.1717 -2.1645  0.3604
12336TIP3    H258500   6.733   4.700  15.438 -1.1668 -0.0273  0.7824
12337TIP3   OH258501   3.006   1.792   5.059  0.4912 -0.5907 -0.2154
12337TIP3    H158502   3.055   1.767   5.137  1.0114 -0.8283 -0.6189
12337TIP3    H258503   2.983   1.884   5.074 -2.6837 -1.5585  1.9566
12338TIP3   OH258504   5.498   0.993  11.770  0.7176 -0.6706 -0.4655
12338TIP3    H158505   5.502   1.014  11.864  0.0238  0.0907 -0.5942
12338TIP3    H258506   5.504   1.078  11.727  0.3639 -0.9594 -1.0924
12339TIP3   OH258507   5.935   0.274  14.652  0.8871 -0.1269 -0.4618
12339TIP3    H158508   6.017   0.317  14.627  0.3192  1.8915  0.8805
12339TIP3    H258509   5.940   0.268  14.747  0.0971 -1.3651 -0.4772
12340TIP3   OH258510   6.464   3.846   4.778  0.2274  0.7867  0.4434
12340TIP3    H158511   6.500   3.931   4.752  0.5091  0.2499 -1.0103
12340TIP3    H258512   6.536   3.784   4.763 -0.2320  0.1782  0.7156
12341TIP3   OH258513   3.186   6.288   3.156 -0.3754  0.0176  0.0248
12341TIP3    H158514   3.192   6.261   3.065 -0.3267 -0.3457  0.1314
12341TIP3    H258515   3.176   6.206   3.205 -0.5003  0.2146  0.3366
12342TIP3   OH258516   2.828   1.439  13.147 -0.4113  0.0228 -0.1757
12342TIP3    H158517   2.832   1.362  13.203 -0.5746  1.0310  1.2988
12342TIP3    H258518   2.738   1.440  13.114 -0.7327  0.1658  0.6840
12343TIP3   OH258519   5.871   5.646   1.778 -0.7400  0.2510  0.0091
12343TIP3    H158520   5.825   5.695   1.847 -1.2288 -0.6097  0.3062
12343TIP3    H258521   5.813   5.573   1.757 -1.7643  1.8074 -3.0771
12344TIP3   OH258522   2.207   3.948  13.311 -0.4824 -0.1618  0.8221
12344TIP3    H158523   2.235   4.034  13.279 -0.1358 -1.3274 -2.3747
12344TIP3    H258524   2.246   3.941  13.398  3.5639  1.0827 -0.6336
12345TIP3   OH258525   6.622   6.129   5.577 -0.0816 -0.4263  0.3075
12345TIP3    H158526   6.530   6.135   5.553  0.2750  1.8191 -0.7547
12345TIP3    H258527   6.625   6.160   5.667 -0.4090 -1.0051  0.5239
12346TIP3   OH258528   5.086   4.243   3.529 -0.1709 -0.1566  0.3466
12346TIP3    H158529   5.017   4.263   3.465 -0.0550  2.4829  0.8983
12346TIP3    H258530   5.047   4.265   3.614  0.6201 -0.8349  0.9003
12347TIP3   OH258531   3.000   4.185  10.413 -0.2708 -0.1043  0.0099
12347TIP3    H158532   2.968   4.275  10.408  1.9164  0.6905 -0.8788
12347TIP3    H258533   2.949   4.137  10.347  0.4187  1.1466 -1.4934
12348TIP3   OH258534   5.813   2.249   2.247  0.2647 -0.5238 -0.0646
12348TIP3    H158535   5.781   2.285   2.165  1.2314  0.4142 -0.0389
12348TIP3    H258536   5.884   2.190   2.221 -0.4615 -1.4537 -0.0051
12349TIP3   OH258537   4.626   1.336  11.076 -0.5305 -0.1694 -0.3374
12349TIP3    H158538   4.686   1.349  11.002 -0.7199 -1.6209 -0.7817
12349TIP3    H258539   4.674   1.279  11.136  0.1170  1.9923  1.3162
12350TIP3   OH258540   2.376   5.003  16.681 -0.4078  0.1300 -0.2531
12350TIP3    H158541   2.314   5.034  16.747  0.2558 -1.3671  1.1685
12350TIP3    H258542   2.322   4.975  16.608 -1.3779 -0.3892  0.6364
12351TIP3   OH258543   5.668   1.083   0.336  0.2214 -0.9643 -0.6755
12351TIP3    H158544   5.590   1.135   0.316  0.1122 -0.9005 -0.0915
12351TIP3    H258545   5.653   1.000   0.291  0.1593 -0.6862 -1.1799
12352TIP3   OH258546   4.368   3.675   5.893  0.5118  0.2341 -0.5389
12352TIP3    H158547   4.452   3.631   5.884  0.1236 -0.6098 -0.1557
12352TIP3    H258548   4.355   3.685   5.988  1.3879  2.7883 -0.6051
12353TIP3   OH258549   0.773   0.824   0.785 -0.4452 -0.3463 -0.2009
12353TIP3    H158550   0.683   0.827   0.751 -0.4801 -1.2703 -0.2213
12353TIP3    H258551   0.812   0.907   0.757 -1.4879  0.3616  0.3713
12354TIP3   OH258552   3.519   3.915   1.934 -0.2154  0.4439  0.3809
12354TIP3    H158553   3.568   3.854   1.879 -1.3329  0.6195 -0.8444
12354TIP3    H258554   3.433   3.875   1.945 -1.1311  1.9606 -0.8296
12355TIP3   OH258555   2.255   0.636   4.900  1.4698  0.2609 -0.1714
12355TIP3    H158556   2.282   0.723   4.930  2.1284 -0.4989  1.5788
12355TIP3    H258557   2.304   0.622   4.819 -0.6718  2.5525 -2.0170
12356TIP3   OH258558   6.698   2.764  13.189  0.1876  0.4863  0.2522
12356TIP3    H158559   6.640   2.835  13.164 -0.4199 -0.0985 -0.0411
12356TIP3    H258560   6.666   2.688  13.140 -0.0517 -0.3217  1.5939
12357TIP3   OH258561   6.329   6.251  14.169  0.2285  0.2625 -0.5206
12357TIP3    H158562   6.235   6.262  14.182  0.5140 -0.5011  3.3095
12357TIP3    H258563   6.337   6.162  14.133 -0.5329 -0.6923  1.4574
12358TIP3   OH258564   3.168   2.059   3.063 -0.3398  0.4742  0.2880
12358TIP3    H158565   3.181   2.070   3.157  1.8995 -3.7922  0.7312
12358TIP3    H258566   3.076   2.034   3.055  0.1502 -2.2101  1.9048
12359TIP3   OH258567   5.449   0.168   0.071 -0.2111 -0.1313 -0.2592
12359TIP3    H158568   5.541   0.193   0.067 -0.1727 -0.2128  0.1029
12359TIP3    H258569   5.417   0.179  -0.019 -0.2731  1.5130 -0.0621
12360TIP3   OH258570   1.602   6.071  15.829 -0.0694 -0.1193  0.2505
12360TIP3    H158571   1.687   6.041  15.798  0.0095  0.1120  0.2407
12360TIP3    H258572   1.543   5.998  15.811 -0.2469  0.4191 -1.4415
12361TIP3   OH258573   4.252   3.183   3.839  0.1608 -0.1251 -0.2432
12361TIP3    H158574   4.262   3.234   3.759  1.6670 -3.0042 -2.0866
12361TIP3    H258575   4.341   3.177   3.875  0.2806 -2.3232 -0.7617
12362TIP3   OH258576   4.708   5.775  12.059  0.4302  0.1558 -0.3406
12362TIP3    H158577   4.783   5.755  12.004  1.5107  0.7525  0.8578
12362TIP3    H258578   4.700   5.870  12.056  2.1166  0.5096  2.4312
12363TIP3   OH258579   0.011   6.332  13.123 -0.0706 -0.0974  0.2341
12363TIP3    H158580   0.056   6.306  13.203  1.7229 -0.3328 -0.8032
12363TIP3    H258581  -0.049   6.260  13.104 -0.6042  0.0149  1.4076
12364TIP3   OH258582   5.081   0.137   2.034  0.1057 -0.3894 -0.0744
12364TIP3    H158583   4.998   0.129   1.988  0.6138 -0.5598 -0.9910
12364TIP3    H258584   5.113   0.225   2.012  0.8701 -0.8740 -0.9609
12365TIP3   OH258585   6.676   0.252   2.020 -0.0045 -0.2623 -0.2184
12365TIP3    H158586   6.726   0.171   2.028  0.4469  0.1220  1.1364
12365TIP3    H258587   6.627   0.257   2.103 -2.3232 -0.6339 -1.4917
12366TIP3   OH258588   3.506   1.526   5.066  0.0662  0.7053 -0.3752
12366TIP3    H158589   3.527   1.472   4.991 -0.4173  0.0505 -0.0490
12366TIP3    H258590   3.585   1.578   5.082  1.1893 -1.1453  0.3879
12367TIP3   OH258591   0.403   5.087   1.943  0.1331  0.3442 -0.9185
12367TIP3    H158592   0.407   4.991   1.948 -0.3850  0.3493 -0.2451
12367TIP3    H258593   0.422   5.107   1.851  0.5773 -0.3813 -0.9918
12368TIP3   OH258594   1.547   3.455   0.460  0.0228 -0.1232  0.3032
12368TIP3    H158595   1.575   3.516   0.528  2.8579 -2.0224  1.0366
12368TIP3    H258596   1.628   3.412   0.431 -1.3138 -0.7465 -2.9817
12369TIP3   OH258597   4.697   6.420   0.002 -0.3009  0.5139 -0.3697
12369TIP3    H158598   4.776   6.368   0.014 -1.3914 -0.7963  1.8078
12369TIP3    H258599   4.690   6.434  -0.092  1.0930 -1.6315 -0.8387
12370TIP3   OH258600   4.701   6.091  16.549 -0.0997 -0.7352  0.0180
12370TIP3    H158601   4.747   6.173  16.535  0.8134 -1.1758  0.3517
12370TIP3    H258602   4.617   6.102  16.503  0.0512  0.3273 -0.0325
12371TIP3   OH258603   6.668   2.421  11.370  0.5356  0.5803 -0.0207
12371TIP3    H158604   6.590   2.373  11.398 -0.0956  1.3234 -0.4904
12371TIP3    H258605   6.684   2.484  11.441  0.2156  0.9920 -0.3123
12372TIP3   OH258606   3.039   0.397   3.250  0.3118  0.1660  0.3915
12372TIP3    H158607   2.981   0.423   3.180  1.0534 -1.4341 -0.8913
12372TIP3    H258608   3.066   0.479   3.292 -2.5093  0.9599  0.8143
12373TIP3   OH258609   2.569   0.671  13.544  0.0597 -0.3786  0.8057
12373TIP3    H158610   2.514   0.731  13.594 -2.6213 -0.7315 -1.5051
12373TIP3    H258611   2.574   0.592  13.598 -1.2903 -0.1325  1.3281
12374TIP3   OH258612   6.170   5.113  12.840  0.4571 -0.3653 -0.4027
12374TIP3    H158613   6.110   5.042  12.861 -2.1412  2.1597  1.5152
12374TIP3    H258614   6.218   5.129  12.921 -1.6256  2.2600  0.4605
12375TIP3   OH258615   5.756   3.460  16.333 -0.4447 -1.0952  0.0530
12375TIP3    H158616   5.801   3.387  16.376 -0.1938 -1.6228 -1.0738
12375TIP3    H258617   5.663   3.439  16.341 -0.5271 -0.3407  1.7833
12376TIP3   OH258618   2.391   2.993   2.140  0.2078  0.3878 -0.0370
12376TIP3    H158619   2.333   3.068   2.133 -0.3118  0.3378  2.7017
12376TIP3    H258620   2.435   2.988   2.055 -1.4852  2.3089 -1.0987
12377TIP3   OH258621   3.218   1.832  15.102 -0.3560  0.1207  0.1596
12377TIP3    H158622   3.199   1.903  15.040  0.4818  1.3851  1.2790
12377TIP3    H258623   3.162   1.851  15.177  0.4399  0.0575  0.7846
12378TIP3   OH258624   5.854   0.325   2.243 -0.0448  0.0248 -0.4695
12378TIP3    H158625   5.862   0.351   2.334 -1.3601 -1.3654  0.0867
12378TIP3    H258626   5.855   0.408   2.194 -0.3402  0.8599  0.8898
12379TIP3   OH258627   4.427   0.808   5.385  0.0176 -0.1135 -0.5418
12379TIP3    H158628   4.395   0.886   5.340 -2.4210 -1.1492 -0.7425
12379TIP3    H258629   4.399   0.819   5.476 -3.4235 -2.1166 -1.1701
12380TIP3   OH258630   0.583   3.001   0.234 -0.6698  0.5838 -0.4640
12380TIP3    H158631   0.544   3.041   0.156 -0.2832  0.1966 -0.8635
12380TIP3    H258632   0.617   3.074   0.285 -0.3810  0.7978 -0.9577
12381TIP3   OH258633   0.802   0.286  14.969 -0.0024  0.1264  0.2202
12381TIP3    H158634   0.730   0.311  14.910  0.8953  0.3793 -0.7935
12381TIP3    H258635   0.879   0.327  14.931  0.9234 -1.2866  0.5180
12382TIP3   OH258636   1.066   4.445  10.834 -0.6403 -0.1758  0.4423
12382TIP3    H158637   1.075   4.375  10.768 -1.6572  0.3917 -0.3156
12382TIP3    H258638   0.994   4.416  10.890 -0.5346 -0.1096  0.6130
12383TIP3   OH258639   4.761   0.463   5.807 -0.3222 -0.0256  0.0052
12383TIP3    H158640   4.839   0.417   5.838 -0.8981 -0.5456  0.7133
12383TIP3    H258641   4.704   0.393   5.774  0.4036  0.5089 -2.6522
12384TIP3   OH258642   6.473   6.147  16.177 -0.8717  0.0329 -0.2146
12384TIP3    H158643   6.456   6.162  16.270  3.2246  0.2183  0.6785
12384TIP3    H258644   6.523   6.223  16.149  1.1935 -1.6808 -1.4859
12385TIP3   OH258645   2.917   4.050   4.193  0.4857 -0.1307  0.2882
12385TIP3    H158646   2.898   4.138   4.226 -1.0819 -1.2503  2.6930
12385TIP3    H258647   2.964   4.064   4.111 -0.0169  2.9282  0.4215
12386TIP3   OH258648   5.770   4.626   6.974  0.1482 -0.9888  0.2798
12386TIP3    H158649   5.690   4.575   6.986 -0.7427  0.3089  0.0394
12386TIP3    H258650   5.752   4.681   6.898  0.8649  0.0871  0.8642
12387TIP3   OH258651   2.604   5.167   4.691  0.1514 -0.6079  0.1304
12387TIP3    H158652   2.625   5.104   4.760  1.1365 -3.2065 -2.3525
12387TIP3    H258653   2.509   5.161   4.681  0.2683 -2.0122 -0.2872
12388TIP3   OH258654   5.722   6.367  16.314 -0.1051 -0.1233  0.1477
12388TIP3    H158655   5.659   6.325  16.372 -1.4538  1.3548 -0.1760
12388TIP3    H258656   5.772   6.426  16.370  1.8003 -2.0569  0.6038
12389TIP3   OH258657   6.500   3.372  12.642 -0.1978  0.2010  0.2778
12389TIP3    H158658   6.532   3.423  12.717 -1.7382  1.8343 -0.1147
12389TIP3    H258659   6.575   3.320  12.615  0.8078  0.6254  2.0783
12390TIP3   OH258660   4.006   3.791  11.185  0.2793 -0.1368 -0.5871
12390TIP3    H158661   4.013   3.841  11.103  1.7986  0.7111  0.0076
12390TIP3    H258662   4.064   3.717  11.172  1.1858  0.4479 -0.0021
12391TIP3   OH258663   2.523   1.846   4.342 -0.9435  0.0838  0.3140
12391TIP3    H158664   2.478   1.890   4.414  0.9544 -0.5260  1.9753
12391TIP3    H258665   2.562   1.917   4.291 -0.3863  0.4733  1.2524
12392TIP3   OH258666   0.529   4.273  12.190 -0.0239  0.0555  0.1618
12392TIP3    H158667   0.513   4.311  12.104 -1.1430  0.3620  0.4882
12392TIP3    H258668   0.466   4.316  12.247  1.5479  0.7972  1.4183
12393TIP3   OH258669   5.329   6.533   5.537 -0.0681 -0.3404  0.0992
12393TIP3    H158670   5.345   6.516   5.444 -0.1387 -1.5915  0.3022
12393TIP3    H258671   5.393   6.602   5.560 -0.2465  0.1792 -0.9286
12394TIP3   OH258672   1.164   0.598   5.587  0.6418 -0.1528 -0.6921
12394TIP3    H158673   1.231   0.619   5.653 -0.0201 -0.5095  0.1145
12394TIP3    H258674   1.213   0.589   5.505  1.6249 -0.7208 -0.0652
12395TIP3   OH258675   5.008   2.780   0.549 -0.0335 -0.4437 -0.1676
12395TIP3    H158676   4.945   2.814   0.485 -0.6054 -2.1550 -0.5813
12395TIP3    H258677   5.059   2.715   0.500 -0.3009 -1.6045  1.0156
12396TIP3   OH258678   3.043   1.262  15.015  0.1684 -0.1950 -0.7614
12396TIP3    H158679   2.950   1.265  15.036  0.5304 -1.6377  1.3483
12396TIP3    H258680   3.064   1.351  14.988 -1.8304  0.1201 -1.4878
12397TIP3   OH258681   5.561   3.862   3.256 -0.9994 -0.5085 -0.3873
12397TIP3    H158682   5.619   3.899   3.190  0.3015 -0.3171  0.8124
12397TIP3    H258683   5.480   3.912   3.248 -0.0189  1.1542 -0.2179
12398TIP3   OH258684   6.127   4.324  15.592 -0.4724 -0.0956  0.0378
12398TIP3    H158685   6.153   4.394  15.532  0.6457  0.5727  1.2414
12398TIP3    H258686   6.156   4.244  15.549 -2.7129  0.0209 -1.8598
12399TIP3   OH258687   3.131   4.941   0.495 -0.0253 -0.0816 -0.1818
12399TIP3    H158688   3.048   4.972   0.459  0.2632  0.8928 -0.0414
12399TIP3    H258689   3.197   4.995   0.452  0.3755  0.6533  1.2950
12400TIP3   OH258690   2.008   1.063   4.034 -0.2613 -0.0716  0.1377
12400TIP3    H158691   1.917   1.094   4.029 -0.5787 -1.1554 -1.0427
12400TIP3    H258692   2.014   1.021   4.120 -1.0416 -0.4812 -0.0016
12401TIP3   OH258693   1.500   4.415   1.156  0.4963 -0.0447 -0.4804
12401TIP3    H158694   1.511   4.456   1.242  1.0979 -0.8248 -0.1757
12401TIP3    H258695   1.520   4.485   1.093 -2.8236  1.4160 -0.0966
12402TIP3   OH258696   1.372   5.356  12.154 -0.1622 -0.1496 -0.3130
12402TIP3    H158697   1.360   5.449  12.169 -1.5869 -0.4193  0.3889
12402TIP3    H258698   1.445   5.350  12.092 -1.1413  1.4869 -1.6926
12403TIP3   OH258699   5.678   6.356  10.525 -0.5159  0.0264 -0.4103
12403TIP3    H158700   5.734   6.320  10.456  0.5307 -0.1626  0.5172
12403TIP3    H258701   5.709   6.445  10.537 -1.0839  0.2536 -0.5737
12404TIP3   OH258702   3.174   1.932   1.951 -0.2994 -0.4023 -0.3798
12404TIP3    H158703   3.256   1.926   1.999  0.3224 -1.3626 -1.4956
12404TIP3    H258704   3.197   1.904   1.862 -1.9400 -1.2080 -0.5779
12405TIP3   OH258705   5.263   2.692   1.794 -0.4076 -0.6274 -0.2194
12405TIP3    H158706   5.201   2.754   1.831 -1.6481 -1.0238 -1.5034
12405TIP3    H258707   5.219   2.607   1.803  0.3266 -1.0290 -0.3847
12406TIP3   OH258708   3.090   2.180   2.393 -0.0193  0.4204  0.2705
12406TIP3    H158709   3.098   2.138   2.308  0.3653 -0.4481  0.7223
12406TIP3    H258710   3.020   2.245   2.382 -1.2471 -0.9411 -0.2199
12407TIP3   OH258711   6.736   6.579  16.622 -0.4384 -0.0307  0.2439
12407TIP3    H158712   6.710   6.671  16.626  1.0594  0.4816 -0.9838
12407TIP3    H258713   6.803   6.576  16.554 -2.9268 -2.6217 -2.3823
12408TIP3   OH258714   0.864   0.414  10.706  0.0101  0.0851 -0.6840
12408TIP3    H158715   0.901   0.456  10.784  0.4739  0.2710 -1.0007
12408TIP3    H258716   0.893   0.323  10.714 -1.1715 -0.2468  0.1093
12409TIP3   OH258717   5.042   6.667  15.004 -0.0936  0.6658  0.1032
12409TIP3    H158718   4.957   6.710  15.000 -0.3981  0.0061 -0.4843
12409TIP3    H258719   5.026   6.584  15.049  0.2213  0.5033 -0.0755
12410TIP3   OH258720   2.610   1.146  12.414 -0.1912  0.2342 -0.1796
12410TIP3    H158721   2.556   1.132  12.336 -0.1407 -0.3642 -0.1151
12410TIP3    H258722   2.678   1.206  12.386  1.1389 -1.6497 -1.2460
12411TIP3   OH258723   6.248   3.783   0.192  0.2975 -0.2506 -0.4455
12411TIP3    H158724   6.261   3.716   0.259 -0.5991 -0.2553 -0.2590
12411TIP3    H258725   6.306   3.855   0.218  0.6931 -0.6480 -0.2235
12412TIP3   OH258726   0.170   1.705   5.323 -0.2756  1.1129 -0.1531
12412TIP3    H158727   0.129   1.755   5.394 -1.2145  0.7876 -0.4525
12412TIP3    H258728   0.147   1.753   5.244 -0.0023  0.9735 -0.3174
12413TIP3   OH258729   5.495   4.451  11.562  0.1651 -0.1581 -0.2361
12413TIP3    H158730   5.497   4.385  11.632 -2.2383 -0.7090 -0.6171
12413TIP3    H258731   5.499   4.535  11.608 -1.2460 -0.5176  0.5812
12414TIP3   OH258732   3.106   3.717   2.236 -0.3371 -0.3097  0.0428
12414TIP3    H158733   3.053   3.713   2.157  0.1937  0.4162 -0.3646
12414TIP3    H258734   3.109   3.627   2.268 -2.3810 -0.2729  0.4623
12415TIP3   OH258735   3.396   3.677  13.682  0.2811 -0.2637 -0.3879
12415TIP3    H158736   3.359   3.635  13.605 -1.2026 -0.0163  0.1430
12415TIP3    H258737   3.397   3.608  13.749 -0.3680  0.0319 -0.0614
12416TIP3   OH258738   1.534   5.990   1.347  0.0876 -0.3133  1.0536
12416TIP3    H158739   1.443   5.982   1.320 -0.1818  0.8969  1.5425
12416TIP3    H258740   1.575   6.045   1.281  0.0272  0.5913  1.7506
12417TIP3   OH258741   0.655   4.995   2.550  0.2525  0.2143 -0.0682
12417TIP3    H158742   0.591   4.986   2.621 -0.4402  0.5435 -0.6467
12417TIP3    H258743   0.622   5.067   2.496  1.7339  1.2115  0.2810
12418TIP3   OH258744   5.605   3.898   5.014  0.0858 -0.6918  0.1003
12418TIP3    H158745   5.548   3.893   4.936  0.5141  1.2988 -0.4117
12418TIP3    H258746   5.579   3.980   5.056  2.1615 -0.0047  0.1579
12419TIP3   OH258747   0.928   2.872  13.442  0.1017 -0.2482  0.2809
12419TIP3    H158748   0.932   2.785  13.401 -0.9403 -0.0195 -0.3364
12419TIP3    H258749   1.019   2.891  13.465  0.3340 -1.5722  0.5823
12420TIP3   OH258750   5.286   1.698  10.351  0.0424  0.3689 -0.2126
12420TIP3    H158751   5.225   1.721  10.421 -0.0269  0.2023 -0.2174
12420TIP3    H258752   5.351   1.768  10.352 -0.4250  0.8148 -0.5390
12421TIP3   OH258753   3.185   2.504  10.830  0.1096  0.1836 -0.7915
12421TIP3    H158754   3.232   2.437  10.880  0.7986  0.0268 -1.6361
12421TIP3    H258755   3.131   2.455  10.768 -1.5759  0.3403  0.4619
12422TIP3   OH258756   6.666   6.143  11.263 -0.1328 -0.2777  0.6415
12422TIP3    H158757   6.710   6.096  11.192 -1.3631 -0.0674 -0.2852
12422TIP3    H258758   6.662   6.233  11.233  0.7758  0.1420  1.7112
12423TIP3   OH258759   1.370   1.531   0.746  0.4311 -0.1390  0.0403
12423TIP3    H158760   1.330   1.462   0.799  0.9416 -1.1817 -0.8957
12423TIP3    H258761   1.298   1.590   0.726 -0.4313 -1.4096 -0.7122
12424TIP3   OH258762   2.126   2.234   1.709  0.3083  0.1946 -0.3641
12424TIP3    H158763   2.060   2.233   1.639  0.0326 -1.4169 -0.1247
12424TIP3    H258764   2.203   2.274   1.668 -0.2100  0.3305 -1.2406
12425TIP3   OH258765   5.662   5.064   6.387  0.2132 -0.8680 -0.4035
12425TIP3    H158766   5.602   4.992   6.368 -1.2199 -0.2784  1.5580
12425TIP3    H258767   5.734   5.022   6.435 -0.4582 -1.0598  0.4540
12426TIP3   OH258768   1.210   3.066  15.303 -0.0439 -0.0893 -0.0738
12426TIP3    H158769   1.294   3.108  15.323  0.4454 -1.6241  1.3956
12426TIP3    H258770   1.232   3.000  15.238 -0.5826  1.0621 -1.4625
12427TIP3   OH258771   6.736   6.007  15.351  0.1993  0.1614  0.2136
12427TIP3    H158772   6.649   5.968  15.358  0.2995  0.1614  1.6533
12427TIP3    H258773   6.721   6.093  15.312 -0.1541 -0.7583 -1.8280
12428TIP3   OH258774   1.673   5.256   5.468  0.1179  0.0168 -0.2821
12428TIP3    H158775   1.604   5.194   5.491  0.4830  0.1156  1.2006
12428TIP3    H258776   1.707   5.286   5.552  1.8450  0.1037 -0.9700
12429TIP3   OH258777   5.199   3.080  14.761 -0.0172  0.1163 -0.0448
12429TIP3    H158778   5.257   3.007  14.741  0.0968  0.2558 -0.2282
12429TIP3    H258779   5.184   3.074  14.855  0.3075  0.0935  0.0047
12430TIP3   OH258780   6.735   4.095   6.088 -0.0295  0.1342  0.5977
12430TIP3    H158781   6.759   4.153   6.160  2.0773  0.3180 -0.1726
12430TIP3    H258782   6.781   4.130   6.012 -2.9455  0.5208 -1.1456
12431TIP3   OH258783   3.321   2.612  11.585  0.0721 -0.2132 -0.3586
12431TIP3    H158784   3.405   2.580  11.620  0.8484  2.6420  0.6932
12431TIP3    H258785   3.255   2.574  11.643  1.0879  1.4427  2.0947
12432TIP3   OH258786   0.920   5.515   5.828 -0.4325 -0.1933 -0.6220
12432TIP3    H158787   0.951   5.433   5.789  0.0159  0.0048 -0.6868
12432TIP3    H258788   0.882   5.490   5.912 -1.6732 -0.6689 -1.3044
12433TIP3   OH258789   0.153   4.217   3.180 -0.2655  0.0433 -0.6384
12433TIP3    H158790   0.141   4.186   3.270 -0.8121 -1.7262 -1.2734
12433TIP3    H258791   0.073   4.191   3.134  0.7390 -0.7289 -2.0456
12434TIP3   OH258792   4.666   4.643   3.641 -0.1480 -0.1930  0.2639
12434TIP3    H158793   4.699   4.581   3.576 -0.1324  0.3796 -0.2851
12434TIP3    H258794   4.599   4.595   3.689 -0.2249 -0.5942 -0.2428
12435TIP3   OH258795   2.006   5.622   4.521  0.3742 -0.7494 -0.0955
12435TIP3    H158796   1.971   5.669   4.597  0.2128 -2.8364  1.1816
12435TIP3    H258797   2.101   5.636   4.526  0.2862 -0.1100 -0.0787
12436TIP3   OH258798   0.547   0.666  13.292 -0.0210 -0.7043 -0.0508
12436TIP3    H158799   0.625   0.629  13.251  0.3293  0.0128 -0.0290
12436TIP3    H258800   0.547   0.758  13.267  0.2076 -0.2459  1.5389
12437TIP3   OH258801   4.686   5.979  13.671  0.7436  0.3953 -0.8274
12437TIP3    H158802   4.759   5.947  13.617  1.3810 -0.1710  0.3389
12437TIP3    H258803   4.632   6.029  13.610  0.5043 -1.6345 -2.4182
12438TIP3   OH258804   2.938   2.144  14.761 -0.2320 -0.0825  0.5828
12438TIP3    H158805   2.848   2.159  14.730  0.0407  0.2340 -0.0796
12438TIP3    H258806   2.991   2.145  14.682  0.4887  0.7667  1.0585
12439TIP3   OH258807   0.746   2.387   0.718  0.0115 -0.5304  0.0451
12439TIP3    H158808   0.753   2.297   0.688 -0.7818 -1.3327  2.1303
12439TIP3    H258809   0.819   2.432   0.675  0.4596 -2.1593 -0.9793
12440TIP3   OH258810   6.024   2.365  14.164 -0.3133 -0.2864  0.2226
12440TIP3    H158811   6.045   2.410  14.246  0.9251 -1.7412  0.7575
12440TIP3    H258812   6.096   2.387  14.105  0.0201 -1.0865  0.3125
12441TIP3   OH258813   1.807   2.101  17.106  0.4402 -0.1037  0.0459
12441TIP3    H158814   1.863   2.166  17.065  0.4313 -0.3236 -0.3159
12441TIP3    H258815   1.834   2.017  17.068  0.4535 -0.3119  0.5081
12442TIP3   OH258816   1.112   2.647   4.288 -0.4204  0.1619  0.4459
12442TIP3    H158817   1.191   2.594   4.304  0.8013  1.3859 -1.1771
12442TIP3    H258818   1.080   2.670   4.375 -0.3460 -2.2246  1.1970
12443TIP3   OH258819   2.186   4.254   3.903 -0.6459  0.3802  0.3443
12443TIP3    H158820   2.189   4.343   3.866 -0.5068  0.7706  1.2664
12443TIP3    H258821   2.096   4.242   3.930 -0.3841  0.7589  1.4266
12444TIP3   OH258822   2.895   1.562   2.684  0.0464 -0.3831 -0.2921
12444TIP3    H158823   2.818   1.619   2.693 -0.7716 -1.7321  2.1814
12444TIP3    H258824   2.969   1.621   2.690 -0.7766  0.7758 -1.0898
12445TIP3   OH258825   4.578   2.090   4.172  0.4774 -0.4399  0.4317
12445TIP3    H158826   4.540   2.032   4.106  0.4452 -0.5345  0.5325
12445TIP3    H258827   4.621   2.159   4.122 -2.1697  1.2425  0.2913
12446TIP3   OH258828   0.326   5.632   1.291  0.0561  0.0088  0.6258
12446TIP3    H158829   0.359   5.681   1.366  0.8647 -1.0022  0.9440
12446TIP3    H258830   0.361   5.544   1.302 -2.4941 -1.0611  0.8034
12447TIP3   OH258831   1.253   1.589   4.485  0.8634  0.1645 -0.2920
12447TIP3    H158832   1.323   1.586   4.420 -0.5563 -2.1789 -1.8232
12447TIP3    H258833   1.265   1.510   4.537 -0.3714 -0.0201 -0.2725
12448TIP3   OH258834   5.631   5.799   0.299 -0.2309  0.2676  0.4057
12448TIP3    H158835   5.621   5.894   0.302 -0.5727  0.2160  1.6710
12448TIP3    H258836   5.675   5.782   0.216 -2.5817  1.2870 -1.1484
12449TIP3   OH258837   6.627   0.580  13.936  0.5104 -0.6581 -0.0052
12449TIP3    H158838   6.625   0.536  14.021 -0.3545 -0.2803  0.1855
12449TIP3    H258839   6.589   0.516  13.875 -1.2464 -0.0336  0.3659
12450TIP3   OH258840   1.279   2.522   4.950  0.4815 -0.7697 -0.0492
12450TIP3    H158841   1.320   2.595   4.904  0.1302 -1.6604 -1.8892
12450TIP3    H258842   1.298   2.445   4.895 -3.1349 -1.3175 -0.8051
12451TIP3   OH258843   5.553   4.131   5.759  0.0528 -0.2691 -0.1679
12451TIP3    H158844   5.491   4.129   5.832 -0.0634  1.0212 -0.1935
12451TIP3    H258845   5.551   4.043   5.723 -0.6517 -0.6512  0.7596
12452TIP3   OH258846   0.293   3.510  15.532 -0.6510 -0.2473  0.3079
12452TIP3    H158847   0.252   3.471  15.609 -2.3336 -0.2898 -0.5512
12452TIP3    H258848   0.220   3.550  15.484  0.4856  0.5851 -0.7892
12453TIP3   OH258849   3.882   1.738  15.953  0.1201 -0.4518  0.4668
12453TIP3    H158850   3.899   1.763  15.862  0.9995  2.6162  1.3452
12453TIP3    H258851   3.942   1.665  15.969  1.7028  0.4885 -0.7886
12454TIP3   OH258852   2.213   6.560   2.653 -0.1727  0.4667  0.4083
12454TIP3    H158853   2.202   6.655   2.660  0.8252  0.5761  0.7692
12454TIP3    H258854   2.232   6.532   2.743 -1.0642 -0.1660  0.4031
12455TIP3   OH258855   4.480   4.374  15.347  0.7663 -0.4662 -0.0817
12455TIP3    H158856   4.415   4.333  15.290 -1.7646  0.4350  1.9435
12455TIP3    H258857   4.505   4.305  15.408  0.6228 -0.4442  0.0036
12456TIP3   OH258858   3.243   2.002  11.380  0.3249 -0.6066  0.0799
12456TIP3    H158859   3.263   1.928  11.438  0.8530 -1.1033 -0.7097
12456TIP3    H258860   3.260   1.968  11.292 -0.5561  0.1016 -0.3794
12457TIP3   OH258861   6.795   5.036  12.461  0.4894 -0.0551  0.2341
12457TIP3    H158862   6.771   5.057  12.370  0.9893  0.3140  0.1859
12457TIP3    H258863   6.732   5.084  12.514 -0.4775 -1.1067  0.0787
12458TIP3   OH258864   0.915   0.421   1.026  0.0378 -0.3815  0.2201
12458TIP3    H158865   0.909   0.423   0.931  0.5529  1.4661  0.2023
12458TIP3    H258866   0.946   0.332   1.046 -0.1911 -0.8322 -1.3051
12459TIP3   OH258867   1.295   6.090   0.449  0.0529 -0.1870 -0.1408
12459TIP3    H158868   1.291   6.157   0.517  0.2848 -0.5339  0.2143
12459TIP3    H258869   1.323   6.138   0.370 -0.7348  0.3090 -0.1303
12460TIP3   OH258870   2.711   4.092  13.173  0.5135 -0.1232  0.3152
12460TIP3    H158871   2.749   4.008  13.147  1.8145  0.2687  0.8785
12460TIP3    H258872   2.712   4.145  13.094 -1.1412 -0.8928 -0.2755
12461TIP3   OH258873   3.973   5.197   1.302  0.6415 -0.3378  0.4958
12461TIP3    H158874   3.960   5.106   1.328  1.3938 -0.4538  0.5074
12461TIP3    H258875   4.055   5.222   1.345  0.6395  0.2263  0.1812
12462TIP3   OH258876   0.119   5.041  15.210  0.2236  0.3836 -0.2919
12462TIP3    H158877   0.124   4.952  15.245  0.6795  1.0511  1.4156
12462TIP3    H258878   0.106   5.097  15.287 -2.9434  1.5959 -1.5339
12463TIP3   OH258879   0.195   4.602  14.782 -0.4694  0.0706  0.0297
12463TIP3    H158880   0.208   4.680  14.836  0.9224 -0.4411  0.4758
12463TIP3    H258881   0.214   4.632  14.692 -1.9065  0.7034 -0.0871
12464TIP3   OH258882   5.717   6.454  12.576 -0.3972  0.7179 -0.1708
12464TIP3    H158883   5.716   6.549  12.579  1.4366  0.7564  0.3747
12464TIP3    H258884   5.779   6.428  12.644 -0.0301 -0.8096 -1.0325
12465TIP3   OH258885   0.140   2.847  15.722 -0.0161 -0.0269 -0.4160
12465TIP3    H158886   0.215   2.901  15.699  0.1455  0.6965  1.6355
12465TIP3    H258887   0.150   2.768  15.669  2.4645 -0.1560  0.1317
12466TIP3   OH258888   0.839   3.739  10.921  0.6417  0.4318  0.0459
12466TIP3    H158889   0.835   3.653  10.964  0.0995 -0.4266 -1.6392
12466TIP3    H258890   0.761   3.742  10.866 -0.3273  2.7824  1.3868
12467TIP3   OH258891   6.051   6.607   2.651  0.3050  0.0934  0.0969
12467TIP3    H158892   5.958   6.629   2.649  0.4776  0.9697  1.1724
12467TIP3    H258893   6.091   6.672   2.708  1.7134  0.1849 -0.9263
12468TIP3   OH258894   1.275   6.381   4.884  0.0474  0.3101  0.1338
12468TIP3    H158895   1.236   6.328   4.954 -0.5005  1.3769  0.6591
12468TIP3    H258896   1.369   6.380   4.902 -0.2224  2.1517  2.0866
12469TIP3   OH258897   5.269   3.046  12.385 -0.2454 -0.1200 -0.2540
12469TIP3    H158898   5.312   3.129  12.400  1.5376 -1.0420 -0.0172
12469TIP3    H258899   5.301   3.017  12.300 -0.6426 -0.6892 -0.2169
12470TIP3   OH258900   5.213   3.952  16.165 -0.4388 -0.0378 -0.1876
12470TIP3    H158901   5.280   3.894  16.128 -1.4795 -2.1988  1.1000
12470TIP3    H258902   5.244   3.970  16.254 -0.1498  1.4044 -0.5605
12471TIP3   OH258903   3.651   3.398   0.153  0.2894  0.7118 -0.1633
12471TIP3    H158904   3.598   3.477   0.143  1.8625  1.8161 -0.1769
12471TIP3    H258905   3.706   3.397   0.074 -0.0687 -0.7000 -0.4177
12472TIP3   OH258906   6.364   1.835   1.056  0.2252  0.4889 -0.5405
12472TIP3    H158907   6.394   1.779   1.128  1.9234 -1.9113 -2.8906
12472TIP3    H258908   6.280   1.798   1.031 -0.4538  1.4395  0.2598
12473TIP3   OH258909   3.086   2.761  11.381  0.1748 -0.1635 -0.0770
12473TIP3    H158910   3.036   2.682  11.403  1.3864 -0.5596  1.4244
12473TIP3    H258911   3.087   2.811  11.462  2.8736 -0.5632  0.2089
12474TIP3   OH258912   2.982   6.527   0.281 -0.3287 -0.4242 -0.3189
12474TIP3    H158913   3.069   6.566   0.290 -1.0425  0.9686  0.8576
12474TIP3    H258914   2.975   6.467   0.355  0.0809 -1.5026 -1.1237
12475TIP3   OH258915   2.344   3.949   5.141 -0.7622  0.3066  0.2385
12475TIP3    H158916   2.275   3.891   5.173 -1.1953 -0.0983 -1.3114
12475TIP3    H258917   2.425   3.901   5.156 -0.9642  0.0571  0.5380
12476TIP3   OH258918   5.815   4.537   5.177  0.1694  0.3474  0.0552
12476TIP3    H158919   5.722   4.517   5.187  0.2482  0.8986  2.5209
12476TIP3    H258920   5.859   4.454   5.191  0.0721 -0.1789 -2.3394
12477TIP3   OH258921   5.674   5.615   2.582  0.1117  0.0748 -0.7843
12477TIP3    H158922   5.638   5.703   2.590 -2.1948 -0.9443  1.9834
12477TIP3    H258923   5.618   5.571   2.518 -1.1555 -0.3202  0.5165
12478TIP3   OH258924   2.363   2.929  12.864  0.0542 -0.3687 -0.1631
12478TIP3    H158925   2.338   2.878  12.786 -2.0650 -0.1627  0.3254
12478TIP3    H258926   2.445   2.971  12.839 -0.4484 -0.4881 -2.2156
12479TIP3   OH258927   0.859   2.603   2.964  0.3637  0.1947 -0.0788
12479TIP3    H158928   0.774   2.635   2.993  0.7332 -0.5805  2.0414
12479TIP3    H258929   0.846   2.509   2.950  0.7753  0.1468 -0.1472
12480TIP3   OH258930   6.643   2.891  15.801 -0.5873 -0.4084  0.3394
12480TIP3    H158931   6.669   2.965  15.745 -1.6353 -0.9266 -0.8829
12480TIP3    H258932   6.695   2.902  15.881  1.0311  0.3232 -0.7536
12481TIP3   OH258933   4.659   6.099  14.205 -0.6478 -0.0761  0.0034
12481TIP3    H158934   4.695   6.172  14.255 -0.5590  0.1346 -0.3693
12481TIP3    H258935   4.635   6.034  14.271 -0.3049  0.1039  0.3022
12482TIP3   OH258936   0.621   3.075  15.091  0.7658  0.3129  0.0691
12482TIP3    H158937   0.557   3.004  15.099  0.0629  0.8387 -0.7509
12482TIP3    H258938   0.705   3.030  15.080  0.3252 -0.4019 -0.4575
12483TIP3   OH258939   5.478   2.245   1.720  0.8474  0.0786  0.0007
12483TIP3    H158940   5.415   2.192   1.770 -0.6215  0.0672 -1.7703
12483TIP3    H258941   5.507   2.312   1.783 -1.0590  0.1732  0.8561
12484TIP3   OH258942   5.901   4.068  14.946 -0.4802  0.2543  0.0285
12484TIP3    H158943   5.994   4.077  14.925 -0.4186 -1.1314 -0.3842
12484TIP3    H258944   5.890   4.117  15.028  0.4574  1.0233 -0.2880
12485TIP3   OH258945   3.218   0.551  13.415 -0.2449  0.4604  0.5523
12485TIP3    H158946   3.217   0.559  13.320 -2.2041  2.1333  0.6428
12485TIP3    H258947   3.233   0.458  13.432 -0.7177 -0.0040 -1.3868
12486TIP3   OH258948   3.380   4.205  17.253  0.4602  0.2327 -0.0500
12486TIP3    H158949   3.374   4.111  17.269  1.6367  0.0667 -0.4415
12486TIP3    H258950   3.406   4.243  17.337 -0.7251  0.3185  0.2985
12487TIP3   OH258951   2.053   4.246  16.387 -0.3077  0.1458 -0.0465
12487TIP3    H158952   2.098   4.284  16.311 -0.9471  0.8878 -0.0719
12487TIP3    H258953   2.057   4.315  16.454  0.1257 -0.4482  0.5537
12488TIP3   OH258954   0.518   1.701  17.258  0.5632  1.0811 -0.3761
12488TIP3    H158955   0.594   1.711  17.316 -0.5952 -0.6070  1.5824
12488TIP3    H258956   0.442   1.712  17.316 -0.6723 -2.0328 -1.1664
12489TIP3   OH258957   5.666   3.132   5.601  0.0728  0.1169 -0.3056
12489TIP3    H158958   5.650   3.042   5.574  0.5277 -0.7704  2.0733
12489TIP3    H258959   5.761   3.136   5.616 -0.0881  0.6584  0.6528
12490TIP3   OH258960   0.140   6.761  12.957 -0.2752  0.1234  0.1200
12490TIP3    H158961   0.193   6.838  12.977  0.8602 -0.7096  0.4149
12490TIP3    H258962   0.135   6.712  13.039  0.5695 -1.0291 -0.4843
12491TIP3   OH258963   5.276   1.640   1.463  0.2792  0.5499 -0.1633
12491TIP3    H158964   5.294   1.550   1.490  1.3813  1.0005  0.6556
12491TIP3    H258965   5.236   1.681   1.540 -1.5033  0.4128 -0.9701
12492TIP3   OH258966   4.189   5.151  11.308  0.6552 -0.1947  0.0559
12492TIP3    H158967   4.252   5.110  11.367  0.8272 -0.5284 -0.3543
12492TIP3    H258968   4.197   5.102  11.226  0.2596  0.1183 -0.1751
12493TIP3   OH258969   6.014   3.839  15.940 -0.4302 -0.2938 -0.5238
12493TIP3    H158970   5.985   3.770  15.880  3.1025 -2.2359 -0.2532
12493TIP3    H258971   5.973   3.816  16.023 -2.1052  0.0762 -1.1963
12494TIP3   OH258972   4.542   0.515  11.440 -0.2871  0.2471 -0.4779
12494TIP3    H158973   4.628   0.493  11.404 -1.0235 -2.7032 -0.6530
12494TIP3    H258974   4.499   0.564  11.370  0.4255 -0.2450 -1.2770
12495TIP3   OH258975   1.500   1.284   2.578  0.2059 -0.2341 -0.4186
12495TIP3    H158976   1.434   1.220   2.550  0.7118 -0.4127 -1.2533
12495TIP3    H258977   1.506   1.346   2.505  0.8573 -0.1471 -0.3008
12496TIP3   OH258978   5.894   6.551  12.098  0.7283 -0.1145  0.0967
12496TIP3    H158979   5.851   6.471  12.125  1.1009 -1.2045 -2.2684
12496TIP3    H258980   5.985   6.540  12.125  0.6782 -0.2607  0.2040
12497TIP3   OH258981   3.148   3.061  12.649  0.2285 -0.3690  0.2121
12497TIP3    H158982   3.144   3.153  12.676  0.3647 -0.7606  1.6372
12497TIP3    H258983   3.214   3.022  12.706 -0.5623 -1.5856  0.3317
12498TIP3   OH258984   6.361   3.827  14.498 -0.4118  0.0405 -0.4326
12498TIP3    H158985   6.310   3.872  14.565 -1.3900 -2.4373  0.6165
12498TIP3    H258986   6.329   3.737  14.500  1.5041 -0.7713 -2.3088
12499TIP3   OH258987   3.908   4.244   4.934 -0.4544 -0.2812  0.1408
12499TIP3    H158988   3.850   4.214   5.005  0.7178 -1.6029  0.5989
12499TIP3    H258989   3.977   4.291   4.979 -1.1555  1.3221 -0.4108
12500TIP3   OH258990   0.898   4.080   1.777  0.2057  0.0233  0.9617
12500TIP3    H158991   0.890   3.985   1.784  0.8000 -0.2530 -1.2721
12500TIP3    H258992   0.807   4.111   1.769  0.0262 -0.3851  1.3813
12501TIP3   OH258993   4.315   3.669   0.925  0.0533  0.2900  0.0896
12501TIP3    H158994   4.293   3.611   0.998 -1.3248 -0.3936 -0.8289
12501TIP3    H258995   4.404   3.644   0.900 -0.1923 -0.8349  0.2799
12502TIP3   OH258996   2.536   4.745   4.027  0.0010 -0.3109 -0.1304
12502TIP3    H158997   2.447   4.755   3.994 -0.2760  0.7217  0.8771
12502TIP3    H258998   2.546   4.814   4.092  0.3471 -2.4833  2.3045
12503TIP3   OH258999   3.773   5.881  12.605  0.3223  0.5318 -0.2012
12503TIP3    H159000   3.763   5.847  12.694  2.7152 -1.2441 -0.5157
12503TIP3    H259001   3.868   5.884  12.591  0.0752  2.6075 -2.0568
12504TIP3   OH259002   0.450   3.293   6.775  0.0394 -0.0501 -0.3254
12504TIP3    H159003   0.425   3.236   6.703  0.8243 -0.9290  0.0744
12504TIP3    H259004   0.367   3.327   6.809 -0.7107 -2.8827  0.9890
12505TIP3   OH259005   6.091   3.489  12.242  0.4077 -0.0135 -0.4039
12505TIP3    H159006   6.164   3.439  12.204  0.6912 -0.0311  0.1527
12505TIP3    H259007   6.133   3.553  12.299  0.0643  1.2532 -1.5443
12506TIP3   OH259008   4.053   5.826   5.223 -0.3693  0.4568  0.6543
12506TIP3    H159009   4.034   5.813   5.130  1.1742  1.4195  0.1599
12506TIP3    H259010   3.980   5.879   5.255 -0.1272  1.4819 -0.4204
12507TIP3   OH259011   4.653   4.084   2.456  0.2975 -0.0735 -0.6649
12507TIP3    H159012   4.615   4.050   2.375 -0.0544 -0.0824 -0.4973
12507TIP3    H259013   4.596   4.051   2.525  0.7572 -0.2946 -0.3876
12508TIP3   OH259014   1.153   1.650   0.638 -0.3713 -0.1987  0.7074
12508TIP3    H159015   1.145   1.647   0.542  0.0219  0.8557  0.6262
12508TIP3    H259016   1.139   1.742   0.660  1.9072  0.0384  1.4384
12509TIP3   OH259017   2.132   2.131   2.369 -0.3305 -0.3548 -0.0454
12509TIP3    H159018   2.133   2.225   2.353 -0.7983 -0.3942 -0.3127
12509TIP3    H259019   2.179   2.120   2.452  0.4384  0.0357 -0.4143
12510TIP3   OH259020   6.420   2.851   6.043  0.0322  0.3774 -0.5320
12510TIP3    H159021   6.448   2.839   5.952 -0.0391  1.8557 -0.7642
12510TIP3    H259022   6.500   2.875   6.090  0.1635 -0.8466 -0.0801
12511TIP3   OH259023   5.566   5.798   3.455 -0.1546  0.4121  0.0862
12511TIP3    H159024   5.633   5.828   3.393 -0.6021  0.5480 -0.3352
12511TIP3    H259025   5.611   5.796   3.539  0.8023 -0.9308 -0.4218
12512TIP3   OH259026   6.069   3.789  13.544  0.0205  0.1284  0.0357
12512TIP3    H159027   6.036   3.808  13.456  0.7341 -1.5974 -0.6402
12512TIP3    H259028   6.157   3.826  13.546  0.3850 -0.6868 -0.3478
12513TIP3   OH259029   6.271   4.883   0.889 -0.3565  0.2967  0.1631
12513TIP3    H159030   6.337   4.830   0.933  0.7001  0.1174 -1.5205
12513TIP3    H259031   6.319   4.959   0.857 -0.5977 -0.4549 -2.2153
12514TIP3   OH259032   3.096   3.564   5.247 -0.0649 -0.4668 -0.0865
12514TIP3    H159033   3.065   3.536   5.333  0.8615 -1.1432  0.0443
12514TIP3    H259034   3.178   3.610   5.265  0.1438 -0.6305 -0.6028
12515TIP3   OH259035   4.150   2.836  15.631  0.5033  0.2992 -0.5118
12515TIP3    H159036   4.223   2.891  15.659 -0.0046  0.0722  1.4149
12515TIP3    H259037   4.078   2.897  15.615 -0.2775  0.2674  2.3209
12516TIP3   OH259038   0.110   1.751   1.757 -0.1373 -0.6218  0.4953
12516TIP3    H159039   0.058   1.782   1.683  0.2210 -0.2605  0.3874
12516TIP3    H259040   0.049   1.748   1.831 -0.1098  0.7458  0.6031
12517TIP3   OH259041   6.594   6.000  12.660  0.0333 -0.0487  0.6566
12517TIP3    H159042   6.669   5.949  12.631 -0.2404  0.7916 -1.7314
12517TIP3    H259043   6.596   5.994  12.756  1.9954 -1.6136  0.5683
12518TIP3   OH259044   0.784   4.648  12.005 -0.0526  0.2541  0.0939
12518TIP3    H159045   0.763   4.729  12.051 -1.7050 -0.4976  0.7271
12518TIP3    H259046   0.857   4.672  11.948 -1.2127  2.4886 -0.5996
12519TIP3   OH259047   1.275   3.290  13.680  0.0495 -0.5682  0.2266
12519TIP3    H159048   1.356   3.245  13.703  0.8942  0.5314 -0.5253
12519TIP3    H259049   1.274   3.369  13.734  0.1028  0.0455 -0.6457
12520TIP3   OH259050   4.992   6.307  14.537 -0.3118 -0.2013  0.7012
12520TIP3    H159051   4.974   6.372  14.469 -1.7795 -0.5957  0.6678
12520TIP3    H259052   4.993   6.224  14.491 -1.0726 -0.4474  1.1035
12521TIP3   OH259053   6.526   1.658   1.627  0.5009  0.0522  0.0394
12521TIP3    H159054   6.453   1.681   1.570 -0.1954 -1.5751  0.2368
12521TIP3    H259055   6.587   1.611   1.570 -0.6901 -2.5423  0.7837
12522TIP3   OH259056   6.517   5.583   3.257 -0.7982  0.5925 -0.6193
12522TIP3    H159057   6.591   5.623   3.303  0.8477 -1.8620 -0.9752
12522TIP3    H259058   6.539   5.591   3.164 -1.3753  0.5424 -0.7681
12523TIP3   OH259059   6.678   3.681   4.697 -0.2973  0.0469  0.1079
12523TIP3    H159060   6.733   3.724   4.762 -1.5506  1.5922  0.1933
12523TIP3    H259061   6.711   3.711   4.612  0.2874 -0.6859  0.0563
12524TIP3   OH259062   3.124   5.933   3.554  0.3647 -0.0176  0.5294
12524TIP3    H159063   3.144   5.840   3.554 -2.4751 -0.7512 -1.0949
12524TIP3    H259064   3.100   5.952   3.645 -0.1242 -1.1792  0.6601
12525TIP3   OH259065   3.544   0.985   5.326 -0.3182  0.2270  0.0426
12525TIP3    H159066   3.455   0.950   5.324 -0.4124  0.4792 -0.6240
12525TIP3    H259067   3.580   0.961   5.240  0.5648 -0.6526  0.6330
12526TIP3   OH259068   1.712   6.621  11.591 -0.4139 -0.5800 -0.1124
12526TIP3    H159069   1.735   6.532  11.620 -0.3765 -0.7870 -0.7755
12526TIP3    H259070   1.752   6.630  11.505 -1.7254 -0.4962 -0.7403
12527TIP3   OH259071   6.797   1.708  16.794 -0.2396 -0.1193 -0.2553
12527TIP3    H159072   6.799   1.796  16.830  0.5468  0.3039 -1.2917
12527TIP3    H259073   6.722   1.666  16.837 -0.2210  0.8284  0.7320
12528TIP3   OH259074   3.597   0.119   4.615  0.1677 -0.2842 -0.4831
12528TIP3    H159075   3.603   0.184   4.544 -2.2499  0.4068 -0.1414
12528TIP3    H259076   3.535   0.054   4.583  1.6578 -1.8447 -0.3280
12529TIP3   OH259077   3.892   5.233  16.274  0.2501 -0.0602 -0.7734
12529TIP3    H159078   3.979   5.203  16.247  0.0703 -0.3826 -1.0030
12529TIP3    H259079   3.903   5.326  16.293  0.8350 -0.2919  0.0273
12530TIP3   OH259080   4.081   3.999   4.775  0.1228  0.0352 -0.5596
12530TIP3    H159081   3.986   4.001   4.788  0.2348 -0.4283  0.4515
12530TIP3    H259082   4.114   4.070   4.829  0.4738 -0.8676  0.4530
12531TIP3   OH259083   5.008   2.558  10.736 -0.4692  0.5600  0.1323
12531TIP3    H159084   5.061   2.606  10.799 -0.7964 -0.2416  1.0346
12531TIP3    H259085   5.069   2.501  10.690 -0.3356  0.6804  0.1595
12532TIP3   OH259086   4.969   6.208  16.723  0.1011  0.3655 -0.0572
12532TIP3    H159087   4.901   6.204  16.791  0.0327 -1.1476 -0.1837
12532TIP3    H259088   5.022   6.284  16.747  2.3360 -2.1064  3.9241
12533TIP3   OH259089   4.968   1.596  14.057  0.0699  0.3888 -0.5074
12533TIP3    H159090   4.951   1.657  13.985  0.1003  0.5579 -0.3716
12533TIP3    H259091   4.942   1.644  14.136  1.2517  0.7068 -0.2761
12534TIP3   OH259092   4.621   4.430  12.681  0.0222 -0.2794 -0.2650
12534TIP3    H159093   4.618   4.374  12.604 -1.3443  1.3936 -1.5224
12534TIP3    H259094   4.706   4.474  12.675  0.1123 -0.4893 -0.5694
12535TIP3   OH259095   2.015   2.969   1.980  0.4511 -0.2570  0.3186
12535TIP3    H159096   2.072   2.914   2.033  0.1728 -0.7447  0.1172
12535TIP3    H259097   2.050   3.058   1.991  0.8878 -0.4691  0.6615
12536TIP3   OH259098   6.597   6.484  15.308  0.2725  0.4136 -0.5154
12536TIP3    H159099   6.567   6.499  15.397 -1.0228 -1.6234 -0.5400
12536TIP3    H259100   6.544   6.543  15.254  0.3130  0.8896 -0.0336
12537TIP3   OH259101   0.382   4.748   2.531 -0.2247 -0.5646 -0.4439
12537TIP3    H159102   0.379   4.765   2.437  1.0694  0.9457 -0.2636
12537TIP3    H259103   0.431   4.666   2.540  0.7778 -0.0491 -1.0488
12538TIP3   OH259104   1.029   5.903  11.521  0.3065  0.7044 -0.1322
12538TIP3    H159105   1.048   5.814  11.551  0.9123  0.7133 -0.4682
12538TIP3    H259106   0.951   5.893  11.466 -0.7213  0.6695  1.2861
12539TIP3   OH259107   2.037   1.652   5.425  0.1604 -0.0552  0.2407
12539TIP3    H159108   1.985   1.721   5.384  0.3684  0.5225  0.9236
12539TIP3    H259109   2.107   1.699   5.470  0.9866 -0.7902 -0.2478
12540TIP3   OH259110   6.518   3.586   0.610 -0.0033  0.3929 -0.6024
12540TIP3    H159111   6.499   3.493   0.617 -0.9424  0.6538  0.5529
12540TIP3    H259112   6.575   3.604   0.685 -0.1763  0.8309 -0.5746
12541TIP3   OH259113   3.674   6.542  11.515  0.2444  0.7396  0.0731
12541TIP3    H159114   3.727   6.612  11.553  1.2811  1.0211 -1.7933
12541TIP3    H259115   3.734   6.468  11.508 -0.4520  0.0941  0.6693
12542TIP3   OH259116   4.307   6.177   5.198 -0.3770  0.1531 -0.2051
12542TIP3    H159117   4.264   6.261   5.183  1.6782  1.9031  2.7573
12542TIP3    H259118   4.290   6.158   5.291  0.9253 -1.6694 -0.2974
12543TIP3   OH259119   1.408   2.537   6.149 -0.2031 -0.2643 -0.2357
12543TIP3    H159120   1.399   2.581   6.233  1.1056  0.9161 -0.6752
12543TIP3    H259121   1.435   2.448   6.171  0.3104  0.0880  0.5959
12544TIP3   OH259122   1.302   2.353  14.345  0.1738 -0.0073 -0.1077
12544TIP3    H159123   1.330   2.268  14.312  1.1817 -0.4079  1.6630
12544TIP3    H259124   1.243   2.332  14.418 -0.4998  0.8257 -0.3931
12545TIP3   OH259125   6.289   5.435  14.925 -0.2621  0.6813 -0.0939
12545TIP3    H159126   6.318   5.441  14.834 -0.7777  1.1326 -0.2383
12545TIP3    H259127   6.278   5.342  14.942 -0.0049  0.5884 -0.4431
12546TIP3   OH259128   1.087   3.778  11.530  0.0166 -0.5782  0.5573
12546TIP3    H159129   1.065   3.801  11.440 -0.3569 -1.1267  0.5076
12546TIP3    H259130   1.032   3.835  11.583 -1.0973 -1.5056  0.4307
12547TIP3   OH259131   0.036   5.833   0.573  0.1381  0.1718  0.3232
12547TIP3    H159132   0.109   5.881   0.612  0.0169 -0.6315  1.6220
12547TIP3    H259133   0.070   5.800   0.490  0.7639  1.0509  0.2176
12548TIP3   OH259134   5.562   2.542   0.881 -0.2681  0.0298  0.6427
12548TIP3    H159135   5.551   2.635   0.859 -0.6439 -0.2002 -0.1959
12548TIP3    H259136   5.656   2.529   0.879 -0.2612  0.0688 -0.7586
12549TIP3   OH259137   3.428   5.210  13.398 -0.2178 -0.1804  0.0445
12549TIP3    H159138   3.452   5.287  13.347 -0.4518  0.3991  0.8042
12549TIP3    H259139   3.450   5.232  13.488 -1.1090 -0.6644  0.3934
12550TIP3   OH259140   3.076   0.987   4.594 -0.4421 -0.0030 -0.4203
12550TIP3    H159141   3.137   0.949   4.656  1.8391  0.4769 -2.2377
12550TIP3    H259142   3.082   0.932   4.516 -1.5460  0.6781 -1.0235
12551TIP3   OH259143   2.506   1.130  12.839 -0.1129 -0.0716 -0.4251
12551TIP3    H159144   2.474   1.135  12.930 -0.1616  2.9898 -0.5027
12551TIP3    H259145   2.426   1.136  12.786  0.0692  0.3759 -0.6500
12552TIP3   OH259146   6.741   4.420  15.410  0.2372 -0.1557 -0.2075
12552TIP3    H159147   6.812   4.357  15.409  2.0390  1.7747 -1.5422
12552TIP3    H259148   6.667   4.373  15.372  1.4835 -1.4987 -1.0735
12553TIP3   OH259149   5.189   4.035   0.324  0.1716 -0.0960 -0.1138
12553TIP3    H159150   5.168   4.100   0.257 -0.6392  0.7448  0.9128
12553TIP3    H259151   5.183   4.084   0.406  0.0687 -1.3556  0.6433
12554TIP3   OH259152   5.371   5.437  11.826  0.3156  0.8532 -0.0205
12554TIP3    H159153   5.324   5.408  11.748 -0.3779 -1.2418  1.0880
12554TIP3    H259154   5.457   5.395  11.820  0.2911  0.7535  0.2771
12555TIP3   OH259155   5.369   3.286   4.200  0.1610  0.0709  0.9698
12555TIP3    H159156   5.396   3.195   4.192  0.9713  0.2519  1.5371
12555TIP3    H259157   5.448   3.332   4.229  0.4912  1.3737 -1.6339
12556TIP3   OH259158   2.332   5.108  11.585 -0.5338  0.0679  0.6008
12556TIP3    H159159   2.303   5.016  11.583 -1.1604  0.2215  1.6697
12556TIP3    H259160   2.383   5.114  11.666 -0.7516  0.7302  0.6905
12557TIP3   OH259161   0.443   5.556   5.712  0.2734  0.2838  0.3625
12557TIP3    H159162   0.411   5.631   5.762  0.5540  1.0182 -0.5301
12557TIP3    H259163   0.535   5.576   5.695  0.1219  0.2034 -0.6653
12558TIP3   OH259164   2.295   6.609   3.162 -0.5555 -0.1704  0.4728
12558TIP3    H159165   2.374   6.618   3.215 -0.6161 -0.7063  0.6596
12558TIP3    H259166   2.223   6.623   3.224 -0.6100  0.2355  0.3198
12559TIP3   OH259167   1.427   3.637  15.173  0.0133  0.5804 -0.4944
12559TIP3    H159168   1.507   3.661  15.221  1.1664 -1.5849 -1.1725
12559TIP3    H259169   1.359   3.633  15.240  1.0550  0.0353  0.5755
12560TIP3   OH259170   4.229   1.179  16.746  0.1253  0.4594  1.1937
12560TIP3    H159171   4.273   1.140  16.671  1.6912  0.1116  2.2438
12560TIP3    H259172   4.170   1.110  16.777 -1.6595  1.1115 -0.5307
12561TIP3   OH259173   0.781   6.458  12.677  0.1797  0.1034 -0.2908
12561TIP3    H159174   0.796   6.537  12.625 -0.3798  0.6031  0.2796
12561TIP3    H259175   0.686   6.443  12.670 -0.0360  0.6238  1.1746
12562TIP3   OH259176   3.016   1.754  14.833  0.2482  0.6344 -0.0698
12562TIP3    H159177   3.029   1.690  14.903 -0.2336  1.1647  0.5185
12562TIP3    H259178   2.996   1.835  14.879 -1.3819  0.6973 -0.8413
12563TIP3   OH259179   0.003   4.707   3.042 -0.0830 -0.4105  0.3655
12563TIP3    H159180   0.055   4.785   3.064 -0.0533 -0.5629  0.8604
12563TIP3    H259181   0.016   4.695   2.948  2.3410 -1.5426  0.7671
12564TIP3   OH259182   0.156   3.106   3.026  0.3109  0.4510  0.2372
12564TIP3    H159183   0.131   3.171   3.092  2.2552  0.9513  0.5299
12564TIP3    H259184   0.198   3.158   2.957  1.1457 -0.3998  0.0890
12565TIP3   OH259185   3.348   2.620  14.826 -0.0967 -0.5623  0.0156
12565TIP3    H159186   3.368   2.535  14.787  1.0740 -0.4411  0.3216
12565TIP3    H259187   3.314   2.599  14.913  0.7737 -0.7105  0.3301
12566TIP3   OH259188   0.757   3.493  14.848 -0.2763 -0.3182  0.4268
12566TIP3    H159189   0.697   3.437  14.896 -2.8613  0.4521 -1.6707
12566TIP3    H259190   0.776   3.565  14.909 -0.0821 -1.4263  1.7232
12567TIP3   OH259191   0.283   6.109   1.153 -1.1435  0.0348  0.2808
12567TIP3    H159192   0.267   6.107   1.247 -0.0968  0.9451  0.5057
12567TIP3    H259193   0.224   6.176   1.119 -0.8267  0.4024  0.4491
12568TIP3   OH259194   3.262   3.822   1.985  0.2099  0.3077  0.4625
12568TIP3    H159195   3.181   3.775   1.965  0.2525  0.9076 -1.2737
12568TIP3    H259196   3.261   3.832   2.080 -1.0867 -0.8702  0.6053
12569TIP3   OH259197   0.807   0.676  15.428 -0.1703  0.0082 -0.1388
12569TIP3    H159198   0.811   0.699  15.335  0.2787  0.3150 -0.0466
12569TIP3    H259199   0.898   0.665  15.455 -0.3515 -1.4816 -0.0643
12570TIP3   OH259200   5.984   1.325  11.138 -0.1759  0.0065 -0.0809
12570TIP3    H159201   5.951   1.260  11.200 -1.6777 -0.5458 -1.3798
12570TIP3    H259202   6.050   1.278  11.087  0.7458  0.3387  0.7598
12571TIP3   OH259203   3.834   0.617   2.275  0.6309 -0.8950  0.0334
12571TIP3    H159204   3.782   0.540   2.300  0.7057 -1.6371 -1.8893
12571TIP3    H259205   3.881   0.642   2.355 -1.0649 -1.4904  1.2689
12572TIP3   OH259206   5.520   4.250  14.868 -0.0596  0.0081  0.1408
12572TIP3    H159207   5.585   4.180  14.878 -0.5087 -0.3678  0.4698
12572TIP3    H259208   5.481   4.234  14.782 -1.8586 -1.6393  1.1651
12573TIP3   OH259209   6.251   4.850   3.015 -0.1511 -0.2510 -0.2508
12573TIP3    H159210   6.285   4.796   3.086  1.6838  0.8136 -0.2536
12573TIP3    H259211   6.278   4.939   3.038 -0.4620  0.2524 -1.7512
12574TIP3   OH259212   0.448   3.602   1.554  0.0905 -0.3992  0.5625
12574TIP3    H159213   0.478   3.692   1.569  1.1323 -0.5782 -0.3021
12574TIP3    H259214   0.456   3.560   1.639  1.6232 -0.2170  0.5481
12575TIP3   OH259215   4.714   5.186  10.705 -0.0448  0.6664  0.2582
12575TIP3    H159216   4.664   5.233  10.638  1.9560  1.2640 -0.8953
12575TIP3    H259217   4.735   5.102  10.666  1.5296  1.1963 -0.0979
12576TIP3   OH259218   1.396   2.682   4.042 -0.4649 -0.3172  0.2547
12576TIP3    H159219   1.364   2.598   4.073 -1.3014  0.2120  0.8473
12576TIP3    H259220   1.402   2.671   3.947  2.5223 -2.0783  0.5330
12577TIP3   OH259221   4.520   5.177   0.610 -0.4777  0.2195  0.0706
12577TIP3    H159222   4.580   5.116   0.653  0.0001  0.4747 -0.2101
12577TIP3    H259223   4.455   5.122   0.568 -1.3677 -0.0154  1.6759
12578TIP3   OH259224   6.218   1.807  13.708  0.1207 -0.0061  0.0189
12578TIP3    H159225   6.218   1.884  13.766 -1.6003 -0.8287  1.2027
12578TIP3    H259226   6.272   1.743  13.755  0.7421  0.1227 -0.5003
12579TIP3   OH259227   4.425   3.107   0.724 -0.4481  0.5286 -0.1893
12579TIP3    H159228   4.443   3.018   0.755 -2.7719  0.6593  1.8082
12579TIP3    H259229   4.332   3.107   0.701  0.0781  1.8031 -2.7856
12580TIP3   OH259230   5.861   3.818   4.943 -0.0564  0.3203  0.5301
12580TIP3    H159231   5.775   3.849   4.971  0.3305  0.5972  1.4594
12580TIP3    H259232   5.875   3.858   4.857 -0.0891  1.7571  1.1650
12581TIP3   OH259233   3.399   2.863   4.287 -0.3149  0.0994  0.1541
12581TIP3    H159234   3.395   2.768   4.273  0.1209  0.2389 -1.0570
12581TIP3    H259235   3.479   2.877   4.336 -0.3534 -0.1541  0.2920
12582TIP3   OH259236   1.280   3.257   4.283 -0.3223  0.7386 -0.2632
12582TIP3    H159237   1.300   3.220   4.368 -1.1702  1.3962  0.2481
12582TIP3    H259238   1.292   3.352   4.295  0.3396  0.7662 -1.1002
12583TIP3   OH259239   2.394   0.917   5.361 -0.1716 -0.1524 -0.6176
12583TIP3    H159240   2.467   0.873   5.405 -0.4441  0.3576  0.3829
12583TIP3    H259241   2.436   0.975   5.297  0.5613  2.4638  2.0222
12584TIP3   OH259242   4.133   2.656   5.119 -0.2194  0.0282  0.6983
12584TIP3    H159243   4.104   2.732   5.169 -1.7359 -0.5791  0.7911
12584TIP3    H259244   4.196   2.692   5.056  0.0941  1.1339  1.5864
12585TIP3   OH259245   1.878   5.793  12.374 -0.4711 -0.3528 -0.4920
12585TIP3    H159246   1.868   5.873  12.323 -0.0830 -1.1516 -1.8640
12585TIP3    H259247   1.808   5.736  12.343 -1.1606 -0.3396  0.9429
12586TIP3   OH259248   5.340   2.345   2.063 -0.0790 -0.8069  0.2158
12586TIP3    H159249   5.306   2.283   1.998  0.8432  0.3820 -1.4750
12586TIP3    H259250   5.264   2.369   2.116 -1.0303 -1.2567 -0.9071
12587TIP3   OH259251   2.094   0.049   0.676  0.0945 -0.3779  0.2153
12587TIP3    H159252   2.181   0.074   0.644 -0.4784  0.4736 -0.7491
12587TIP3    H259253   2.092  -0.046   0.669  0.2568 -0.2856 -1.6845
12588TIP3   OH259254   4.531   0.287  12.221  0.3845 -0.2596  0.0496
12588TIP3    H159255   4.505   0.300  12.312 -1.0785 -1.4417 -0.1586
12588TIP3    H259256   4.588   0.361  12.201  0.3488  0.2693  1.7746
12589TIP3   OH259257   2.557   3.481   5.313  0.4009  0.1335  0.2805
12589TIP3    H159258   2.604   3.398   5.323  1.1646  0.5090 -0.0956
12589TIP3    H259259   2.553   3.517   5.402 -0.5392 -0.6110  0.5605
12590TIP3   OH259260   6.813   3.730  11.864 -0.1609 -0.1162  0.2155
12590TIP3    H159261   6.882   3.745  11.929  0.7498  0.2246 -0.8014
12590TIP3    H259262   6.854   3.752  11.780 -0.9737 -1.5774 -0.6013
12591TIP3   OH259263   0.483   3.877   0.992  0.2262 -0.0179 -0.2771
12591TIP3    H159264   0.561   3.932   0.996 -0.0565  0.4150  3.2587
12591TIP3    H259265   0.509   3.794   1.032 -1.2044  0.4147  1.7476
12592TIP3   OH259266   5.127   2.770  13.627 -0.0755  0.2498  0.9083
12592TIP3    H159267   5.070   2.736  13.558  2.0432 -0.6402 -0.4974
12592TIP3    H259268   5.175   2.693  13.658  1.3645  1.1786  1.0488
12593TIP3   OH259269   1.726   2.068   1.584  0.2606  0.1321  0.0186
12593TIP3    H159270   1.754   2.146   1.536  0.4856  0.3460  0.4908
12593TIP3    H259271   1.630   2.074   1.585  0.3055  0.8267  0.7426
12594TIP3   OH259272   4.748   0.136   1.263  0.1155 -0.1314 -0.8183
12594TIP3    H159273   4.776   0.079   1.191  0.9633  0.3093 -0.8518
12594TIP3    H259274   4.829   0.173   1.297 -0.2585 -0.5420  0.5548
12595TIP3   OH259275   4.796   1.600   0.581  0.1392  0.0608  0.0876
12595TIP3    H159276   4.700   1.604   0.579  0.1223 -0.0134  0.6484
12595TIP3    H259277   4.815   1.510   0.606  0.3719 -0.1667 -0.8636
12596TIP3   OH259278   6.786   5.409  10.996 -0.5137  0.2590 -0.1545
12596TIP3    H159279   6.826   5.324  11.012 -0.3896 -0.0386 -1.8999
12596TIP3    H259280   6.731   5.396  10.919  0.7439  2.1258 -1.4451
12597TIP3   OH259281   3.277   4.703  12.218 -0.1482 -0.6133 -0.0557
12597TIP3    H159282   3.235   4.787  12.239  0.7093 -0.4598  1.1771
12597TIP3    H259283   3.233   4.640  12.276  0.3378 -0.7057  0.2151
12598TIP3   OH259284   1.247   0.585   5.138 -0.1365  0.0923  0.0507
12598TIP3    H159285   1.308   0.655   5.159 -1.0529  0.6668  0.8649
12598TIP3    H259286   1.225   0.599   5.046 -1.9762  2.2482  0.7173
12599TIP3   OH259287   5.053   5.557  15.928 -0.1019  0.1222 -0.1045
12599TIP3    H159288   4.975   5.544  15.983  0.5665 -0.8384  0.6449
12599TIP3    H259289   5.088   5.641  15.956 -1.2801  0.9504 -0.9928
12600TIP3   OH259290   6.308   6.186   3.064 -0.5181 -0.0637  0.3137
12600TIP3    H159291   6.371   6.204   3.134  0.8915 -0.2365 -0.8653
12600TIP3    H259292   6.318   6.093   3.045 -1.2050 -0.1130  0.1586
12601TIP3   OH259293   1.448   0.217  16.031 -0.3700  0.5009 -0.2696
12601TIP3    H159294   1.362   0.178  16.018 -0.2206 -0.3676  1.1398
12601TIP3    H259295   1.509   0.145  16.017 -0.1234 -0.1046  3.1437
12602TIP3   OH259296   3.437   5.312   5.764  0.0973 -0.7440  0.6005
12602TIP3    H159297   3.458   5.220   5.777  0.2482 -0.8310 -0.1724
12602TIP3    H259298   3.382   5.313   5.686  0.5223 -0.1379  0.2967
12603TIP3   OH259299   5.342   1.809   0.145 -0.1752 -0.5472  0.6423
12603TIP3    H159300   5.333   1.887   0.200 -1.1083 -1.5000  1.9144
12603TIP3    H259301   5.268   1.813   0.085 -0.5594 -0.7235  1.0927
12604TIP3   OH259302   6.087   4.026   3.537 -0.6663  0.4915  0.2634
12604TIP3    H159303   6.159   3.979   3.579  0.1542 -0.2885 -1.8526
12604TIP3    H259304   6.010   3.972   3.554  0.1154 -1.3035 -1.3917
12605TIP3   OH259305   1.269   6.316  14.886  0.4302  0.1500 -0.0813
12605TIP3    H159306   1.307   6.401  14.906 -0.3737  0.9999 -1.8948
12605TIP3    H259307   1.185   6.337  14.845 -0.5934 -1.5827  1.0060
12606TIP3   OH259308   1.893   1.059   6.152  0.4252 -0.4588  0.2075
12606TIP3    H159309   1.960   1.089   6.091 -1.3348  0.2286 -1.4851
12606TIP3    H259310   1.866   1.138   6.199 -0.8515 -0.2226 -0.8558
12607TIP3   OH259311   6.199   4.246  15.289  0.1532  0.0137 -0.2451
12607TIP3    H159312   6.227   4.327  15.248 -0.1430  0.5266  0.5310
12607TIP3    H259313   6.263   4.231  15.359  0.7220 -0.9086 -0.9267
12608TIP3   OH259314   4.640   4.974   5.819  0.5940 -0.3298 -0.2386
12608TIP3    H159315   4.671   4.902   5.874  1.6389  0.3232  0.0435
12608TIP3    H259316   4.564   5.009   5.867  0.4246 -0.8750 -0.0995
12609TIP3   OH259317   4.792   0.865   4.098 -0.0036  0.0623  0.2272
12609TIP3    H159318   4.782   0.826   4.185  1.1703  1.8322  1.2074
12609TIP3    H259319   4.886   0.876   4.087 -0.2321  1.6795 -0.4131
12610TIP3   OH259320   2.048   1.813   4.852  0.0148  0.1304  0.0313
12610TIP3    H159321   2.017   1.749   4.916 -1.7504  2.2040  1.4331
12610TIP3    H259322   1.993   1.890   4.867 -0.5474  0.7394 -4.1088
12611TIP3   OH259323   5.743   1.450   1.361 -0.2082 -0.5778  0.4165
12611TIP3    H159324   5.802   1.413   1.295  0.8936  0.7555  0.5976
12611TIP3    H259325   5.657   1.414   1.340  0.2606 -0.8202 -1.2419
12612TIP3   OH259326   5.132   4.842  14.176  0.2038 -0.5581  0.3860
12612TIP3    H159327   5.108   4.848  14.268  2.5179 -2.1667  1.1961
12612TIP3    H259328   5.104   4.754  14.150 -0.6153 -0.0392 -0.5178
12613TIP3   OH259329   6.108   1.557  17.061 -0.5596  0.1565  0.0762
12613TIP3    H159330   6.043   1.514  17.115  0.7865  0.1922  1.8253
12613TIP3    H259331   6.126   1.639  17.106 -0.0587  0.6085 -0.9247
12614TIP3   OH259332   0.588   2.197   5.295  0.4345  0.3493  0.8894
12614TIP3    H159333   0.590   2.176   5.389 -0.8720  2.0574  1.3441
12614TIP3    H259334   0.622   2.119   5.252 -1.6272 -1.5894  2.5998
12615TIP3   OH259335   5.189   6.634  14.784 -0.4333  0.5185 -0.0142
12615TIP3    H159336   5.133   6.672  14.852  0.3098  0.9413  0.3756
12615TIP3    H259337   5.278   6.641  14.820 -0.1199 -0.0570 -0.6617
12616TIP3   OH259338   2.355   5.116   3.134  0.5620 -0.5905 -0.7890
12616TIP3    H159339   2.395   5.028   3.133  0.2476 -0.7289 -1.3593
12616TIP3    H259340   2.341   5.134   3.227 -0.3498 -1.6015 -0.6990
12617TIP3   OH259341   5.469   1.911   6.173 -0.0692  0.3901  0.3521
12617TIP3    H159342   5.470   2.005   6.159 -0.4715  0.6752  2.0020
12617TIP3    H259343   5.544   1.894   6.231  1.2187 -0.6232 -1.4916
12618TIP3   OH259344   5.752   2.825   4.481 -0.5657 -0.0791  0.4440
12618TIP3    H159345   5.698   2.903   4.476 -2.0068 -0.9193  1.9911
12618TIP3    H259346   5.832   2.848   4.434 -0.9179  2.3217  0.9093
12619TIP3   OH259347   1.780   5.248  15.465 -0.3708  0.1302 -0.1916
12619TIP3    H159348   1.689   5.244  15.434 -0.7643  2.5619  0.4279
12619TIP3    H259349   1.796   5.162  15.503 -2.7296 -0.0886  0.4580
12620TIP3   OH259350   1.191   1.845   3.619  0.4110 -0.0175  0.2911
12620TIP3    H159351   1.276   1.888   3.620  0.7031 -0.5210 -1.1077
12620TIP3    H259352   1.127   1.916   3.627  0.9507  0.3478  1.4833
12621TIP3   OH259353   1.898   3.872  11.367  0.1719  0.8758 -0.0250
12621TIP3    H159354   1.989   3.895  11.390 -0.0184  0.1827  1.6002
12621TIP3    H259355   1.884   3.788  11.411 -0.7007  0.0617 -1.7678
12622TIP3   OH259356   3.122   6.399  14.066 -0.0396  0.2959  0.3688
12622TIP3    H159357   3.198   6.362  14.109  0.8860  0.8384 -0.7537
12622TIP3    H259358   3.119   6.490  14.095 -1.7010 -0.2969  2.2964
12623TIP3   OH259359   2.079   1.677  14.046 -0.3635 -0.1865  1.0378
12623TIP3    H159360   2.116   1.667  13.958 -1.6627 -0.2066  0.4850
12623TIP3    H259361   2.156   1.680  14.104  0.4876 -0.5885 -0.0481
12624TIP3   OH259362   3.123   2.609   4.851  0.2603 -0.8593 -0.1038
12624TIP3    H159363   3.123   2.702   4.872  0.8030 -0.7381 -0.6129
12624TIP3    H259364   3.104   2.605   4.757  1.5333 -1.1730 -0.3685
12625TIP3   OH259365   2.534   1.674   5.400  0.3595 -0.2409 -0.0337
12625TIP3    H159366   2.501   1.588   5.375  1.1431 -0.7356  0.5814
12625TIP3    H259367   2.539   1.724   5.318 -0.1831 -0.7463 -0.3784
12626TIP3   OH259368   4.490   6.461   3.427 -0.2976  0.2207  0.8789
12626TIP3    H159369   4.403   6.500   3.420 -0.2803  0.0079 -1.0696
12626TIP3    H259370   4.547   6.533   3.455 -0.7504  0.8683  0.1610
12627TIP3   OH259371   5.471   4.596   6.106 -0.0734 -0.6968  0.6641
12627TIP3    H159372   5.540   4.620   6.044  0.1796 -0.1150  1.1616
12627TIP3    H259373   5.500   4.633   6.189 -1.7249  0.9338  0.5751
12628TIP3   OH259374   1.198   5.299  12.871  0.0229 -0.9652  0.1096
12628TIP3    H159375   1.253   5.237  12.919 -1.1398 -1.7065  0.5096
12628TIP3    H259376   1.136   5.245  12.822 -1.9151 -0.1605  1.5389
12629TIP3   OH259377   1.072   6.440  14.744 -0.1861 -0.0753  0.6344
12629TIP3    H159378   1.039   6.521  14.784  0.7561  0.7509 -0.2188
12629TIP3    H259379   1.104   6.466  14.658  1.7947 -0.9988  1.0407
12630TIP3   OH259380   4.557   3.674  11.083  0.1786 -0.2123  0.3004
12630TIP3    H159381   4.617   3.614  11.038 -0.5637  0.2077 -1.3291
12630TIP3    H259382   4.470   3.634  11.072 -0.2308  0.7750 -0.1625
12631TIP3   OH259383   4.834   3.836  13.867  0.5682 -0.4129  0.0179
12631TIP3    H159384   4.911   3.780  13.881  2.3456  1.4797 -1.4578
12631TIP3    H259385   4.800   3.808  13.781 -0.0136 -0.7979  0.3664
12632TIP3   OH259386   1.267   1.579  15.783 -0.3481 -0.1787 -0.7254
12632TIP3    H159387   1.211   1.650  15.754 -0.2963 -0.0340 -0.4672
12632TIP3    H259388   1.260   1.578  15.878  0.4326  0.1336 -0.6568
12633TIP3   OH259389   0.942   2.131  15.762  0.4067  0.1816  0.1276
12633TIP3    H159390   0.927   2.041  15.734  0.6567  0.7132 -1.8959
12633TIP3    H259391   1.024   2.156  15.719 -0.7942  2.0559 -1.2404
12634TIP3   OH259392   0.213   4.158   5.394 -0.0063  0.7888 -0.3342
12634TIP3    H159393   0.304   4.134   5.410  0.4274  1.8245 -1.2094
12634TIP3    H259394   0.166   4.125   5.472  0.9921 -0.3172 -0.1775
12635TIP3   OH259395   1.416   1.981   1.559  0.7452  0.1453  0.4738
12635TIP3    H159396   1.369   1.902   1.585  0.7152 -0.1812 -0.4997
12635TIP3    H259397   1.352   2.033   1.510  0.8441  0.6441  0.8638
12636TIP3   OH259398   3.332   3.670  14.373 -0.3616 -0.1683  0.2667
12636TIP3    H159399   3.323   3.594  14.314  1.5303 -1.7949  1.9057
12636TIP3    H259400   3.283   3.646  14.451 -0.2393  0.5624  0.5752
12637TIP3   OH259401   3.023   2.262   4.907 -0.8095 -0.3692 -0.3195
12637TIP3    H159402   3.108   2.217   4.912 -0.4845  0.0760 -1.5633
12637TIP3    H259403   3.014   2.287   4.815 -0.7668  2.4706  0.3493
12638TIP3   OH259404   4.623   0.738  12.341  0.1127  0.1097 -0.4514
12638TIP3    H159405   4.674   0.671  12.387 -1.3706  0.2156  1.4750
12638TIP3    H259406   4.616   0.810  12.404 -0.6735  0.9225 -1.4385
12639TIP3   OH259407   4.573   5.848   1.694  0.8920  0.1965  0.5181
12639TIP3    H159408   4.566   5.944   1.695 -0.7356  0.1759 -1.4741
12639TIP3    H259409   4.482   5.818   1.701  1.1010 -1.0955 -1.4495
12640TIP3   OH259410   5.155   4.618  10.551  0.1642 -0.3577  0.5273
12640TIP3    H159411   5.124   4.706  10.570 -2.7720 -1.4352  1.1650
12640TIP3    H259412   5.209   4.595  10.627  0.3260  0.5858  0.7118
12641TIP3   OH259413   1.685   2.717  14.769 -0.2513  0.3362  0.3686
12641TIP3    H159414   1.666   2.736  14.677  1.9664  0.1958 -0.1893
12641TIP3    H259415   1.618   2.655  14.795 -0.8281  0.2420 -1.2167
12642TIP3   OH259416   0.662   5.695   6.021 -0.1130  0.1840  0.8783
12642TIP3    H159417   0.727   5.628   6.040 -0.5665 -0.3313  0.6401
12642TIP3    H259418   0.669   5.757   6.094  2.3818  1.5232 -0.3430
12643TIP3   OH259419   2.193   1.792   2.882  0.3881 -0.2477 -0.2498
12643TIP3    H159420   2.107   1.751   2.886  0.4137 -0.2318  0.7448
12643TIP3    H259421   2.238   1.761   2.961  0.8560  0.7011 -0.1333
12644TIP3   OH259422   0.701   4.224   3.098 -0.2771 -0.0222 -0.0079
12644TIP3    H159423   0.672   4.259   3.014 -0.2906  2.5141  0.9575
12644TIP3    H259424   0.621   4.213   3.149 -0.1741 -0.4232  0.0723
12645TIP3   OH259425   4.041   6.103   3.657 -0.1835 -0.2397 -0.0179
12645TIP3    H159426   3.990   6.179   3.628 -0.0171 -0.7342 -1.6936
12645TIP3    H259427   4.099   6.084   3.583  0.0599 -1.7453  0.5388
12646TIP3   OH259428   4.593   0.105  13.542  0.2762  0.1926 -0.1622
12646TIP3    H159429   4.607   0.152  13.460  0.6183  0.1630 -0.1245
12646TIP3    H259430   4.680   0.103  13.583 -0.2073  1.7220  1.0143
12647TIP3   OH259431   1.133   1.158  12.171 -0.5328  0.2545  0.4795
12647TIP3    H159432   1.121   1.087  12.234 -0.0916 -0.4716 -0.2367
12647TIP3    H259433   1.226   1.155  12.148 -0.1031  2.1577  1.6966
12648TIP3   OH259434   0.588   3.176   4.864  0.4861  0.2324  0.3447
12648TIP3    H159435   0.522   3.196   4.930 -3.4944 -2.9721 -2.1740
12648TIP3    H259436   0.552   3.209   4.782  2.4056 -0.9845 -1.1015
12649TIP3   OH259437   2.976   4.026  11.199 -0.1738 -0.3370 -0.0373
12649TIP3    H159438   2.983   3.934  11.224 -0.8355 -0.3946 -0.0613
12649TIP3    H259439   2.888   4.036  11.164 -0.6549  0.6333  1.3303
12650TIP3   OH259440   6.118   0.073  17.066 -0.1443  0.4375  0.3528
12650TIP3    H159441   6.080   0.155  17.098  0.4801  0.2125  1.7717
12650TIP3    H259442   6.122   0.017  17.143 -1.3082 -1.2491 -0.7636
12651TIP3   OH259443   6.451   6.454  15.817  0.4421  0.5110  0.4655
12651TIP3    H159444   6.541   6.448  15.788  0.9975 -1.2315  2.3477
12651TIP3    H259445   6.441   6.545  15.846 -0.0125  2.2389 -4.2121
12652TIP3   OH259446   4.989   6.038  14.440 -0.0273  0.8204 -0.1942
12652TIP3    H159447   5.000   6.094  14.364  1.3755  2.1987  0.9602
12652TIP3    H259448   5.076   6.000  14.455 -0.1350  1.0469  1.0736
12653TIP3   OH259449   6.774   2.676  11.085  0.1649 -0.2220 -0.0537
12653TIP3    H159450   6.707   2.738  11.055 -0.4474 -1.3490 -1.0984
12653TIP3    H259451   6.779   2.690  11.179 -0.4641  0.9273 -0.1769
12654TIP3   OH259452   6.575   3.595   3.543  0.2089  0.1105 -0.1345
12654TIP3    H159453   6.504   3.533   3.559  0.4562 -1.2392 -3.4405
12654TIP3    H259454   6.532   3.673   3.508  0.1593  0.5917  0.9535
12655TIP3   OH259455   0.997   4.298   2.210  0.1410  0.0908 -0.2775
12655TIP3    H159456   0.952   4.300   2.295 -1.8750 -2.8418 -1.1215
12655TIP3    H259457   1.006   4.390   2.186 -1.8182  0.9389  1.8187
12656TIP3   OH259458   2.369   4.248  11.386 -0.0052 -0.5023  0.3636
12656TIP3    H159459   2.342   4.275  11.299 -0.6508  0.4211  0.8414
12656TIP3    H259460   2.443   4.188  11.370  1.7167  1.7441 -0.7402
12657TIP3   OH259461   0.382   5.425  12.188  0.1372  0.0927  0.3135
12657TIP3    H159462   0.353   5.370  12.260 -1.0844 -0.2491 -0.4153
12657TIP3    H259463   0.336   5.391  12.111  0.6573  1.0689 -0.4615
12658TIP3   OH259464   6.488   0.774   4.725  0.5433  0.4698 -0.2083
12658TIP3    H159465   6.514   0.783   4.817  1.3087 -0.5082 -0.3187
12658TIP3    H259466   6.429   0.848   4.710  2.0618  1.8907  0.4833
12659TIP3   OH259467   0.956   1.421   0.994  0.5872  0.2396  0.0211
12659TIP3    H159468   0.885   1.443   1.055  1.0475 -0.3197  0.7680
12659TIP3    H259469   0.976   1.330   1.012  0.7996  0.0913 -0.9157
12660TIP3   OH259470   1.105   5.301   1.991  0.3080  0.5859  0.4660
12660TIP3    H159471   1.064   5.345   2.066 -0.3100  1.0371 -0.1250
12660TIP3    H259472   1.101   5.365   1.920 -0.0822 -0.2162 -0.2495
12661TIP3   OH259473   1.237   5.623  10.942 -0.4619  0.2396  0.2942
12661TIP3    H159474   1.225   5.528  10.939 -0.9934  0.3236 -0.8750
12661TIP3    H259475   1.332   5.635  10.952 -0.2002 -0.4274 -1.1001
12662TIP3   OH259476   6.346   6.147   0.203 -0.2478 -0.4433 -0.2355
12662TIP3    H159477   6.373   6.068   0.156 -0.8951 -0.3730 -0.7403
12662TIP3    H259478   6.341   6.118   0.295  0.0697 -0.8408 -0.3394
12663TIP3   OH259479   0.715   3.908   1.980  0.1939 -0.5208  0.4488
12663TIP3    H159480   0.685   3.879   2.067  1.1039 -1.5491  0.4398
12663TIP3    H259481   0.790   3.965   1.998  0.4316 -0.7966  0.3458
12664TIP3   OH259482   1.526   1.893  11.493 -0.3816 -0.1348  0.2390
12664TIP3    H159483   1.590   1.963  11.477  1.5542 -1.6644  0.9451
12664TIP3    H259484   1.543   1.829  11.424 -0.9671 -0.7128  0.6187
12665TIP3   OH259485   6.088   0.531   1.160  0.3597  0.0294  0.3020
12665TIP3    H159486   6.139   0.499   1.086  0.5900  0.1148  0.4223
12665TIP3    H259487   6.052   0.452   1.201  0.2228 -0.0170  0.0949
12666TIP3   OH259488   2.308   5.547  14.150  0.2502  0.0092  0.2551
12666TIP3    H159489   2.224   5.593  14.152  0.4821  0.4562 -0.1359
12666TIP3    H259490   2.363   5.596  14.212  1.5921  2.4479 -2.6235
12667TIP3   OH259491   5.911   5.052  15.211  0.8074  0.0235  0.0682
12667TIP3    H159492   5.993   5.081  15.170  0.2238  0.2719 -0.9505
12667TIP3    H259493   5.894   4.967  15.172 -0.4770  0.8681 -1.2778
12668TIP3   OH259494   2.979   6.491   6.436 -0.2099 -1.0060  0.1807
12668TIP3    H159495   2.884   6.481   6.431 -0.4470  1.1538 -0.7851
12668TIP3    H259496   2.992   6.576   6.477  1.3118 -1.2452  0.2579
12669TIP3   OH259497   5.313   2.839   4.567 -0.0527  0.2248 -0.2247
12669TIP3    H159498   5.345   2.780   4.498 -1.1783  0.1627 -0.7038
12669TIP3    H259499   5.366   2.816   4.644 -0.2351 -1.1854 -0.4949
12670TIP3   OH259500   1.251   2.700  15.670 -0.4947 -0.3091  0.5159
12670TIP3    H159501   1.248   2.713  15.575  0.0494 -0.8071  0.4286
12670TIP3    H259502   1.329   2.748  15.699 -1.3331  0.8907  0.8953
12671TIP3   OH259503   5.302   4.920  15.797  0.1803 -0.1416  0.1276
12671TIP3    H159504   5.216   4.888  15.771  0.9820 -1.5895 -0.9132
12671TIP3    H259505   5.293   5.015  15.803 -0.9429 -0.0614 -2.0874
12672TIP3   OH259506   1.444   4.911   3.065 -0.1677 -0.5106 -0.5387
12672TIP3    H159507   1.363   4.904   3.016 -0.5397  0.1227 -0.0478
12672TIP3    H259508   1.436   4.994   3.112  2.2758  1.4389 -3.2031
12673TIP3   OH259509   5.333   4.183   1.975  0.1829  0.1957  0.1882
12673TIP3    H159510   5.345   4.242   1.900  0.3600  0.7250  0.6333
12673TIP3    H259511   5.239   4.186   1.993  0.3130  1.0009  0.7472
12674TIP3   OH259512   6.705   5.369   2.673  0.5142 -0.5703 -0.5167
12674TIP3    H159513   6.715   5.450   2.723  0.1492 -0.9741  0.2137
12674TIP3    H259514   6.673   5.305   2.736 -4.0858 -0.0774 -2.0041
12675TIP3   OH259515   6.791   0.385   4.937  0.7192  1.0067  0.4822
12675TIP3    H159516   6.858   0.384   4.869 -1.8050  2.0032 -2.2371
12675TIP3    H259517   6.709   0.403   4.890 -1.5227 -0.2836  3.5568
12676TIP3   OH259518   4.610   5.517   2.291 -0.1270 -0.2404  0.0537
12676TIP3    H159519   4.559   5.524   2.372  0.7043 -0.2152  0.5850
12676TIP3    H259520   4.552   5.471   2.231 -0.7607 -0.2653  0.6663
12677TIP3   OH259521   3.531   3.041  16.094 -0.0187 -0.4609 -0.3231
12677TIP3    H159522   3.624   3.055  16.075 -0.2321 -0.2383 -1.2471
12677TIP3    H259523   3.527   2.951  16.127  0.3734 -0.9054 -1.4408
12678TIP3   OH259524   0.116   3.935  12.697  0.3284  0.2284 -0.0958
12678TIP3    H159525   0.166   4.002  12.650 -1.3295 -0.0042 -2.3982
12678TIP3    H259526   0.180   3.867  12.717  1.7173  1.7413  0.8353
12679TIP3   OH259527   6.376   6.700   5.024  0.0778 -0.7691 -0.3325
12679TIP3    H159528   6.303   6.741   5.072  1.1226  0.8584 -0.0704
12679TIP3    H259529   6.354   6.714   4.932 -0.0329 -0.4309 -0.2582
12680TIP3   OH259530   0.281   3.412  15.873 -0.6055  0.4814 -0.1846
12680TIP3    H159531   0.203   3.367  15.906 -0.6387  2.3425  2.7220
12680TIP3    H259532   0.351   3.383  15.932  0.1207  1.4627 -0.5442
12681TIP3   OH259533   3.804   1.897  13.986  0.3114 -0.2182 -0.4044
12681TIP3    H159534   3.890   1.922  14.019  0.7071 -1.5234 -0.4088
12681TIP3    H259535   3.807   1.918  13.893  0.0879  1.1000 -0.1379
12682TIP3   OH259536   3.357   5.752  13.401  0.3585  0.2206  0.2955
12682TIP3    H159537   3.299   5.677  13.384  0.1234 -0.2683  2.8713
12682TIP3    H259538   3.445   5.719  13.379  0.1676 -0.5810  0.6787
12683TIP3   OH259539   4.088   5.904  16.650  0.1339  0.1689 -0.1782
12683TIP3    H159540   4.018   5.969  16.651  1.1594  1.3453 -1.1674
12683TIP3    H259541   4.120   5.902  16.740 -3.2433 -2.8784  1.2236
12684TIP3   OH259542   2.322   2.500   5.198 -0.0301  0.7153 -0.0054
12684TIP3    H159543   2.372   2.486   5.117 -0.6028  0.1309 -0.2702
12684TIP3    H259544   2.295   2.412   5.224 -2.4728  1.1374 -0.8867
12685TIP3   OH259545   2.307   0.542  11.263  0.2610 -0.1250  0.0030
12685TIP3    H159546   2.220   0.503  11.263  0.1479  0.1278 -0.4237
12685TIP3    H259547   2.341   0.529  11.175  0.7463 -0.4178  0.2252
12686TIP3   OH259548   6.803   1.240   2.580  0.2672 -0.2442  0.0513
12686TIP3    H159549   6.869   1.171   2.575  0.8427  0.2114  1.1181
12686TIP3    H259550   6.719   1.193   2.580  0.6565 -0.9730  1.1166
12687TIP3   OH259551   6.677   2.509   0.438  0.2407 -0.5167 -0.4184
12687TIP3    H159552   6.765   2.539   0.417 -0.6495  1.1985 -1.9275
12687TIP3    H259553   6.635   2.584   0.479 -0.4766 -1.3987  0.5238
12688TIP3   OH259554   1.738   1.486   3.568 -0.0668  0.4002  0.2742
12688TIP3    H159555   1.732   1.391   3.555  0.6112  0.3080  0.5790
12688TIP3    H259556   1.716   1.500   3.660  0.5305  0.4606  0.4093
12689TIP3   OH259557   0.002   2.110  14.759 -0.1301 -0.2203  0.2071
12689TIP3    H159558  -0.034   2.042  14.701  1.1315  0.9844 -2.1610
12689TIP3    H259559   0.096   2.093  14.758 -0.0816 -0.2595  2.1533
12690TIP3   OH259560   1.066   2.936  12.579  0.0798 -0.0939 -0.0918
12690TIP3    H159561   1.142   2.982  12.543 -1.7396  1.7135 -1.9082
12690TIP3    H259562   1.051   2.978  12.664  1.0352 -0.4156  0.2498
12691TIP3   OH259563   5.643   2.934   1.060  0.6667  0.0996 -0.2289
12691TIP3    H159564   5.612   2.894   1.141  2.5790  0.1391  0.5812
12691TIP3    H259565   5.738   2.933   1.068  0.8628  1.5233 -1.7877
12692TIP3   OH259566   4.488   6.018   5.678  0.6853  0.7931  0.0597
12692TIP3    H159567   4.554   6.014   5.608  1.3401 -0.0288  0.7111
12692TIP3    H259568   4.537   6.049   5.754  0.0309  1.4166  0.2346
12693TIP3   OH259569   1.652   0.018  13.016  0.0744 -0.1194 -0.0810
12693TIP3    H159570   1.592  -0.051  13.045  0.4026 -1.7358 -2.8639
12693TIP3    H259571   1.738  -0.011  13.045  0.1029 -0.4108 -0.4562
12694TIP3   OH259572   6.064   0.472  12.931  0.1367  0.2770 -0.4936
12694TIP3    H159573   6.048   0.442  13.021  1.6353 -1.5147 -0.7551
12694TIP3    H259574   5.981   0.457  12.886 -0.6071  1.1111  0.5473
12695TIP3   OH259575   0.731   2.350  11.545  0.0017 -0.0069  0.5479
12695TIP3    H159576   0.653   2.299  11.570 -0.9293  1.8988  1.7805
12695TIP3    H259577   0.739   2.337  11.451 -0.7450 -1.6706  0.6855
12696TIP3   OH259578   5.225   3.158  13.313  0.0307 -0.2582  0.0039
12696TIP3    H159579   5.249   3.084  13.257  0.1866 -0.2354  0.0410
12696TIP3    H259580   5.190   3.118  13.392 -3.0487 -0.3500 -1.2590
12697TIP3   OH259581   2.645   2.655  14.597  0.1373  0.3641 -0.4840
12697TIP3    H159582   2.701   2.584  14.567  0.9128  0.4437  0.7185
12697TIP3    H259583   2.564   2.612  14.625 -0.0063  0.1385 -1.2163
12698TIP3   OH259584   4.498   4.991   4.273 -0.1237 -0.3568 -0.7173
12698TIP3    H159585   4.562   5.009   4.204 -0.4032  1.3570 -0.5688
12698TIP3    H259586   4.439   5.067   4.272 -1.2340 -1.1671  0.1875
12699TIP3   OH259587   0.273   2.768   4.188  0.1049 -0.0470 -0.0513
12699TIP3    H159588   0.262   2.690   4.242 -0.1388 -0.0131 -0.0509
12699TIP3    H259589   0.347   2.814   4.227  0.0052 -0.0835  0.1820
12700TIP3   OH259590   3.803   5.153  13.728 -0.4676 -0.0681  0.2567
12700TIP3    H159591   3.868   5.197  13.783 -1.5814 -0.5096  1.9845
12700TIP3    H259592   3.761   5.223  13.679  0.3831  0.3551  0.1142
12701TIP3   OH259593   1.242   0.477  12.565 -0.2335 -0.2807  0.0025
12701TIP3    H159594   1.335   0.496  12.576  0.0536 -1.3083 -0.5325
12701TIP3    H259595   1.210   0.464  12.655 -0.1410  1.2516  0.2747
12702TIP3   OH259596   4.516   2.824   2.582  0.0008 -0.0478 -0.6277
12702TIP3    H159597   4.447   2.889   2.567 -0.2597  0.2350  1.4665
12702TIP3    H259598   4.471   2.740   2.576 -1.1196  0.1541  2.6402
12703TIP3   OH259599   3.915   1.391   1.668  0.1275 -0.4487  0.0455
12703TIP3    H159600   4.005   1.365   1.647  0.2964  0.6466 -0.6312
12703TIP3    H259601   3.875   1.408   1.582 -0.2787  0.4948  0.4142
12704TIP3   OH259602   3.628   6.627   5.024 -0.1760  0.4053 -0.3645
12704TIP3    H159603   3.584   6.608   5.107 -2.5647  0.7826 -1.4615
12704TIP3    H259604   3.714   6.661   5.050  0.0939 -1.6493  1.8708
12705TIP3   OH259605   3.608   6.441   2.863  0.5928 -0.4455  0.8063
12705TIP3    H159606   3.562   6.405   2.788 -0.8359  1.5461  0.6371
12705TIP3    H259607   3.577   6.389   2.937 -0.9281 -0.0424  0.4938
12706TIP3   OH259608   0.174   1.135  15.010 -0.4428 -0.3451 -0.7929
12706TIP3    H159609   0.100   1.102  14.959 -0.6411  0.0053 -0.7305
12706TIP3    H259610   0.136   1.159  15.094  0.0570 -1.9044 -0.0867
12707TIP3   OH259611   0.519   5.067  12.188 -0.4061  0.1618 -0.2134
12707TIP3    H159612   0.534   5.113  12.105 -2.1294  2.1887  0.5059
12707TIP3    H259613   0.477   4.985  12.163  3.9787 -1.9693 -1.6419
12708TIP3   OH259614   1.982   5.667   0.085 -0.0222  0.0664 -0.3288
12708TIP3    H159615   2.009   5.759   0.077  2.5473 -0.0332  3.9681
12708TIP3    H259616   2.034   5.621   0.019  0.8965  1.3753 -0.5627
12709TIP3   OH259617   5.752   4.785  12.606  0.4130  0.4163 -0.5139
12709TIP3    H159618   5.727   4.797  12.698 -1.6459 -1.5387 -0.7378
12709TIP3    H259619   5.747   4.873  12.568 -0.5186  0.9727  0.8253
12710TIP3   OH259620   1.619   0.192  13.496  0.2390  0.3792 -0.3769
12710TIP3    H159621   1.670   0.264  13.459  0.9910  0.2422  0.3777
12710TIP3    H259622   1.559   0.167  13.426  1.4090  0.3411 -1.3937
12711TIP3   OH259623   0.244   3.582  11.213 -0.2250 -0.2644 -0.5625
12711TIP3    H159624   0.281   3.572  11.125 -0.6518 -0.9851 -0.6669
12711TIP3    H259625   0.187   3.658  11.206  0.1341 -0.0100 -0.7721
12712TIP3   OH259626   6.445   1.380   6.154  0.1027 -0.1944 -0.3861
12712TIP3    H159627   6.536   1.380   6.122  0.4785 -1.1832  0.6331
12712TIP3    H259628   6.420   1.288   6.155 -0.8161  0.0518 -0.3498
12713TIP3   OH259629   0.384   2.759   5.126  0.6637  0.2151  0.1690
12713TIP3    H159630   0.362   2.833   5.182 -0.4437 -0.0400  0.0929
12713TIP3    H259631   0.415   2.799   5.044 -0.2906  0.6058 -0.0119
12714TIP3   OH259632   5.711   3.794   3.869  0.0734  0.2192  0.6281
12714TIP3    H159633   5.784   3.748   3.911 -0.3791 -0.3408  0.8038
12714TIP3    H259634   5.671   3.845   3.940  0.4396  0.7280  0.4792
12715TIP3   OH259635   3.647   1.489   4.500  0.3172  0.3314 -0.6978
12715TIP3    H159636   3.666   1.557   4.435  1.4794 -0.0469 -0.7713
12715TIP3    H259637   3.602   1.421   4.450  1.8841 -0.3002 -1.3012
12716TIP3   OH259638   5.325   1.188   5.135 -0.7035  0.1486  0.0867
12716TIP3    H159639   5.307   1.282   5.135 -1.0377  0.0827 -0.1898
12716TIP3    H259640   5.311   1.160   5.045  1.6812  0.2643 -0.3958
12717TIP3   OH259641   4.512   1.977   5.558 -0.2333  0.2308  0.6713
12717TIP3    H159642   4.483   2.062   5.524 -1.6541 -0.1276  0.8927
12717TIP3    H259643   4.430   1.929   5.574  0.5426 -1.2249  0.4504
12718TIP3   OH259644   6.741   1.079   4.980 -0.6145 -0.4888  0.3668
12718TIP3    H159645   6.689   0.999   4.985  2.9404 -3.0632  0.1753
12718TIP3    H259646   6.808   1.068   5.048  1.7261  0.9003 -1.5535
12719TIP3   OH259647   3.680   3.155   3.476  0.2431 -0.0258  0.0691
12719TIP3    H159648   3.686   3.244   3.442 -1.2123 -0.0766 -0.3663
12719TIP3    H259649   3.604   3.156   3.534 -1.0320 -1.4199 -1.4582
12720TIP3   OH259650   1.297   4.121   4.625  0.5147  0.3975  0.5032
12720TIP3    H159651   1.291   4.174   4.545  1.1088 -0.9193 -0.4628
12720TIP3    H259652   1.212   4.130   4.666  0.6949  2.3068  0.5276
12721TIP3   OH259653   0.647   3.410   4.043 -0.2381  0.1309 -0.1503
12721TIP3    H159654   0.560   3.383   4.014 -1.0288  1.1770  1.1151
12721TIP3    H259655   0.635   3.433   4.135  1.4433  0.0692  0.1088
12722TIP3   OH259656   0.762   5.291   1.567  0.1997 -0.1841  0.0475
12722TIP3    H159657   0.680   5.340   1.574 -0.9610 -1.9290 -0.4851
12722TIP3    H259658   0.829   5.357   1.554 -1.1733  1.2811  0.1301
12723TIP3   OH259659   3.080   2.501   0.148 -0.1172 -0.3241 -0.3444
12723TIP3    H159660   3.057   2.444   0.075 -1.1108  0.4520 -0.6661
12723TIP3    H259661   3.008   2.564   0.152  0.4732  0.3095  0.6128
12724TIP3   OH259662   2.606   2.738   4.297  0.0511  0.1374  0.2454
12724TIP3    H159663   2.512   2.722   4.289 -0.2386  1.0925  1.4434
12724TIP3    H259664   2.646   2.677   4.235 -1.3319 -0.5543 -0.0057
12725TIP3   OH259665   4.467   4.943   2.538  0.3056 -0.3321  0.8458
12725TIP3    H159666   4.435   4.930   2.627  1.5877 -0.5369  1.3016
12725TIP3    H259667   4.495   5.034   2.536  0.4027 -0.3651  0.6955
12726TIP3   OH259668   6.058   3.173   1.042  0.3901 -0.5746  0.5663
12726TIP3    H159669   5.992   3.237   1.016 -0.5181 -1.4028  0.7531
12726TIP3    H259670   6.136   3.197   0.993 -0.4960 -0.5003 -0.8518
12727TIP3   OH259671   5.961   5.808   3.006  0.2189 -0.1706  0.0059
12727TIP3    H159672   5.954   5.885   3.062 -1.7501 -1.1772  1.2369
12727TIP3    H259673   6.056   5.797   2.994  0.5853  1.9398  0.4440
12728TIP3   OH259674   6.040   2.392   1.199  0.6396 -0.2273 -0.2653
12728TIP3    H159675   6.023   2.427   1.287 -0.9006  0.5220 -0.8205
12728TIP3    H259676   6.125   2.428   1.175  2.1053 -2.1192  1.7013
12729TIP3   OH259677   3.341   6.204  14.951  0.4820  0.7176  0.0660
12729TIP3    H159678   3.414   6.265  14.940  2.2236 -1.1002  0.9683
12729TIP3    H259679   3.381   6.117  14.943 -1.4421 -0.3592  1.4699
12730TIP3   OH259680   5.830   5.293   4.442  0.2958  0.7770 -0.5707
12730TIP3    H159681   5.782   5.370   4.473 -0.6836  0.1414 -0.4829
12730TIP3    H259682   5.871   5.258   4.521 -0.1770  0.5679 -0.4166
12731TIP3   OH259683   6.432   0.941   1.589  0.4198  0.1780  0.2329
12731TIP3    H159684   6.440   0.907   1.678  1.4148  0.2655  0.1909
12731TIP3    H259685   6.521   0.965   1.564  0.4908 -1.6457 -1.4983
12732TIP3   OH259686   5.812   2.555  11.569 -0.0072  0.0246  0.1009
12732TIP3    H159687   5.864   2.500  11.628 -0.6467 -1.0761 -0.3350
12732TIP3    H259688   5.722   2.525  11.583 -0.3397  0.8212 -0.3127
12733TIP3   OH259689   2.259   5.634   2.251  0.4180 -0.1356 -0.5147
12733TIP3    H159690   2.251   5.538   2.255  0.2478 -0.1148 -0.3156
12733TIP3    H259691   2.169   5.665   2.261  0.6179  0.0844  0.8663
12734TIP3   OH259692   0.756   3.752   3.176  0.5522  0.3748  0.0548
12734TIP3    H159693   0.684   3.776   3.234  0.4488 -0.0732  0.1191
12734TIP3    H259694   0.801   3.834   3.158  0.1140  0.6349  0.1346
12735TIP3   OH259695   5.351   2.415   3.031  0.0614  0.3901  0.0877
12735TIP3    H159696   5.367   2.503   3.064 -1.0929  0.2961  0.9568
12735TIP3    H259697   5.400   2.358   3.091  0.0538  0.3749  0.0792
12736TIP3   OH259698   3.466   2.349  12.770  0.1685 -0.5883  0.5879
12736TIP3    H159699   3.387   2.389  12.735  0.9522 -0.4081 -1.1027
12736TIP3    H259700   3.437   2.301  12.847 -1.2254  1.1619  1.2279
12737TIP3   OH259701   1.716   4.664   4.026  0.4058 -0.0870 -0.4589
12737TIP3    H159702   1.777   4.706   4.086  0.3842 -0.2105 -0.3492
12737TIP3    H259703   1.703   4.728   3.956 -0.3491  0.4773  0.1685
12738TIP3   OH259704   4.161   4.546   5.363 -0.1399 -0.0194  0.2197
12738TIP3    H159705   4.143   4.454   5.381 -0.0992 -0.1669 -0.4641
12738TIP3    H259706   4.101   4.594   5.420 -1.9193 -0.4979 -1.1481
12739TIP3   OH259707   1.742   1.571  16.652 -0.0204 -0.0772  0.1961
12739TIP3    H159708   1.785   1.536  16.573  0.2806  1.8785 -0.5579
12739TIP3    H259709   1.651   1.582  16.626 -0.2361 -0.7938  0.6177
12740TIP3   OH259710   2.939   6.090   2.109  0.2377  0.0152  0.2691
12740TIP3    H159711   2.928   6.164   2.168  1.2498 -0.2876  0.8587
12740TIP3    H259712   2.863   6.094   2.050  0.4269  1.6681  0.1055
12741TIP3   OH259713   1.537   6.644  12.056  0.0763 -0.1662 -0.2590
12741TIP3    H159714   1.535   6.720  11.999  0.3112 -0.5088 -0.7304
12741TIP3    H259715   1.554   6.680  12.143  0.9678  0.2560 -0.5982
12742TIP3   OH259716   6.081   2.472  16.389  0.2377 -0.3525 -0.4066
12742TIP3    H159717   6.100   2.510  16.474  1.6137 -2.3795  0.2516
12742TIP3    H259718   6.002   2.419  16.403 -0.4418  0.5109 -0.8137
12743TIP3   OH259719   6.734   3.830   4.463  0.0745  0.2333 -0.4443
12743TIP3    H159720   6.811   3.806   4.411 -1.0263 -0.0226 -2.0373
12743TIP3    H259721   6.749   3.921   4.489  0.5784  0.4114 -1.3398
12744TIP3   OH259722   5.787   1.951   3.592 -0.2241 -0.6281 -0.0352
12744TIP3    H159723   5.819   1.921   3.508 -0.9647 -0.3151 -0.4432
12744TIP3    H259724   5.736   1.877   3.626  0.3480 -0.8766  0.3007
12745TIP3   OH259725   4.543   4.571  11.727  0.2850  0.7745 -0.2574
12745TIP3    H159726   4.566   4.649  11.779  0.7897 -1.0978  2.5133
12745TIP3    H259727   4.622   4.516  11.730 -1.1783 -1.3830  0.8979
12746TIP3   OH259728   2.405   4.375   0.629  0.3274 -1.0448 -0.2079
12746TIP3    H159729   2.382   4.351   0.539 -0.8327 -2.7854  0.4936
12746TIP3    H259730   2.500   4.364   0.634  0.6461  0.7723 -1.6688
12747TIP3   OH259731   0.482   5.852  15.303  0.0696  0.8712  0.0145
12747TIP3    H159732   0.555   5.865  15.243 -0.6404 -0.0895 -1.1177
12747TIP3    H259733   0.516   5.876  15.389  1.8174  0.1100 -0.4280
12748TIP3   OH259734   3.793   0.762  14.751 -0.2344  0.8032 -0.9957
12748TIP3    H159735   3.809   0.672  14.723 -2.4946  0.3824 -1.0949
12748TIP3    H259736   3.856   0.814  14.700  1.4497 -0.7274 -0.5597
12749TIP3   OH259737   2.055   5.382  13.238  0.2340  0.4274 -0.4120
12749TIP3    H159738   1.967   5.353  13.215  0.3454 -0.1124 -0.1652
12749TIP3    H259739   2.106   5.368  13.159  0.5450 -1.1323  0.0437
12750TIP3   OH259740   1.523   3.703   4.857 -0.3976  0.1980 -0.3249
12750TIP3    H159741   1.532   3.691   4.951  0.6064  0.9089 -0.3151
12750TIP3    H259742   1.571   3.630   4.818  2.0469  1.6687 -0.2601
12751TIP3   OH259743   5.910   1.332   2.848  0.5871  0.3717 -0.1536
12751TIP3    H159744   5.880   1.263   2.907  0.6563  0.6772  0.2447
12751TIP3    H259745   5.904   1.413   2.900  0.5329  0.6618 -0.6048
12752TIP3   OH259746   1.467   0.500  11.262  0.3171  0.1258  0.6865
12752TIP3    H159747   1.558   0.490  11.292  0.4578 -0.6061  0.0579
12752TIP3    H259748   1.414   0.476  11.338  0.6526 -0.2509  0.8055
12753TIP3   OH259749   0.604   5.446   0.743  0.1926 -0.4274  0.2851
12753TIP3    H159750   0.574   5.445   0.834 -0.0438 -0.6977  0.2070
12753TIP3    H259751   0.592   5.536   0.714 -0.2362 -0.4571  0.3614
12754TIP3   OH259752   3.179   3.793  11.484 -0.5171 -0.0790  0.3798
12754TIP3    H159753   3.216   3.768  11.400  0.6459 -1.2989  1.2057
12754TIP3    H259754   3.193   3.888  11.489  0.0096 -0.1006 -0.5213
12755TIP3   OH259755   5.965   4.261   5.658  0.4025  0.6800 -0.5212
12755TIP3    H159756   5.879   4.290   5.689  0.0993  0.9177 -1.5646
12755TIP3    H259757   5.960   4.266   5.563  0.6724 -1.8033 -0.7507
12756TIP3   OH259758   6.595   4.534  14.788  0.3054 -0.2248  0.0757
12756TIP3    H159759   6.554   4.544  14.874  0.3504 -0.0046  0.0732
12756TIP3    H259760   6.672   4.479  14.805 -0.3106 -1.1356 -0.0252
12757TIP3   OH259761   3.278   4.575  10.991 -0.1262 -0.0404 -0.4613
12757TIP3    H159762   3.291   4.660  10.949 -1.6221 -0.1247 -1.1405
12757TIP3    H259763   3.183   4.562  10.992 -0.0822 -0.5738  1.9414
12758TIP3   OH259764   3.050   3.667  14.999 -0.2728 -0.3056 -0.0516
12758TIP3    H159765   2.980   3.728  14.976 -2.2262 -1.8093  1.5672
12758TIP3    H259766   3.034   3.589  14.946  0.7426 -0.3588 -0.3146
12759TIP3   OH259767   4.904   2.517   3.733 -0.7496 -0.2400  0.3799
12759TIP3    H159768   4.905   2.608   3.702 -2.3808  0.0117  0.9395
12759TIP3    H259769   4.977   2.475   3.688 -1.1264  0.8710 -1.3701
12760TIP3   OH259770   2.786   6.232  11.246  0.0156  0.8833  0.2914
12760TIP3    H159771   2.727   6.225  11.321 -1.4765  2.1449 -0.7047
12760TIP3    H259772   2.870   6.200  11.278 -0.3956  2.0677  2.7006
12761TIP3   OH259773   6.419   5.500   0.486 -0.0026  0.2359  0.0383
12761TIP3    H159774   6.344   5.528   0.433  0.3038  1.2117  0.0955
12761TIP3    H259775   6.396   5.412   0.515 -0.5622  0.0246 -0.9885
12762TIP3   OH259776   4.338   0.949   1.869  0.0661 -0.0620  0.3688
12762TIP3    H159777   4.430   0.977   1.867  0.2973 -0.7041  1.2285
12762TIP3    H259778   4.317   0.945   1.962 -0.9317  0.3472  0.1723
12763TIP3   OH259779   2.235   2.699  15.508  0.0318 -0.0019 -0.4612
12763TIP3    H159780   2.150   2.702  15.551 -0.5231  1.1476 -1.5819
12763TIP3    H259781   2.215   2.689  15.415  1.2001 -2.4235 -0.5393
12764TIP3   OH259782   6.446   1.545   4.802 -0.1449 -0.1507 -0.9487
12764TIP3    H159783   6.411   1.550   4.891  2.2593  1.2642 -0.0044
12764TIP3    H259784   6.371   1.519   4.749 -1.5469 -1.5268  1.5323
12765TIP3   OH259785   1.522   4.337   5.900  0.1114 -0.0290  0.1744
12765TIP3    H159786   1.609   4.343   5.939 -0.3436 -1.2726  1.5175
12765TIP3    H259787   1.486   4.426   5.907  1.1432  0.4162 -0.0936
12766TIP3   OH259788   1.162   1.105  13.421 -0.0510  0.0177 -0.5181
12766TIP3    H159789   1.146   1.078  13.511 -1.9171 -1.3266 -1.2078
12766TIP3    H259790   1.233   1.048  13.391 -1.6680 -1.8900 -0.8925
12767TIP3   OH259791   6.357   4.500   1.962 -0.0854 -0.1384  0.2786
12767TIP3    H159792   6.357   4.466   2.052 -0.2321  0.0213  0.3384
12767TIP3    H259793   6.338   4.423   1.908  0.8475 -0.4058  0.3195
12768TIP3   OH259794   1.759   2.944   2.176 -0.3531 -0.5459  0.2569
12768TIP3    H159795   1.751   2.922   2.083 -1.9378  1.1071 -0.0682
12768TIP3    H259796   1.789   2.864   2.217  0.1359 -1.4017 -1.6459
12769TIP3   OH259797   6.267   5.348  16.845 -0.0035  0.1065  0.1727
12769TIP3    H159798   6.196   5.368  16.905  0.4640  0.8597  0.5022
12769TIP3    H259799   6.342   5.396  16.880  0.3218  0.4210 -0.9039
12770TIP3   OH259800   2.736   6.196   0.407  0.2332 -0.3031 -0.3788
12770TIP3    H159801   2.795   6.211   0.333  0.9841  0.3708  0.3402
12770TIP3    H259802   2.791   6.155   0.474 -0.0877  0.4130  0.3306
12771TIP3   OH259803   5.031   1.530  16.931  0.0913  0.0765  0.1632
12771TIP3    H159804   5.029   1.498  16.841  0.3707  0.7571 -0.0955
12771TIP3    H259805   5.114   1.576  16.939  0.0389  0.0800  0.7514
12772TIP3   OH259806   6.726   0.894   5.792  0.0964 -0.2366 -0.2591
12772TIP3    H159807   6.649   0.933   5.751  0.7323  2.3744  0.7667
12772TIP3    H259808   6.692   0.818   5.840 -1.5816  0.0212 -0.9595
12773TIP3   OH259809   3.337   1.324   0.277  0.6237  0.2095  0.1606
12773TIP3    H159810   3.379   1.400   0.237  0.1919  0.3292 -0.0754
12773TIP3    H259811   3.334   1.259   0.208  2.1677 -0.5128  0.7208
12774TIP3   OH259812   1.698   5.142   1.193  0.3037 -0.1299 -0.0037
12774TIP3    H159813   1.650   5.070   1.150  0.8823 -0.1269 -0.6783
12774TIP3    H259814   1.653   5.155   1.276 -2.2198  1.3002 -1.4843
12775TIP3   OH259815   1.146   5.614  14.112  0.4324 -0.5890 -0.4434
12775TIP3    H159816   1.193   5.675  14.055  0.4792  0.1875  0.4117
12775TIP3    H259817   1.054   5.628  14.090  0.4258 -0.0088 -0.0550
12776TIP3   OH259818   2.028   5.705   2.645 -0.4428  0.5765  0.6216
12776TIP3    H159819   2.042   5.611   2.647 -0.9082  0.5090  1.0328
12776TIP3    H259820   1.933   5.715   2.638 -0.3688  1.0127  0.2016
12777TIP3   OH259821   6.510   1.295  13.982  0.2672 -0.0012 -0.3401
12777TIP3    H159822   6.599   1.309  13.951 -0.7411  0.6163 -3.3378
12777TIP3    H259823   6.479   1.219  13.932 -1.5877  1.2120 -1.1230
12778TIP3   OH259824   5.343   1.642  11.518  0.3177  0.4862 -0.2466
12778TIP3    H159825   5.424   1.692  11.510  1.2600 -1.0882 -0.8723
12778TIP3    H259826   5.309   1.637  11.428  1.0745 -1.3143 -0.4599
12779TIP3   OH259827   4.432   3.999   6.135  0.5669 -0.0140  0.1087
12779TIP3    H159828   4.505   3.939   6.148 -0.3753 -0.6884  3.0681
12779TIP3    H259829   4.354   3.943   6.141 -0.2937  1.2490  1.6483
12780TIP3   OH259830   2.696   1.121   3.012  0.0677 -0.0577 -0.9580
12780TIP3    H159831   2.774   1.112   2.958  1.0191 -1.1048  0.5082
12780TIP3    H259832   2.689   1.215   3.029  1.8862 -0.0494  0.0552
12781TIP3   OH259833   0.037   6.064  12.413  0.7366  0.4669  0.3388
12781TIP3    H159834   0.077   5.999  12.472 -1.2166 -2.5194 -1.3774
12781TIP3    H259835  -0.055   6.067  12.439 -0.0924 -0.6525 -2.1679
12782TIP3   OH259836   0.895   3.837  11.193  0.4406 -0.3079  0.2136
12782TIP3    H159837   0.845   3.787  11.258  0.4832  1.8752  2.0514
12782TIP3    H259838   0.835   3.845  11.119 -0.6594 -0.6534  1.0299
12783TIP3   OH259839   0.899   2.163  16.519 -0.2546  0.4703 -0.1239
12783TIP3    H159840   0.845   2.204  16.587 -0.1046 -0.2213  0.4259
12783TIP3    H259841   0.962   2.231  16.495 -0.8453  1.0050 -0.1780
12784TIP3   OH259842   2.880   6.565  15.926  0.4071 -0.4109 -0.0390
12784TIP3    H159843   2.794   6.549  15.886  0.4182 -0.0098 -0.2343
12784TIP3    H259844   2.869   6.649  15.971  0.8254 -0.1445 -0.4340
12785TIP3   OH259845   6.514   4.143  13.149  0.1921 -0.0197  0.7121
12785TIP3    H159846   6.609   4.135  13.153  0.3041  0.3096 -0.6709
12785TIP3    H259847   6.497   4.179  13.062 -1.4560 -4.6396 -1.2186
12786TIP3   OH259848   6.585   6.476   3.602 -0.1932 -0.2308  0.3518
12786TIP3    H159849   6.612   6.385   3.606 -0.1514 -0.1866  1.1624
12786TIP3    H259850   6.491   6.473   3.583  0.0016 -0.4178 -0.6117
12787TIP3   OH259851   3.702   1.476  16.987 -0.0944  0.3881 -0.6525
12787TIP3    H159852   3.723   1.498  16.897  0.8252 -1.5246 -0.9712
12787TIP3    H259853   3.678   1.383  16.984 -2.1686  0.7946  0.7684
12788TIP3   OH259854   4.957   0.851  13.131  0.2333 -0.1459  0.2070
12788TIP3    H159855   4.925   0.874  13.219 -0.3467 -0.0952 -0.0199
12788TIP3    H259856   4.990   0.762  13.141  1.5149  0.3576  0.8306
12789TIP3   OH259857   4.903   0.831  16.412  0.0077 -0.3668  0.1235
12789TIP3    H159858   4.862   0.881  16.341  0.9789 -0.5963 -0.6063
12789TIP3    H259859   4.830   0.788  16.456 -0.4969 -1.4066 -1.6457
12790TIP3   OH259860   6.536   3.590   6.484  0.1759 -0.1426  0.0006
12790TIP3    H159861   6.556   3.500   6.457 -1.9698 -0.7202  0.1485
12790TIP3    H259862   6.497   3.630   6.406 -0.6799  0.0181  0.5004
12791TIP3   OH259863   2.460   4.274   3.532 -0.3106 -0.0332 -0.0555
12791TIP3    H159864   2.487   4.206   3.471  0.4934 -0.4212  0.7142
12791TIP3    H259865   2.505   4.353   3.502 -0.4353 -0.0674 -0.3384
12792TIP3   OH259866   4.022   2.169   0.271  0.5347  0.2514  0.0622
12792TIP3    H159867   4.016   2.074   0.278 -1.9492  0.3266 -0.1729
12792TIP3    H259868   4.007   2.200   0.361  1.9839  0.4566  0.2660
12793TIP3   OH259869   5.777   4.170  14.725  0.0566 -0.2115 -0.3544
12793TIP3    H159870   5.802   4.260  14.705 -1.3718  0.2099 -0.3573
12793TIP3    H259871   5.811   4.154  14.813  1.5992 -0.1978 -0.9153
12794TIP3   OH259872   6.763   4.362  14.916  0.0832 -0.3157 -0.5487
12794TIP3    H159873   6.715   4.304  14.975  0.0075 -1.9000 -2.0951
12794TIP3    H259874   6.855   4.347  14.937  0.0267  0.6483  0.5061
12795TIP3   OH259875   4.927   4.744   6.451  0.4188 -0.4292 -0.1743
12795TIP3    H159876   4.853   4.684   6.454 -0.2775  0.3628 -0.8257
12795TIP3    H259877   4.952   4.758   6.542 -0.3043 -0.6155  0.0527
12796TIP3   OH259878   0.635   5.927   5.445 -0.6877  0.2092 -0.1130
12796TIP3    H159879   0.625   5.832   5.444  0.6314 -0.0369  2.4796
12796TIP3    H259880   0.585   5.956   5.521 -1.9650  1.7774 -1.4776
12797TIP3   OH259881   3.583   4.841  10.404  0.1634  0.8843 -0.2288
12797TIP3    H159882   3.609   4.874  10.491  0.0631  1.0658 -0.2652
12797TIP3    H259883   3.487   4.842  10.407  0.1429  1.9052 -0.7082
12798TIP3   OH259884   3.964   4.419   2.865 -0.3751  0.0174  0.4437
12798TIP3    H159885   3.933   4.443   2.953 -0.3744 -0.1893  0.5002
12798TIP3    H259886   3.884   4.408   2.814 -0.3701  1.6741 -0.0040
12799TIP3   OH259887   0.768   1.466  14.293  0.1255 -0.3274 -0.2754
12799TIP3    H159888   0.757   1.498  14.382  0.4331 -1.3965  0.1555
12799TIP3    H259889   0.837   1.521  14.256 -0.1676  0.2781  0.0599
12800TIP3   OH259890   5.432   4.867   4.354  0.2829  0.6484 -0.2535
12800TIP3    H159891   5.448   4.895   4.264  0.5674 -0.7535 -0.6650
12800TIP3    H259892   5.338   4.879   4.367  0.0527 -0.1388 -1.1129
12801TIP3   OH259893   3.064   5.837  11.731  0.2983  0.6590 -0.3461
12801TIP3    H159894   2.997   5.769  11.736  0.1517  0.7596 -0.8900
12801TIP3    H259895   3.081   5.848  11.637 -1.1775  2.8110 -0.4389
12802TIP3   OH259896   1.530   0.309  16.524  0.2066 -0.2796 -1.1411
12802TIP3    H159897   1.461   0.356  16.570 -0.1688  1.1153 -3.0262
12802TIP3    H259898   1.564   0.372  16.460  2.2230 -1.4063 -1.2692
12803TIP3   OH259899   6.379   5.664   2.071  0.5930  0.4692 -0.2513
12803TIP3    H159900   6.466   5.656   2.031 -0.1439  1.6007 -2.1990
12803TIP3    H259901   6.326   5.598   2.025  0.0673  0.8299 -0.1704
12804TIP3   OH259902   3.951   2.234  16.695  0.0100 -0.1916  0.6472
12804TIP3    H159903   3.924   2.268  16.781  0.2767  0.5315  0.4514
12804TIP3    H259904   3.901   2.153  16.684 -1.3850  0.6475  0.6953
12805TIP3   OH259905   2.563   6.235  13.288 -0.0571  0.7332 -0.6243
12805TIP3    H159906   2.625   6.294  13.246  0.6323 -0.6872 -1.6622
12805TIP3    H259907   2.613   6.156  13.307 -1.1716  0.1313 -0.0783
12806TIP3   OH259908   4.807   3.783   1.137 -0.2008  0.4595 -0.0365
12806TIP3    H159909   4.857   3.789   1.218 -0.2143  0.9245 -0.0576
12806TIP3    H259910   4.873   3.784   1.068 -0.2572  2.0753 -0.1071
12807TIP3   OH259911   1.220   1.346   2.604  0.2190 -0.0127 -0.2599
12807TIP3    H159912   1.261   1.378   2.684 -2.0043  1.2947  0.4445
12807TIP3    H259913   1.137   1.308   2.634 -1.8014  2.6036 -2.0555
12808TIP3   OH259914   3.950   2.263  15.619 -0.4436 -0.4835  0.4181
12808TIP3    H159915   4.025   2.310  15.582 -0.4413 -0.4135  0.5105
12808TIP3    H259916   3.874   2.299  15.572 -0.5034  0.0508  0.9092
12809TIP3   OH259917   4.519   5.168   3.608 -0.1638  0.2127 -0.4709
12809TIP3    H159918   4.579   5.242   3.615  0.2229 -0.1780  0.6020
12809TIP3    H259919   4.563   5.107   3.549  2.9778 -2.2355  3.8196
12810TIP3   OH259920   2.994   3.814   2.818  0.2462  0.4724  0.5299
12810TIP3    H159921   3.042   3.788   2.740 -1.2457  1.8051 -0.9249
12810TIP3    H259922   3.055   3.869   2.867  1.3730 -0.7945  0.5867
12811TIP3   OH259923   5.071   1.257   1.386 -0.1090  0.2964 -0.2292
12811TIP3    H159924   5.063   1.280   1.479  0.6446  2.4627 -0.6669
12811TIP3    H259925   5.005   1.310   1.342  0.6053  0.4814 -1.1068
12812TIP3   OH259926   2.282   6.443   3.486 -0.4747  0.5450  0.4140
12812TIP3    H159927   2.375   6.425   3.476 -0.4522  0.6944  0.3605
12812TIP3    H259928   2.240   6.357   3.478 -0.3600  0.5060  0.2302
12813TIP3   OH259929   6.324   2.921   0.947  0.0542 -0.3983 -0.2821
12813TIP3    H159930   6.256   2.923   0.879 -0.0053  0.0608 -0.2150
12813TIP3    H259931   6.367   3.006   0.940  0.8666 -0.8234 -0.5667
12814TIP3   OH259932   4.332   0.134  10.649  0.1837 -0.4595 -0.8252
12814TIP3    H159933   4.352   0.042  10.662  0.4192 -0.2611  0.4108
12814TIP3    H259934   4.242   0.136  10.618 -0.7663 -1.0361  1.6340
12815TIP3   OH259935   3.628   0.886  12.601  0.0530  1.1326 -0.5110
12815TIP3    H159936   3.647   0.792  12.602  0.2970  1.1840  0.2328
12815TIP3    H259937   3.558   0.896  12.536  0.1955  0.4753 -0.7725
12816TIP3   OH259938   3.028   4.456  13.273 -0.3949  0.1877  0.0571
12816TIP3    H159939   2.941   4.478  13.239  0.4093  2.8376 -0.4411
12816TIP3    H259940   3.011   4.383  13.334 -2.7708 -0.1717 -0.9210
12817TIP3   OH259941   0.800   5.254  12.554  0.7828  0.2562  0.3101
12817TIP3    H159942   0.758   5.251  12.468  1.9441 -0.8254 -0.2612
12817TIP3    H259943   0.740   5.208  12.612  0.5516 -0.0774 -0.1909
12818TIP3   OH259944   5.807   3.975  16.794  0.2555  0.1594  0.1675
12818TIP3    H159945   5.851   3.911  16.850  1.4430  0.0092 -0.8897
12818TIP3    H259946   5.878   4.025  16.754 -0.6078  1.1186 -0.2181
12819TIP3   OH259947   4.930   2.819   1.269  0.1792 -0.1078  0.3944
12819TIP3    H159948   5.004   2.859   1.224 -0.6544  1.5009  0.3620
12819TIP3    H259949   4.874   2.785   1.199  0.3459 -0.3321  0.3692
12820TIP3   OH259950   4.275   4.458   4.829  0.5037  0.2920  0.0525
12820TIP3    H159951   4.266   4.415   4.914  0.1492 -1.6458 -0.8928
12820TIP3    H259952   4.369   4.463   4.814  0.6169 -2.9841 -1.0665
12821TIP3   OH259953   1.367   1.283   1.690  0.1658  0.0218  0.4221
12821TIP3    H159954   1.411   1.253   1.611 -1.9341  1.3449 -1.3544
12821TIP3    H259955   1.312   1.210   1.717 -1.6162  0.6414 -1.3380
12822TIP3   OH259956   0.979   3.192   5.141  0.2386  0.0741 -0.0785
12822TIP3    H159957   0.936   3.252   5.080  1.6361 -0.7048 -1.9346
12822TIP3    H259958   0.934   3.205   5.225 -1.2390  1.7480 -1.0840
12823TIP3   OH259959   1.942   5.781  15.088 -0.4613  0.4587  0.3203
12823TIP3    H159960   2.023   5.745  15.052 -1.0115  1.0715 -1.6664
12823TIP3    H259961   1.909   5.838  15.019 -1.8012  1.4305  1.7057
12824TIP3   OH259962   3.866   6.635   0.404  0.2405 -0.5402 -0.3005
12824TIP3    H159963   3.941   6.596   0.449  1.1356  0.3151 -0.9832
12824TIP3    H259964   3.820   6.561   0.365 -0.0914 -1.2085  1.2897
12825TIP3   OH259965   3.180   0.681   0.647  0.2666 -0.1364 -0.4649
12825TIP3    H159966   3.211   0.631   0.722  2.2689  0.6058 -0.7174
12825TIP3    H259967   3.182   0.772   0.678  0.5970  0.1220 -1.2298
12826TIP3   OH259968   2.031   3.237  14.799  0.1249  0.1792  0.6288
12826TIP3    H159969   1.954   3.279  14.761  0.6027  1.1451  0.7115
12826TIP3    H259970   2.094   3.308  14.811  1.8875 -0.9094 -1.4904
12827TIP3   OH259971   3.024   2.349  16.863  0.1975  0.8619 -0.1705
12827TIP3    H159972   3.000   2.340  16.771 -0.6616  0.9017  0.0317
12827TIP3    H259973   2.951   2.399  16.901  0.3166  0.4507  0.6169
12828TIP3   OH259974   0.836   4.837   4.224  0.2046  0.5212  0.3417
12828TIP3    H159975   0.770   4.773   4.248  1.7275 -1.3335 -0.1467
12828TIP3    H259976   0.851   4.888   4.304 -0.3407 -0.3758  1.0317
12829TIP3   OH259977   3.407   4.534  16.780  0.5269  0.3034 -0.1133
12829TIP3    H159978   3.386   4.476  16.853  1.2775  0.5861  0.3353
12829TIP3    H259979   3.503   4.530  16.773  0.4978  0.6283 -0.7923
12830TIP3   OH259980   3.833   2.955  13.491  0.1308  0.1405  0.5043
12830TIP3    H159981   3.881   2.872  13.487  2.1532  1.1511  2.0863
12830TIP3    H259982   3.901   3.022  13.498 -1.4734  1.8438  0.5490
12831TIP3   OH259983   1.629   0.506   0.729  0.6523  0.0809  0.9357
12831TIP3    H159984   1.673   0.422   0.736  0.3501 -0.4889 -2.3488
12831TIP3    H259985   1.696   0.567   0.698  0.0098  0.0619 -0.5724
12832TIP3   OH259986   3.550   4.638  13.984 -0.1289 -0.1709  0.3097
12832TIP3    H159987   3.535   4.564  13.925  0.3279 -1.6116  1.9219
12832TIP3    H259988   3.465   4.682  13.989 -0.1261  0.0995 -1.5360
12833TIP3   OH259989   3.845   5.933  13.892 -0.3553  0.1400 -0.9867
12833TIP3    H159990   3.903   5.865  13.925 -0.6371 -0.1040 -0.9892
12833TIP3    H259991   3.904   5.999  13.855 -0.0585  0.2101 -0.3974
12834TIP3   OH259992   6.160   6.464  11.433  0.1374 -0.1206 -0.4254
12834TIP3    H159993   6.118   6.395  11.383 -0.8331  0.6314 -0.6831
12834TIP3    H259994   6.100   6.480  11.507 -0.9285  2.0579 -1.6553
12835TIP3   OH259995   1.424   4.455  14.191  0.2241  0.1663 -0.0008
12835TIP3    H159996   1.493   4.389  14.199 -0.0776  0.0469  2.6377
12835TIP3    H259997   1.469   4.539  14.202  0.2847  0.2815 -1.0210
12836TIP3   OH259998   5.354   5.708  11.102  0.4650 -0.5211 -0.6195
12836TIP3    H159999   5.326   5.749  11.021  1.3396 -1.3049 -1.3383
12836TIP3    H260000   5.408   5.774  11.146 -1.5180  0.6023  0.2682
12837TIP3   OH260001   5.175   0.506   4.826 -0.2636 -0.5485  0.0052
12837TIP3    H160002   5.157   0.580   4.767 -1.5004 -0.6507  0.2300
12837TIP3    H260003   5.268   0.514   4.846  0.2245 -0.5920 -2.0629
12838TIP3   OH260004   5.050   1.033  16.519 -0.4141 -0.2778  0.1592
12838TIP3    H160005   5.128   1.049  16.465 -1.1167 -1.5615 -1.3153
12838TIP3    H260006   5.006   0.960  16.475 -2.2800  0.2146  1.1535
12839TIP3   OH260007   4.711   2.475  13.554  0.0907 -0.1659 -0.2049
12839TIP3    H160008   4.706   2.558  13.506  0.4200 -0.4411 -0.7256
12839TIP3    H260009   4.760   2.496  13.634  0.0863  0.1624 -0.2871
12840TIP3   OH260010   2.317   1.258   1.560 -0.4425 -0.5605 -0.3049
12840TIP3    H160011   2.237   1.297   1.597  0.0213 -0.9646  1.1879
12840TIP3    H260012   2.374   1.333   1.542  0.0767 -0.4022  1.6733
12841TIP3   OH260013   5.127   1.610   4.799 -0.7674  0.0054  0.4430
12841TIP3    H160014   5.168   1.692   4.826  0.4892 -0.2993 -0.4533
12841TIP3    H260015   5.033   1.625   4.812 -0.5764  1.6073  0.2245
12842TIP3   OH260016   0.800   0.268   5.786  0.2957 -0.4034  0.4873
12842TIP3    H160017   0.886   0.307   5.772  0.1398 -0.4474 -0.6551
12842TIP3    H260018   0.750   0.288   5.707 -0.1991 -1.8039  0.4020
12843TIP3   OH260019   5.369   1.744   3.747  0.3294 -0.6846  0.4409
12843TIP3    H160020   5.434   1.700   3.693  3.1541  0.9472  2.2302
12843TIP3    H260021   5.392   1.837   3.741 -1.8820 -0.0229  1.1786
12844TIP3   OH260022   2.146   3.847  10.551  0.3904 -0.1397  0.1889
12844TIP3    H160023   2.064   3.800  10.563 -0.7986  1.7403 -0.1825
12844TIP3    H260024   2.186   3.806  10.474 -0.7454 -0.3651 -0.2969
12845TIP3   OH260025   6.656   1.027  16.727 -0.3465 -0.3280 -0.3158
12845TIP3    H160026   6.737   0.985  16.697 -0.3997 -0.1063 -0.7947
12845TIP3    H260027   6.684   1.089  16.794 -0.1175 -0.2786 -0.4556
12846TIP3   OH260028   3.917   1.067  10.487  0.6174 -0.3349 -0.5921
12846TIP3    H160029   3.874   0.984  10.465  0.0646 -0.3488  0.5007
12846TIP3    H260030   4.002   1.040  10.523 -0.2967 -0.5689  1.5401
12847TIP3   OH260031   3.777   3.473   3.900  0.5007 -0.3926 -0.3250
12847TIP3    H160032   3.740   3.496   3.986  1.6108 -0.9089  0.3162
12847TIP3    H260033   3.706   3.431   3.853 -0.4619  0.9033 -0.0944
12848TIP3   OH260034   5.552   0.079  12.473 -0.0829 -0.0340  0.1269
12848TIP3    H160035   5.464   0.114  12.477  0.4240  1.2008  1.2049
12848TIP3    H260036   5.605   0.150  12.436  0.3083 -1.1448 -1.5745
12849TIP3   OH260037   5.191   4.324   4.323  0.4942  0.1138  0.2232
12849TIP3    H160038   5.136   4.355   4.395  0.1554  0.0987 -0.0269
12849TIP3    H260039   5.157   4.369   4.246  1.9180  1.4388  0.3125
12850TIP3   OH260040   6.522   3.404  13.102  0.7302 -0.7348 -0.2442
12850TIP3    H160041   6.443   3.378  13.054  1.0728  0.0902 -1.2957
12850TIP3    H260042   6.575   3.450  13.037  1.8721 -0.8628  0.5716
12851TIP3   OH260043   3.618   4.743   2.994 -0.0114 -0.3982  0.4312
12851TIP3    H160044   3.595   4.745   3.087 -1.8837  0.1657  0.0052
12851TIP3    H260045   3.537   4.766   2.949  1.1796  0.6334 -1.3121
12852TIP3   OH260046   5.583   3.893  15.445  0.7808 -0.3827 -0.3898
12852TIP3    H160047   5.504   3.944  15.428  0.6207 -0.9838 -1.5945
12852TIP3    H260048   5.626   3.937  15.519 -1.2218 -0.6709  1.0231
12853TIP3   OH260049   4.195   3.225  12.211 -0.9131 -0.0016 -0.5290
12853TIP3    H160050   4.156   3.170  12.280  0.2050  0.4861  0.5318
12853TIP3    H260051   4.122   3.245  12.152 -2.7558  2.3053  2.2734
12854TIP3   OH260052   1.945   1.231  15.747 -0.6254 -0.2537 -0.0992
12854TIP3    H160053   1.882   1.299  15.724 -0.5073 -0.1927 -0.2461
12854TIP3    H260054   2.010   1.234  15.676  0.1572  0.4500  0.6251
12855TIP3   OH260055   0.903   5.458  14.248 -0.1466 -0.5179 -0.7939
12855TIP3    H160056   0.872   5.545  14.273 -1.8856 -1.1135 -0.7741
12855TIP3    H260057   0.828   5.417  14.206  0.6448 -2.0190 -0.8038
12856TIP3   OH260058   1.788   3.325   0.459  0.4312 -0.7133 -0.0309
12856TIP3    H160059   1.763   3.318   0.551  0.2576 -0.4928 -0.0596
12856TIP3    H260060   1.881   3.348   0.461 -0.0163  1.2808  0.1427
12857TIP3   OH260061   0.729   6.673   3.707  0.4442  0.0708 -0.0628
12857TIP3    H160062   0.720   6.756   3.660  0.8616 -0.0411 -0.3436
12857TIP3    H260063   0.789   6.621   3.654  1.3655  0.1454  0.8601
12858TIP3   OH260064   5.525   3.208   0.160  0.1014 -0.7230  0.5501
12858TIP3    H160065   5.487   3.266   0.225  0.0330 -1.3416  1.0691
12858TIP3    H260066   5.464   3.212   0.086  0.3538  0.2380  0.3744
12859TIP3   OH260067   6.277   0.556  14.406  0.2370 -0.6303  0.5874
12859TIP3    H160068   6.317   0.585  14.324 -1.2147  1.9138  0.6711
12859TIP3    H260069   6.336   0.488  14.439  1.7536 -0.5349 -1.7099
12860TIP3   OH260070   5.136   4.909   3.538  0.1517  0.3676 -0.1019
12860TIP3    H160071   5.119   4.957   3.456  0.6942  1.5363  0.4412
12860TIP3    H260072   5.106   4.969   3.606 -0.8468 -0.8410  0.5512
12861TIP3   OH260073   5.058   4.048  12.538 -0.5118 -0.0767 -0.7157
12861TIP3    H160074   5.129   4.076  12.597 -1.1521 -0.0519  0.0671
12861TIP3    H260075   5.065   4.106  12.463  0.2968 -0.0668 -0.6420
12862TIP3   OH260076   6.069   4.937  13.698 -0.0864  0.3859  0.4479
12862TIP3    H160077   6.144   4.986  13.732  0.6066 -0.4628  0.2125
12862TIP3    H260078   6.098   4.845  13.703 -1.0256  0.0662  0.1233
12863TIP3   OH260079   2.269   1.246  13.822 -0.3934 -0.1842  0.3702
12863TIP3    H160080   2.231   1.193  13.892 -0.9738  1.4816  1.3743
12863TIP3    H260081   2.364   1.232  13.830 -0.2650  1.4570  2.8210
12864TIP3   OH260082   4.674   5.533   6.654  0.6274 -0.2722  0.7010
12864TIP3    H160083   4.675   5.463   6.589  0.7440  0.2395  0.1431
12864TIP3    H260084   4.610   5.505   6.719 -0.6514 -0.0727 -0.4316
12865TIP3   OH260085   1.374   2.064   0.686 -0.5739 -0.4319 -0.7263
12865TIP3    H160086   1.455   2.089   0.730 -0.0319  0.1604 -2.0287
12865TIP3    H260087   1.322   2.145   0.683 -1.6242 -0.9920  0.8743
12866TIP3   OH260088   4.493   0.428   6.345  0.6526 -0.3036  0.6010
12866TIP3    H160089   4.566   0.485   6.321  0.0590  0.6287  0.9319
12866TIP3    H260090   4.470   0.454   6.434 -0.3459 -0.2785  0.3565
12867TIP3   OH260091   3.170   3.369   3.617 -0.7273 -0.3010 -0.1337
12867TIP3    H160092   3.133   3.289   3.654  0.4736 -1.0606 -0.4996
12867TIP3    H260093   3.174   3.352   3.523 -1.1623  0.4988 -0.3082
12868TIP3   OH260094   3.903   3.427  12.350 -0.4536 -0.0066 -0.2818
12868TIP3    H160095   3.966   3.364  12.316  0.5336  0.1899  1.0970
12868TIP3    H260096   3.822   3.407  12.304  0.0503 -1.7331 -0.4843
12869TIP3   OH260097   2.111   2.533   3.810 -0.0498  0.0668  0.4962
12869TIP3    H160098   2.116   2.623   3.842  0.4730  0.5244 -0.7780
12869TIP3    H260099   2.018   2.511   3.812 -0.6310  1.7967 -2.0344
12870TIP3   OH260100   6.155   0.776  15.861  0.4368 -0.8951 -0.4454
12870TIP3    H160101   6.087   0.724  15.818  1.0603 -1.6036 -0.6044
12870TIP3    H260102   6.228   0.777  15.799 -0.2943  2.0279 -1.3824
12871TIP3   OH260103   0.807   4.757   5.624 -0.1699  0.6250 -0.1784
12871TIP3    H160104   0.758   4.687   5.580  1.1222 -1.0121  0.8790
12871TIP3    H260105   0.870   4.786   5.558 -0.7586  0.8699 -0.6481
12872TIP3   OH260106   4.922   5.404  13.155  0.1511  0.2409 -0.2544
12872TIP3    H160107   4.890   5.389  13.066  0.2853 -1.9066 -0.0027
12872TIP3    H260108   4.937   5.316  13.190  1.9236  1.0707  1.2431
12873TIP3   OH260109   5.238   1.681   2.309 -0.8041  0.1118 -0.1084
12873TIP3    H160110   5.148   1.678   2.276 -0.7331  0.0031 -0.2948
12873TIP3    H260111   5.269   1.768   2.284 -0.1080 -0.6262 -2.0529
12874TIP3   OH260112   2.381   3.295  11.583 -0.8936  0.5616 -0.2029
12874TIP3    H160113   2.326   3.219  11.599  0.8469 -0.3759  1.6851
12874TIP3    H260114   2.466   3.259  11.558 -0.0155  1.8461  0.7871
12875TIP3   OH260115   0.730   4.354  16.231  0.2088  0.2367  0.4887
12875TIP3    H160116   0.762   4.270  16.197  0.9378  1.9264 -3.6481
12875TIP3    H260117   0.757   4.354  16.323  0.2003 -3.9495  0.7085
12876TIP3   OH260118   0.166   5.923  15.454 -0.0087 -0.0986 -0.0519
12876TIP3    H160119   0.086   5.914  15.402  0.5909  0.8181 -1.1818
12876TIP3    H260120   0.155   6.005  15.501  1.0796  1.1341 -1.8002
12877TIP3   OH260121   0.132   6.391  17.067  0.0305 -0.1816  0.1994
12877TIP3    H160122   0.168   6.470  17.107  0.2850 -0.0291 -0.3193
12877TIP3    H260123   0.061   6.422  17.010 -2.3241 -0.6366  2.7049
12878TIP3   OH260124   6.682   0.661   1.046  0.0687  0.4633 -0.1592
12878TIP3    H160125   6.636   0.580   1.070  1.0426 -0.1461 -0.2835
12878TIP3    H260126   6.750   0.633   0.985  0.5590  1.3473 -0.0357
12879TIP3   OH260127   5.085   4.416   6.467  0.0881 -0.3968 -0.3493
12879TIP3    H160128   5.116   4.326   6.469 -1.9368 -1.1408  1.5088
12879TIP3    H260129   5.021   4.422   6.538  1.5936  3.0910  0.9509
12880TIP3   OH260130   5.072   2.731   0.821  0.4259 -0.2163 -0.9968
12880TIP3    H160131   5.089   2.753   0.729  1.1964  0.2835 -0.7417
12880TIP3    H260132   5.088   2.813   0.868  1.4092 -0.8147 -0.2592
12881TIP3   OH260133   4.601   2.304  13.816 -0.0619  0.5728 -0.6137
12881TIP3    H160134   4.597   2.238  13.746 -1.4107  0.2279 -0.2401
12881TIP3    H260135   4.564   2.383  13.776 -0.7026  0.4154 -0.3298
12882TIP3   OH260136   2.442   5.167  11.827 -0.2610  0.8518  0.7588
12882TIP3    H160137   2.362   5.139  11.871 -0.5103  2.1951  1.1921
12882TIP3    H260138   2.511   5.115  11.867 -0.9954 -1.0497 -0.3028
12883TIP3   OH260139   2.659   4.267  14.065  0.1450 -0.5065 -0.2066
12883TIP3    H160140   2.670   4.238  13.974 -0.1630  2.5459 -1.3729
12883TIP3    H260141   2.729   4.331  14.077 -0.4074 -0.1687  1.3837
12884TIP3   OH260142   2.355   5.351   3.402 -0.5452 -0.6651  0.4116
12884TIP3    H160143   2.323   5.408   3.472 -1.5909 -0.1807 -0.4342
12884TIP3    H260144   2.328   5.395   3.321  4.3176  1.1262 -0.5972
12885TIP3   OH260145   5.608   3.085  13.041 -0.1215  0.6674 -0.2226
12885TIP3    H160146   5.573   3.164  13.001 -0.0213  1.3616  1.0264
12885TIP3    H260147   5.577   3.014  12.984 -3.8319  1.1838  0.8972
12886TIP3   OH260148   6.488   3.969  11.262 -0.0688 -0.3555 -0.1700
12886TIP3    H160149   6.501   3.913  11.339  0.8993  1.8861  1.4256
12886TIP3    H260150   6.560   3.946  11.203  1.0522  0.0068  1.0027
12887TIP3   OH260151   0.234   5.301   0.762 -0.7638  0.3067 -0.0341
12887TIP3    H160152   0.285   5.271   0.837 -0.5518  1.4800  0.3079
12887TIP3    H260153   0.193   5.382   0.791 -1.6703  0.1466 -0.7915
12888TIP3   OH260154   3.142   3.390   0.936  0.0470 -0.0060  0.3287
12888TIP3    H160155   3.133   3.428   1.023 -0.7141 -1.0327  0.7198
12888TIP3    H260156   3.079   3.317   0.935 -0.4102  0.3648 -1.2857
12889TIP3   OH260157   4.580   0.573   1.336 -0.6861  0.3938  0.0979
12889TIP3    H160158   4.563   0.479   1.341 -1.1975  0.4238 -0.8565
12889TIP3    H260159   4.637   0.591   1.411  0.1618 -0.8330 -0.2263
12890TIP3   OH260160   6.514   3.543  14.388 -0.1271 -0.1865  0.2692
12890TIP3    H160161   6.545   3.633  14.399 -1.3409  0.1296  1.3650
12890TIP3    H260162   6.485   3.517  14.475  0.7365 -1.8762  0.1049
12891TIP3   OH260163   3.534   0.000  10.958  0.0474  0.2252 -0.2032
12891TIP3    H160164   3.601  -0.015  11.025 -0.1496 -0.1865 -0.0966
12891TIP3    H260165   3.515   0.094  10.964  2.5952  0.9733 -2.0927
12892TIP3   OH260166   3.996   3.221  16.800 -0.0555  0.4065  0.4621
12892TIP3    H160167   3.982   3.316  16.807 -3.2657  0.0543  0.3809
12892TIP3    H260168   3.998   3.204  16.706  0.1135  0.3330  0.4784
12893TIP3   OH260169   5.230   0.120   0.603 -0.2724  0.2453  0.4753
12893TIP3    H160170   5.176   0.197   0.624 -0.4054 -0.0379  1.1731
12893TIP3    H260171   5.317   0.156   0.588 -0.6919  0.7466 -0.9433
12894TIP3   OH260172   1.248   2.065  15.403  0.4481 -0.1623  0.3288
12894TIP3    H160173   1.200   2.129  15.456  0.6947  0.0955  0.2394
12894TIP3    H260174   1.255   2.106  15.317  1.9657  0.3633  0.6793
12895TIP3   OH260175   4.558   1.642   1.883 -0.3629  0.1460  0.6084
12895TIP3    H160176   4.595   1.721   1.844  2.0961 -0.6733  1.1108
12895TIP3    H260177   4.525   1.670   1.968  0.6917  0.6173  0.8775
12896TIP3   OH260178   1.707   1.968   5.699  0.2056 -0.0645 -0.2868
12896TIP3    H160179   1.726   2.061   5.700  2.2504 -0.4068  1.7885
12896TIP3    H260180   1.623   1.960   5.743 -0.6535  0.8448 -1.6794
12897TIP3   OH260181   2.892   3.391   3.277 -0.3805 -0.5234 -0.2469
12897TIP3    H160182   2.817   3.398   3.335  0.1197  0.2655  0.3291
12897TIP3    H260183   2.862   3.335   3.205 -1.5682 -0.0898 -0.1116
12898TIP3   OH260184   5.941   6.754   5.822  0.1390 -0.5140  0.3319
12898TIP3    H160185   5.979   6.667   5.815  0.0926 -0.5335  0.3198
12898TIP3    H260186   5.902   6.771   5.736  0.6857 -0.2253  0.1414
12899TIP3   OH260187   5.355   4.537  10.726  0.1861  0.3865  0.1710
12899TIP3    H160188   5.378   4.478  10.654  1.4127  0.2823  0.6432
12899TIP3    H260189   5.371   4.486  10.805 -0.6767  0.6768  0.5483
12900TIP3   OH260190   6.279   1.513   2.078 -0.2375 -0.0265 -0.2255
12900TIP3    H160191   6.205   1.559   2.039  0.2531  0.8455 -0.1618
12900TIP3    H260192   6.353   1.536   2.023  0.0604 -0.5521 -0.0453
12901TIP3   OH260193   0.265   5.983  15.204  0.1423  0.7090 -0.2736
12901TIP3    H160194   0.270   5.985  15.299 -0.8239  1.8423 -0.2323
12901TIP3    H260195   0.335   5.923  15.178 -0.0461 -0.1780  1.1707
12902TIP3   OH260196   2.255   5.961  14.391 -0.4653  0.4364 -0.2259
12902TIP3    H160197   2.186   6.028  14.381 -0.2291  0.5529 -1.1723
12902TIP3    H260198   2.305   5.966  14.310 -1.4741 -2.0747 -1.0919
12903TIP3   OH260199   2.832   1.044   1.948  0.3892  0.0421  0.8639
12903TIP3    H160200   2.887   1.000   2.012  3.8043  2.3804 -0.2060
12903TIP3    H260201   2.872   1.024   1.863 -2.2824 -0.5989 -0.3542
12904TIP3   OH260202   1.672   1.028  14.411 -0.4180  0.0750  0.4452
12904TIP3    H160203   1.763   1.055  14.400 -0.3245 -0.6061 -0.5738
12904TIP3    H260204   1.622   1.109  14.413  0.3878  0.6044  3.2223
12905TIP3   OH260205   6.187   5.030  15.987  0.0337 -0.1986 -0.5508
12905TIP3    H160206   6.250   5.065  15.924 -0.1652  1.9512  0.3367
12905TIP3    H260207   6.232   5.037  16.072 -0.3239 -1.4601 -0.2369
12906TIP3   OH260208   5.838   1.307  11.796 -0.1475  0.6899  0.0984
12906TIP3    H160209   5.780   1.275  11.726  0.0384 -1.4373  0.8461
12906TIP3    H260210   5.916   1.252  11.789  1.4328  2.8219 -0.2325
12907TIP3   OH260211   4.054   5.929  10.588 -0.2230  0.1133 -0.2934
12907TIP3    H160212   4.057   5.834  10.603  0.4954  0.0969 -0.5053
12907TIP3    H260213   4.070   5.939  10.494  0.4131  0.4782 -0.1500
12908TIP3   OH260214   3.174   4.322   4.444 -0.0515 -0.2171  0.8717
12908TIP3    H160215   3.148   4.366   4.362  0.7768 -1.0406  0.1396
12908TIP3    H260216   3.230   4.250   4.415  0.6110 -0.2625  2.2058
12909TIP3   OH260217   5.599   1.929  14.637  0.6841 -0.2420  0.0339
12909TIP3    H160218   5.675   1.879  14.668 -0.1913 -1.2722  0.6083
12909TIP3    H260219   5.571   1.883  14.558  0.7580  0.2381 -0.2749
12910TIP3   OH260220   2.975   5.991   2.803 -0.9939 -0.2563  0.4385
12910TIP3    H160221   2.924   6.036   2.736 -0.3449  1.6209  1.1387
12910TIP3    H260222   3.022   6.061   2.849  0.6028 -1.7149  1.1527
12911TIP3   OH260223   4.024   4.491   2.265  0.5213 -0.3451 -0.6270
12911TIP3    H160224   4.068   4.475   2.348 -1.8240  0.6161  0.9113
12911TIP3    H260225   4.058   4.575   2.235 -0.3622  0.5206  0.6758
12912TIP3   OH260226   2.314   1.492   3.155 -0.2773  0.4376 -0.7775
12912TIP3    H160227   2.253   1.545   3.207 -0.9050 -0.9861  0.0236
12912TIP3    H260228   2.349   1.428   3.218  2.4531  1.4879 -1.0963
12913TIP3   OH260229   0.029   3.785  15.287 -0.2377 -0.2353 -0.4544
12913TIP3    H160230   0.046   3.840  15.210 -2.4357 -0.1846 -0.9521
12913TIP3    H260231  -0.045   3.826  15.330  0.6210 -0.5796  1.4406
12914TIP3   OH260232   1.190   5.369  16.638  0.0263 -0.1429 -0.2876
12914TIP3    H160233   1.136   5.341  16.712  1.3317  0.7950  1.0746
12914TIP3    H260234   1.214   5.287  16.593 -0.7365 -0.7266  0.3392
12915TIP3   OH260235   0.240   3.649   0.491 -0.3945  0.2043  0.6796
12915TIP3    H160236   0.329   3.637   0.458 -0.1737  0.1636  1.2771
12915TIP3    H260237   0.186   3.593   0.436  0.1747 -1.0423  1.3617
12916TIP3   OH260238   0.248   0.898   0.587  0.1492 -0.2877  0.7664
12916TIP3    H160239   0.164   0.931   0.617  0.2822  0.5602  0.2246
12916TIP3    H260240   0.312   0.962   0.619  0.5729 -0.8150  1.0014
12917TIP3   OH260241   5.295   1.276   3.342 -0.8256 -0.0392  0.1591
12917TIP3    H160242   5.253   1.355   3.307 -1.2635 -0.2120  0.2867
12917TIP3    H260243   5.387   1.284   3.317 -0.9967  0.1913 -0.3986
12918TIP3   OH260244   2.945   4.956  16.889  0.7031 -0.0288  0.4275
12918TIP3    H160245   2.927   5.041  16.847 -0.2976  0.0603  1.0108
12918TIP3    H260246   2.958   4.896  16.815 -2.7896 -0.2621 -0.1835
12919TIP3   OH260247   4.040   6.787   2.812 -0.4924 -0.1360  0.2289
12919TIP3    H160248   3.966   6.790   2.873  0.5866 -1.2042  1.6431
12919TIP3    H260249   4.028   6.706   2.763 -0.4921 -0.0787  0.1325
12920TIP3   OH260250   5.053   3.825  10.602  0.3230  0.1118 -0.0718
12920TIP3    H160251   4.983   3.833  10.537 -0.2527  0.4059  0.5819
12920TIP3    H260252   5.116   3.766  10.561 -0.8012 -1.0162 -0.2264
12921TIP3   OH260253   5.750   5.237  13.472 -0.7535  0.1440 -0.3129
12921TIP3    H160254   5.790   5.308  13.422  1.6261 -2.0956 -1.8539
12921TIP3    H260255   5.662   5.229  13.436 -0.2564  0.8006 -1.7505
12922TIP3   OH260256   6.664   6.608   5.031  0.1413  0.7644  0.3862
12922TIP3    H160257   6.593   6.672   5.035  1.0959  1.8359  0.9204
12922TIP3    H260258   6.641   6.543   5.098  0.8783  2.4701  2.4300
12923TIP3   OH260259   3.157   2.085   0.271 -0.1127 -0.0075 -0.5194
12923TIP3    H160260   3.175   2.178   0.279  0.4689 -0.1603  0.1122
12923TIP3    H260261   3.242   2.043   0.285 -0.5955 -0.6818  0.5595
12924TIP3   OH260262   5.352   0.247   5.303 -0.1977 -0.3795  0.4843
12924TIP3    H160263   5.258   0.261   5.299  0.0346  1.1620 -3.1955
12924TIP3    H260264   5.382   0.307   5.372 -1.6434  1.1397 -0.1483
12925TIP3   OH260265   6.235   1.659   3.005 -0.0712 -0.0111  0.4188
12925TIP3    H160266   6.257   1.602   2.931 -1.4008 -0.9869  0.7379
12925TIP3    H260267   6.270   1.744   2.981  2.7728 -1.1007  0.3124
12926TIP3   OH260268   6.125   1.810  16.655 -0.0620 -0.2369  0.1006
12926TIP3    H160269   6.091   1.899  16.660 -0.9126 -0.5226 -0.4223
12926TIP3    H260270   6.200   1.809  16.715  1.3120  1.4209 -1.4619
12927TIP3   OH260271   5.991   6.486   2.234  0.3459  0.1053  0.2786
12927TIP3    H160272   6.077   6.480   2.192  1.0384  1.3305  1.4372
12927TIP3    H260273   6.010   6.482   2.328 -0.9546 -0.4669  0.5388
12928TIP3   OH260274   0.590   0.364   3.542  0.4744 -0.4188 -0.3146
12928TIP3    H160275   0.496   0.368   3.554  0.4784  0.2586 -0.4685
12928TIP3    H260276   0.617   0.455   3.526  1.3511 -0.3781  1.1797
12929TIP3   OH260277   5.822   5.836  10.555 -0.4356  0.3618 -0.2725
12929TIP3    H160278   5.917   5.847  10.554 -0.4253  0.5142  0.8236
12929TIP3    H260279   5.790   5.911  10.606 -0.9889 -0.5919  0.8252
12930TIP3   OH260280   1.809   5.547   4.310  0.1458 -0.4740 -0.5035
12930TIP3    H160281   1.783   5.629   4.269 -0.8383  0.0257  1.0335
12930TIP3    H260282   1.858   5.573   4.388  0.4894 -1.3605 -0.4068
12931TIP3   OH260283   4.919   2.722   5.425 -0.0975  0.1313 -0.5102
12931TIP3    H160284   4.991   2.672   5.388 -0.2031 -0.2308 -0.2352
12931TIP3    H260285   4.961   2.780   5.488 -0.0891 -0.4263  0.0124
12932TIP3   OH260286   3.740   2.561  11.632  0.5448  0.9064 -0.1786
12932TIP3    H160287   3.712   2.632  11.574 -0.0849 -0.7098 -1.9587
12932TIP3    H260288   3.659   2.516  11.656  1.1161 -0.7586 -1.2159
12933TIP3   OH260289   1.875   3.562   5.912  0.8068 -0.5315 -0.2431
12933TIP3    H160290   1.957   3.515   5.897  1.2291  0.5095 -1.3441
12933TIP3    H260291   1.891   3.614   5.991  0.6187 -1.5693  0.4984
12934TIP3   OH260292   1.636   3.154  13.943  0.1169 -0.5312  0.6737
12934TIP3    H160293   1.544   3.138  13.922 -0.6327 -0.0961  3.2550
12934TIP3    H260294   1.666   3.215  13.875 -1.2461 -1.2544 -0.6457
12935TIP3   OH260295   6.585   3.702   3.012  0.1234 -0.4085 -0.4366
12935TIP3    H160296   6.640   3.650   3.070  0.6888 -1.8529 -2.1864
12935TIP3    H260297   6.518   3.642   2.981 -2.5500  1.2813  1.5705
12936TIP3   OH260298   5.883   4.971  13.885 -0.1387  0.2557 -0.0230
12936TIP3    H160299   5.818   5.018  13.833  0.3554  1.5104  0.4362
12936TIP3    H260300   5.950   4.944  13.821  0.5656  1.9537 -0.0840
12937TIP3   OH260301   6.688   3.006   0.262  0.4602 -0.1129 -0.6832
12937TIP3    H160302   6.619   2.940   0.274  2.0914 -1.5367  1.5825
12937TIP3    H260303   6.706   3.038   0.350  0.9467  2.1720 -1.5395
12938TIP3   OH260304   0.350   1.941  10.678  0.0296 -0.2943 -0.4143
12938TIP3    H160305   0.369   1.982  10.594  0.4332  0.9956  0.2731
12938TIP3    H260306   0.429   1.955  10.730  0.0170 -1.6064 -0.0031
12939TIP3   OH260307   1.868   4.814   0.244  0.1769  0.7154  0.0529
12939TIP3    H160308   1.891   4.903   0.269 -1.2093  0.5747  2.0581
12939TIP3    H260309   1.774   4.817   0.229  0.2905 -0.1932 -0.9162
12940TIP3   OH260310   0.275   3.593  14.585  0.3290  0.1089  0.1005
12940TIP3    H160311   0.223   3.552  14.655 -0.0453  1.4229  0.6072
12940TIP3    H260312   0.210   3.621  14.521  0.5022  0.7893  0.2250
12941TIP3   OH260313   1.799   2.796  11.356  0.3017  0.2829 -0.1290
12941TIP3    H160314   1.749   2.727  11.399  1.4906  0.1699  1.1304
12941TIP3    H260315   1.885   2.793  11.397  0.9174  1.4004 -1.2515
12942TIP3   OH260316   5.755   5.521  11.818 -0.4030 -0.2734 -0.1776
12942TIP3    H160317   5.761   5.458  11.746  0.8104 -0.2310 -0.1233
12942TIP3    H260318   5.843   5.557  11.827  0.2460 -2.2332  3.0806
12943TIP3   OH260319   3.760   2.820  15.732  0.0417 -0.0179 -0.0263
12943TIP3    H160320   3.798   2.857  15.652  0.5321  1.0018  0.6625
12943TIP3    H260321   3.699   2.886  15.763 -1.8223 -1.3482 -0.7325
12944TIP3   OH260322   2.092   1.120   0.519  0.3965 -0.5527  0.4874
12944TIP3    H160323   2.182   1.154   0.517 -0.4592  2.2857  2.5296
12944TIP3    H260324   2.101   1.029   0.548  2.7188 -1.5067 -2.7061
12945TIP3   OH260325   3.803   6.483   2.426  0.1650 -0.1746 -0.5424
12945TIP3    H160326   3.807   6.575   2.399  0.5643  0.3798  1.2721
12945TIP3    H260327   3.866   6.476   2.497 -3.5344 -0.4835  3.1084
12946TIP3   OH260328   2.471   3.997   5.514 -0.5992 -0.6575 -0.8533
12946TIP3    H160329   2.404   4.032   5.455 -0.6941 -1.2953 -1.1291
12946TIP3    H260330   2.544   3.973   5.457  0.0758  0.4602 -0.5119
12947TIP3   OH260331   0.727   4.610  14.534 -0.2807  0.3882  0.3449
12947TIP3    H160332   0.787   4.685  14.542 -1.7228  1.6954 -0.5041
12947TIP3    H260333   0.770   4.540  14.583  1.1637  1.7375  1.1179
12948TIP3   OH260334   0.149   0.826  12.595 -0.4092  0.1111 -0.0527
12948TIP3    H160335   0.235   0.802  12.561 -0.0090  0.8955  0.3860
12948TIP3    H260336   0.144   0.782  12.680 -1.2622 -1.5506 -0.9106
12949TIP3   OH260337   4.352   1.443  13.397 -0.2871 -0.6256  0.1635
12949TIP3    H160338   4.410   1.515  13.371 -2.0963  0.8508  0.0591
12949TIP3    H260339   4.340   1.456  13.491 -1.8978  0.2292 -0.1279
12950TIP3   OH260340   4.739   2.445   2.272  0.6804 -0.2293 -0.1877
12950TIP3    H160341   4.787   2.451   2.189  1.3050 -2.4197 -0.0567
12950TIP3    H260342   4.801   2.478   2.337  1.2243 -1.0537 -0.2773
12951TIP3   OH260343   1.433   4.349  16.329 -0.2341  0.3703  0.2191
12951TIP3    H160344   1.421   4.329  16.422  1.5692  0.5321  0.5395
12951TIP3    H260345   1.424   4.444  16.324  0.1519  0.4172  0.3368
12952TIP3   OH260346   2.040   6.751  14.856  0.1451 -0.0361 -0.0414
12952TIP3    H160347   2.033   6.798  14.939 -0.3986 -0.6969  0.2944
12952TIP3    H260348   1.977   6.794  14.798 -0.3456 -0.3441  0.2616
12953TIP3   OH260349   3.400   4.676   0.674 -0.0838 -0.3873  0.3744
12953TIP3    H160350   3.313   4.640   0.662 -0.2064 -0.1601  0.5790
12953TIP3    H260351   3.396   4.763   0.635 -0.0579 -0.2281  0.7190
12954TIP3   OH260352   4.951   2.647  16.172 -0.0075 -0.2459 -0.3601
12954TIP3    H160353   4.856   2.659  16.175 -0.0967 -0.7067 -1.1038
12954TIP3    H260354   4.967   2.565  16.219 -0.1526 -1.0123 -1.6110
12955TIP3   OH260355   6.113   5.578  16.227  0.5406 -0.3737 -0.3768
12955TIP3    H160356   6.157   5.582  16.312 -1.9699 -1.2953  1.0681
12955TIP3    H260357   6.115   5.668  16.194 -0.4382  0.4899  1.7713
12956TIP3   OH260358   6.002   1.018   1.777 -0.1419  0.2830  0.3982
12956TIP3    H160359   6.060   0.974   1.714 -1.9845  0.5977 -1.6602
12956TIP3    H260360   6.049   1.098   1.800  1.7937 -1.0989  1.6534
12957TIP3   OH260361   2.666   0.196  11.550 -0.7554 -0.0892  0.3786
12957TIP3    H160362   2.730   0.131  11.519 -0.6580  0.2233 -0.0954
12957TIP3    H260363   2.662   0.183  11.644 -1.5932 -1.5623  0.1721
12958TIP3   OH260364   6.306   3.798   1.094 -0.1283 -0.1315  0.1748
12958TIP3    H160365   6.300   3.887   1.060 -1.7978  0.0452  0.8687
12958TIP3    H260366   6.400   3.779   1.094  0.4443  2.2781  1.6583
12959TIP3   OH260367   6.538   5.561  14.578 -0.1958  0.4095 -0.3679
12959TIP3    H160368   6.597   5.628  14.544 -0.8014 -0.2007 -2.8625
12959TIP3    H260369   6.519   5.505  14.502 -0.8599 -1.7329  1.2695
12960TIP3   OH260370   0.270   0.174  13.060 -0.0584 -0.0996  0.7270
12960TIP3    H160371   0.289   0.191  13.152  1.7999  0.0939  0.3504
12960TIP3    H260372   0.237   0.258  13.026  1.4037  0.5050  0.7262
12961TIP3   OH260373   4.780   3.164   1.770 -0.2128  0.4993  0.6954
12961TIP3    H160374   4.758   3.250   1.734  0.9875  0.1778 -0.9192
12961TIP3    H260375   4.778   3.105   1.694  1.4894 -0.3933  1.3020
12962TIP3   OH260376   5.857   3.572   1.621 -0.1097 -0.8287 -0.2235
12962TIP3    H160377   5.935   3.574   1.566 -1.0347 -1.0670 -1.6115
12962TIP3    H260378   5.845   3.480   1.643 -1.2602 -1.1477 -1.9731
12963TIP3   OH260379   2.643   3.755  11.386  0.1254 -0.2505  0.2291
12963TIP3    H160380   2.663   3.661  11.393 -0.3026 -0.3292  0.4229
12963TIP3    H260381   2.636   3.771  11.292 -0.9545 -0.6612  0.2325
12964TIP3   OH260382   2.572   0.261  14.082  0.0546  0.5200  0.1027
12964TIP3    H160383   2.570   0.208  14.002 -0.1307 -1.0478  1.0956
12964TIP3    H260384   2.660   0.300  14.082  1.4368 -2.2983  0.8263
12965TIP3   OH260385   3.766   0.044   5.205 -0.0370 -0.2300  0.0683
12965TIP3    H160386   3.810   0.006   5.129  0.9380  0.5925  0.1915
12965TIP3    H260387   3.836   0.091   5.252 -0.8363  0.1872  0.8764
12966TIP3   OH260388   4.290   6.813  11.804 -0.1608  0.1947  0.1354
12966TIP3    H160389   4.250   6.760  11.735 -1.0336  1.7285 -0.6022
12966TIP3    H260390   4.383   6.815  11.783 -0.2335 -0.4093 -0.2563
12967TIP3   OH260391   2.262   2.988   1.315  0.0888  0.3539 -0.4375
12967TIP3    H160392   2.170   3.014   1.317  0.0334  0.2258 -1.0288
12967TIP3    H260393   2.262   2.899   1.351  0.2902  1.1373  1.6578
12968TIP3   OH260394   2.213   5.659   1.948 -0.1794  0.1697 -0.1628
12968TIP3    H160395   2.117   5.653   1.954 -0.3212 -1.6784 -2.5449
12968TIP3    H260396   2.243   5.664   2.038 -2.5145  1.0301  0.6391
12969TIP3   OH260397   0.437   6.576   3.992 -0.4845 -0.1172 -0.0965
12969TIP3    H160398   0.524   6.613   3.974 -0.4336  1.1202  2.3011
12969TIP3    H260399   0.377   6.650   3.985 -0.7831 -0.0977  1.9125
12970TIP3   OH260400   0.816   1.224  13.002 -0.2211 -0.0636  0.2003
12970TIP3    H160401   0.812   1.137  12.961 -0.3976  0.4892 -1.0152
12970TIP3    H260402   0.727   1.239  13.036  0.4051 -1.3298  2.6164
12971TIP3   OH260403   5.628   0.415  10.702  0.3256 -0.0647 -0.0581
12971TIP3    H160404   5.617   0.337  10.756  1.2372  0.1362  0.4336
12971TIP3    H260405   5.588   0.392  10.618 -0.2073 -0.7382  0.3670
12972TIP3   OH260406   4.263   0.121  10.949  0.0255  0.5677  0.2737
12972TIP3    H160407   4.347   0.155  10.980  1.0871 -0.2030 -1.6112
12972TIP3    H260408   4.266   0.133  10.854 -1.2802 -1.0191 -0.0048
12973TIP3   OH260409   4.349   2.838  13.515  0.6303 -0.0391 -0.5175
12973TIP3    H160410   4.354   2.772  13.584 -1.7724  0.2583  0.0459
12973TIP3    H260411   4.355   2.921  13.561 -1.2253  0.1681 -0.5433
12974TIP3   OH260412   1.857   3.601  14.422 -0.0003 -0.0835 -0.3873
12974TIP3    H160413   1.914   3.654  14.366 -1.6516  1.9196 -0.2835
12974TIP3    H260414   1.833   3.659  14.494 -0.5802 -1.5364  0.6407
12975TIP3   OH260415   2.398   3.423   1.308 -0.2087 -0.1365  0.5185
12975TIP3    H160416   2.413   3.378   1.391 -0.5708 -1.1300  0.0619
12975TIP3    H260417   2.310   3.395   1.282  0.1145 -0.2664 -0.4553
12976TIP3   OH260418   5.869   3.184   0.384 -0.2161 -0.5703 -0.1292
12976TIP3    H160419   5.811   3.226   0.321  0.6752  0.4595 -0.2886
12976TIP3    H260420   5.939   3.247   0.398 -0.7212 -0.4682  2.4157
12977TIP3   OH260421   5.864   3.617  13.438  0.0896  0.1923  0.8070
12977TIP3    H160422   5.863   3.521  13.437 -1.6150  0.1809  0.7736
12977TIP3    H260423   5.886   3.639  13.529  3.5521 -0.1325  0.1879
12978TIP3   OH260424   2.190   4.072   2.171 -0.2548 -0.4928 -0.2059
12978TIP3    H160425   2.190   4.005   2.102  0.2074 -1.0772  0.3549
12978TIP3    H260426   2.282   4.083   2.193 -0.4281 -0.5667  0.5582
12979TIP3   OH260427   3.890   1.173  13.735  0.9483 -0.0645 -0.3554
12979TIP3    H160428   3.867   1.095  13.685 -0.2897 -0.4207  0.7135
12979TIP3    H260429   3.817   1.185  13.796  1.2678  1.7368 -0.2602
12980TIP3   OH260430   4.157   6.257   0.820  0.8354  0.5887  0.6159
12980TIP3    H160431   4.090   6.257   0.888  2.8989  0.4020  2.7853
12980TIP3    H260432   4.191   6.347   0.819  0.9644  0.5453 -0.0537
12981TIP3   OH260433   1.881   5.576   5.497 -0.0887 -0.0085 -0.1856
12981TIP3    H160434   1.922   5.511   5.441 -0.7059 -1.6270  1.1564
12981TIP3    H260435   1.889   5.540   5.586 -1.0087  1.4522  0.5361
12982TIP3   OH260436   5.438   5.181   1.259 -0.3611  0.4214  0.5034
12982TIP3    H160437   5.396   5.202   1.175  0.4959  0.1408 -0.0124
12982TIP3    H260438   5.394   5.102   1.289  1.0306 -1.0188 -0.9965
12983TIP3   OH260439   5.297   4.200   5.969  0.1597  0.4416 -0.2725
12983TIP3    H160440   5.357   4.138   6.009  0.6988  0.2171 -1.4099
12983TIP3    H260441   5.268   4.158   5.888 -0.2388  1.2519 -0.5652
12984TIP3   OH260442   6.666   3.146  13.243 -0.4839 -0.3101  0.4986
12984TIP3    H160443   6.683   3.066  13.292 -0.2050 -1.1612 -0.9106
12984TIP3    H260444   6.610   3.118  13.170  1.2832  0.3377 -1.1961
12985TIP3   OH260445   0.984   0.905   3.670 -0.0067  0.5293 -0.3314
12985TIP3    H160446   0.928   0.852   3.727  1.1282 -0.4339 -0.0841
12985TIP3    H260447   1.044   0.842   3.630 -0.4471  1.2537 -2.2209
12986TIP3   OH260448   3.321   4.766  14.006  0.3022  0.0440  1.1378
12986TIP3    H160449   3.241   4.802  13.967  1.9496  1.3193 -1.3120
12986TIP3    H260450   3.318   4.795  14.097 -1.6529  0.6755  0.9223
12987TIP3   OH260451   1.069   4.298  16.114 -0.1842 -0.4422 -0.2478
12987TIP3    H160452   0.975   4.316  16.102 -0.0824 -0.9267 -2.0505
12987TIP3    H260453   1.079   4.206  16.089  0.6487 -0.6553  0.8050
12988TIP3   OH260454   0.985   0.832   5.855 -0.5292 -0.0220 -0.2090
12988TIP3    H160455   1.018   0.920   5.839 -1.1967  1.3030  4.3703
12988TIP3    H260456   1.048   0.794   5.917 -1.2051 -2.1323 -0.7496
12989TIP3   OH260457   3.153   4.244   6.582 -0.2731 -0.2707  0.2625
12989TIP3    H160458   3.109   4.175   6.531  0.1922 -1.1638  1.0476
12989TIP3    H260459   3.129   4.325   6.537  0.7807 -1.0622 -1.8974
12990TIP3   OH260460   6.290   0.718   4.533  0.0886  1.0465  0.3942
12990TIP3    H160461   6.211   0.756   4.573 -0.0446  1.9599 -0.6580
12990TIP3    H260462   6.357   0.725   4.600 -1.2666 -2.1931  2.3458
12991TIP3   OH260463   0.034   2.431   4.181  0.3077 -0.2783  0.1021
12991TIP3    H160464  -0.036   2.394   4.235  1.4675 -1.3264  0.9419
12991TIP3    H260465   0.083   2.487   4.240  1.0372 -0.7025 -0.0910
12992TIP3   OH260466   3.352   0.020  13.265 -0.5937  0.2678  0.7519
12992TIP3    H160467   3.405   0.033  13.344  4.6094 -0.3193 -2.1777
12992TIP3    H260468   3.321   0.107  13.242  1.5799  1.2215  1.2224
12993TIP3   OH260469   3.433   4.083  12.839  0.1553 -0.6675  0.4171
12993TIP3    H160470   3.390   4.069  12.755  0.7563 -0.3695  0.0570
12993TIP3    H260471   3.399   4.168  12.869  1.5822  0.3095 -0.5760
12994TIP3   OH260472   6.469   4.101   1.633  0.2751  0.0401 -0.0124
12994TIP3    H160473   6.509   4.047   1.701  1.6318 -0.5900 -1.2551
12994TIP3    H260474   6.390   4.053   1.608  0.8428 -0.7795 -0.2709
12995TIP3   OH260475   3.789   3.033   4.373 -0.3550  0.0217  0.2749
12995TIP3    H160476   3.697   3.037   4.397 -0.8461 -2.9714 -0.6778
12995TIP3    H260477   3.796   3.089   4.296 -2.0735 -1.7505 -1.2848
12996TIP3   OH260478   4.999   6.248  13.157 -0.0400  0.3586  0.5392
12996TIP3    H160479   5.072   6.212  13.208  0.9361 -1.5684 -1.9861
12996TIP3    H260480   5.038   6.320  13.107  0.3945 -1.0634 -1.2786
12997TIP3   OH260481   1.539   1.273  15.831 -0.1000 -0.3544  0.5209
12997TIP3    H160482   1.603   1.324  15.781 -1.0817  1.4043  0.9870
12997TIP3    H260483   1.555   1.298  15.923 -0.6649 -0.8260  0.7530
12998TIP3   OH260484   6.494   1.214  13.080  0.6925  0.3246  0.7575
12998TIP3    H160485   6.529   1.245  12.996 -1.1223 -0.4550 -0.3477
12998TIP3    H260486   6.400   1.231  13.074  0.0822 -2.3558  1.3916
12999TIP3   OH260487   4.939   1.864  13.941  0.0500  0.3766  0.0518
12999TIP3    H160488   4.907   1.938  13.992 -0.0795  0.0131  0.5023
12999TIP3    H260489   4.915   1.885  13.851 -1.5999  0.0644  0.3845
13000TIP3   OH260490   4.106   3.841   0.897 -0.9537  0.7414 -0.3261
13000TIP3    H160491   4.144   3.909   0.953 -0.6173 -0.2975  0.7578
13000TIP3    H260492   4.172   3.771   0.897 -2.2567 -0.5326  0.4752
13001TIP3   OH260493   3.298   1.010  15.951 -0.2777 -1.2632  0.1063
13001TIP3    H160494   3.387   1.033  15.922  0.0939 -2.8751 -0.1278
13001TIP3    H260495   3.282   1.066  16.027  0.9127 -0.8993  0.1056
13002TIP3   OH260496   0.722   5.241   3.245  0.2310 -0.1706 -0.5493
13002TIP3    H160497   0.753   5.280   3.163  1.0112 -2.0044 -1.1739
13002TIP3    H260498   0.692   5.154   3.220 -3.5479  0.6604  0.4011
13003TIP3   OH260499   6.554   1.986  12.398 -0.6756 -0.0525 -0.5323
13003TIP3    H160500   6.480   2.048  12.398 -0.5731  0.0988  0.9538
13003TIP3    H260501   6.592   1.994  12.485  0.3781 -1.0072 -0.8845
13004TIP3   OH260502   5.668   5.662   2.961  0.2930  0.2841  0.3057
13004TIP3    H160503   5.679   5.726   3.031  0.0147 -0.4355  1.0188
13004TIP3    H260504   5.749   5.666   2.912  0.4925  0.7993  0.6702
13005TIP3   OH260505   2.430   6.018  16.767 -0.8593 -0.0963  0.2575
13005TIP3    H160506   2.377   6.096  16.780 -1.4531 -0.5180  0.4090
13005TIP3    H260507   2.369   5.945  16.780  0.0089 -0.6139  1.6071
13006TIP3   OH260508   4.859   1.486  13.416 -0.8091  0.4586 -0.5318
13006TIP3    H160509   4.855   1.539  13.496 -1.9448  0.5014 -0.5962
13006TIP3    H260510   4.785   1.517  13.363 -0.2898  0.1785 -1.4464
13007TIP3   OH260511   3.410   1.389   1.231  0.3641 -0.2553  0.4023
13007TIP3    H160512   3.421   1.305   1.188  3.1190  0.4789 -0.5505
13007TIP3    H260513   3.426   1.371   1.323 -0.2390 -0.9335  0.3873
13008TIP3   OH260514   2.698   4.133   3.388  0.3359 -0.4474  0.3325
13008TIP3    H160515   2.677   4.051   3.432  1.1827 -0.6044  0.4603
13008TIP3    H260516   2.740   4.187   3.455  0.4083 -0.1696  0.0690
13009TIP3   OH260517   0.360   3.611  13.631  0.0871  0.0464  0.4615
13009TIP3    H160518   0.424   3.564  13.578 -0.2009 -0.2574  0.3809
13009TIP3    H260519   0.275   3.583  13.597 -0.1014 -0.1782  1.1020
13010TIP3   OH260520   1.527   2.165  17.184  0.4697 -0.6856  0.5238
13010TIP3    H160521   1.559   2.255  17.173  1.3371 -1.2085 -1.8782
13010TIP3    H260522   1.593   2.111  17.140  0.0752 -2.5362  2.1001
13011TIP3   OH260523   5.132   4.290  14.082 -0.0305  0.4562 -0.9149
13011TIP3    H160524   5.153   4.297  13.989 -0.5228  0.2549 -1.0456
13011TIP3    H260525   5.088   4.205  14.090  1.2838 -0.1947 -0.2509
13012TIP3   OH260526   1.174   2.843  11.933 -0.3414 -0.4099 -0.5946
13012TIP3    H160527   1.226   2.816  12.010 -2.0284 -1.3665  0.2789
13012TIP3    H260528   1.181   2.769  11.873 -0.8001 -0.6146 -0.4030
13013TIP3   OH260529   2.094   2.654  16.774  0.2108  0.1079  0.3892
13013TIP3    H160530   2.102   2.730  16.832  0.0530 -0.0846  0.6630
13013TIP3    H260531   2.078   2.692  16.687  2.0830  0.4645  0.1570
13014TIP3   OH260532   2.408   5.741  14.315 -0.1206 -0.6320 -0.0043
13014TIP3    H160533   2.347   5.789  14.370 -0.4689 -1.5510  0.4329
13014TIP3    H260534   2.494   5.769  14.345 -0.3063 -1.0637  0.9622
13015TIP3   OH260535   6.488   2.339  12.004 -0.0843 -0.1560 -0.0029
13015TIP3    H160536   6.402   2.342  11.963 -0.3440 -1.0177  0.4479
13015TIP3    H260537   6.474   2.374  12.092  0.4338  1.5250 -0.5598
13016TIP3   OH260538   3.085   4.061   4.680  0.3286 -0.4460 -0.1322
13016TIP3    H160539   3.017   4.061   4.612  1.3083 -1.1986 -1.1406
13016TIP3    H260540   3.158   4.014   4.641  1.7070  0.9455  0.6689
13017TIP3   OH260541   3.745   3.056  11.316  0.2264 -0.3537  0.2462
13017TIP3    H160542   3.827   3.083  11.358  1.4983 -2.5999 -0.5813
13017TIP3    H260543   3.772   3.026  11.229 -1.9331  1.5801 -1.2058
13018TIP3   OH260544   2.736   1.471  15.823  0.2539 -0.3660  0.0021
13018TIP3    H160545   2.705   1.557  15.851  0.3577 -0.6444  1.0228
13018TIP3    H260546   2.662   1.433  15.777 -0.8898 -0.9195  2.1659
13019TIP3   OH260547   0.903   1.417   2.857  0.5408  0.4225 -0.5254
13019TIP3    H160548   0.941   1.498   2.824  0.8163 -0.2128 -1.8111
13019TIP3    H260549   0.953   1.347   2.815 -1.2892 -0.4361 -1.4010
13020TIP3   OH260550   2.911   4.795   2.952 -0.2830  0.3686 -0.2542
13020TIP3    H160551   2.825   4.831   2.932 -0.3740 -0.6573 -1.9199
13020TIP3    H260552   2.958   4.867   2.993 -1.4934  1.3693 -0.5678
13021TIP3   OH260553   5.348   2.209   5.189  0.3514 -0.2417  0.7036
13021TIP3    H160554   5.395   2.290   5.209 -1.0270  0.7690  0.0520
13021TIP3    H260555   5.257   2.228   5.212 -0.0114 -1.5601  0.4127
13022TIP3   OH260556   0.780   2.805   4.683  0.2290  0.0437  0.1685
13022TIP3    H160557   0.743   2.731   4.731 -0.0690 -0.2366 -0.4875
13022TIP3    H260558   0.832   2.852   4.748 -1.4869  0.6087  1.1865
13023TIP3   OH260559   5.636   3.254  16.933 -0.0176  0.0904  0.5403
13023TIP3    H160560   5.726   3.232  16.958  0.5283  0.6256 -0.8671
13023TIP3    H260561   5.619   3.338  16.975  0.2077  0.0895  0.6355
13024TIP3   OH260562   4.411   5.552   3.587 -0.2897 -0.3474 -0.4009
13024TIP3    H160563   4.355   5.490   3.634 -0.7051 -0.0940 -0.5626
13024TIP3    H260564   4.499   5.514   3.594 -0.4943 -0.7998 -0.2370
13025TIP3   OH260565   5.643   5.475  16.543 -0.3870 -0.1574  0.2905
13025TIP3    H160566   5.655   5.485  16.637  1.1056  0.6661  0.0498
13025TIP3    H260567   5.658   5.382  16.526  2.6220  0.1926  0.5139
13026TIP3   OH260568   5.761   4.036  13.736 -0.3834 -0.3146  0.0857
13026TIP3    H160569   5.760   3.986  13.817  2.1440  1.7150  1.5278
13026TIP3    H260570   5.803   3.978  13.672 -0.1703 -1.0682  0.8945
13027TIP3   OH260571   2.165   3.720   0.364 -0.4319 -0.8114  0.6189
13027TIP3    H160572   2.178   3.676   0.448 -0.3295 -1.7304  0.1342
13027TIP3    H260573   2.250   3.757   0.342 -0.5124 -0.3767  1.0178
13028TIP3   OH260574   0.455   4.377   5.918  0.3763 -0.5000  0.2329
13028TIP3    H160575   0.457   4.461   5.874 -1.9906 -0.5176 -0.0342
13028TIP3    H260576   0.538   4.336   5.896 -0.0415  0.1378 -2.9240
13029TIP3   OH260577   5.461   1.326  13.035  0.6513 -0.3226  0.7172
13029TIP3    H160578   5.433   1.264  13.101 -0.0150 -1.7107 -0.7929
13029TIP3    H260579   5.557   1.318  13.033  0.5617 -1.4864  0.4092
13030TIP3   OH260580   0.078   3.773   0.235 -0.4308 -0.4016  0.1931
13030TIP3    H160581   0.154   3.714   0.239  0.2739  0.5253  1.0474
13030TIP3    H260582   0.102   3.838   0.169 -1.2094 -1.0432 -0.7514
13031TIP3   OH260583   6.590   1.243   0.264 -0.3257  0.1120  0.0436
13031TIP3    H160584   6.655   1.294   0.217 -0.1189 -0.7012 -0.5774
13031TIP3    H260585   6.580   1.288   0.348 -1.7435  2.4172 -1.2493
13032TIP3   OH260586   4.335   2.846  14.078  0.0357 -0.3601  0.0259
13032TIP3    H160587   4.364   2.900  14.152 -1.0820 -1.3314  1.2295
13032TIP3    H260588   4.266   2.898  14.037 -0.7825 -0.6668  0.9570
13033TIP3   OH260589   2.528   5.368  12.938 -1.0217  0.0026 -0.3733
13033TIP3    H160590   2.433   5.380  12.939 -1.0287  0.2209 -1.7239
13033TIP3    H260591   2.541   5.275  12.919 -0.9620 -0.1736  0.5160
13034TIP3   OH260592   3.901   1.948  11.654 -0.3829  0.3781  0.1047
13034TIP3    H160593   3.989   1.912  11.647 -0.8380 -0.9569  0.9134
13034TIP3    H260594   3.891   2.003  11.576  1.1905  0.6562  0.0630
13035TIP3   OH260595   5.333   3.654  13.952 -0.0313 -0.1282  0.1531
13035TIP3    H160596   5.317   3.715  14.025  0.1695 -2.1438  2.0065
13035TIP3    H260597   5.417   3.680  13.916  0.8029 -0.2034  1.9368
13036TIP3   OH260598   2.627   1.594   4.334  0.3647 -0.3310 -0.5470
13036TIP3    H160599   2.702   1.628   4.383 -1.1018  0.3387  1.4023
13036TIP3    H260600   2.562   1.665   4.337 -0.6052 -1.1360 -1.5468
13037TIP3   OH260601   6.066   2.442   4.829  0.2274  0.1771 -0.0821
13037TIP3    H160602   6.075   2.538   4.829  0.3951  0.1685  0.5384
13037TIP3    H260603   5.996   2.424   4.766 -0.8557  0.8107  0.9061
13038TIP3   OH260604   5.822   3.754   0.021  0.3870 -0.1228  0.0907
13038TIP3    H160605   5.792   3.689  -0.042 -0.3199  2.2277 -2.1454
13038TIP3    H260606   5.916   3.741   0.026  0.4421 -0.4126 -1.3892
13039TIP3   OH260607   1.816   5.382  14.065 -0.5248 -0.3747  0.1902
13039TIP3    H160608   1.748   5.321  14.038 -0.0683 -1.4906  1.4490
13039TIP3    H260609   1.780   5.469  14.044 -1.6636 -1.0026 -0.5720
13040TIP3   OH260610   1.318   6.404  13.582  0.0845 -0.3940  0.3727
13040TIP3    H160611   1.401   6.443  13.610 -0.1589 -0.1123  0.7015
13040TIP3    H260612   1.268   6.392  13.663 -1.2995  1.9374 -0.0344
13041TIP3   OH260613   3.005   3.930  16.397  0.3344  0.3189  0.2300
13041TIP3    H160614   2.981   4.016  16.364 -1.4106  0.1720  0.9950
13041TIP3    H260615   3.095   3.940  16.428  0.0748  1.9482  0.5350
13042TIP3   OH260616   4.215   6.792  16.866  0.3741 -0.0819  0.2915
13042TIP3    H160617   4.211   6.873  16.816 -0.4748 -1.7585 -2.6080
13042TIP3    H260618   4.309   6.773  16.873  0.5375  0.6028  0.0708
13043TIP3   OH260619   2.581   6.134  17.027  0.5387 -0.0178 -0.1630
13043TIP3    H160620   2.539   6.048  17.026 -0.1336  0.2917  0.5024
13043TIP3    H260621   2.517   6.192  16.984  0.4396  0.3806  0.4996
13044TIP3   OH260622   3.049   4.897   5.071  0.3597  0.0646  0.2257
13044TIP3    H160623   3.044   4.801   5.066 -0.9780  0.1656 -0.9827
13044TIP3    H260624   3.084   4.915   5.158  0.8589 -1.5237  0.3812
13045TIP3   OH260625   0.680   0.686   2.782  0.1343  0.9181 -0.3559
13045TIP3    H160626   0.614   0.732   2.730  1.2174  1.7594 -1.0459
13045TIP3    H260627   0.755   0.678   2.722  0.3662 -0.7681  0.1274
13046TIP3   OH260628   5.687   3.415  14.812  0.0183 -0.0644 -0.0543
13046TIP3    H160629   5.637   3.354  14.758  0.6472  0.5569 -1.3868
13046TIP3    H260630   5.726   3.361  14.880 -0.0412 -1.0297 -0.7696
13047TIP3   OH260631   6.696   5.650   2.750  0.1042 -0.2956  0.2185
13047TIP3    H160632   6.765   5.715   2.744  0.2846 -0.5613 -0.7142
13047TIP3    H260633   6.615   5.701   2.756  0.3581  0.0127  1.2757
13048TIP3   OH260634   0.030   5.401  14.600 -0.4715  0.3015 -0.3535
13048TIP3    H160635  -0.008   5.330  14.547  1.2275 -0.9340  0.0052
13048TIP3    H260636   0.047   5.360  14.685  1.6283  0.7706 -0.4983
13049TIP3   OH260637   1.410   1.428  12.174 -0.2771 -0.7171  0.6234
13049TIP3    H160638   1.360   1.457  12.098  0.4059 -1.3312 -0.0942
13049TIP3    H260639   1.468   1.360  12.139  1.6594  0.5451  1.2221
13050TIP3   OH260640   2.843   5.908  16.967  0.0581  0.3940  0.3110
13050TIP3    H160641   2.791   5.831  16.990 -0.5387  0.5734 -0.4056
13050TIP3    H260642   2.805   5.979  17.019 -0.4907  0.5438 -0.2785
13051TIP3   OH260643   5.851   2.057  15.792 -0.5649 -0.3381  0.4129
13051TIP3    H160644   5.797   2.066  15.871 -2.1337  0.8262 -0.7430
13051TIP3    H260645   5.940   2.072  15.823 -1.1189 -0.1449  2.0164
13052TIP3   OH260646   3.246   5.850  11.009  0.5778  0.1090 -0.2851
13052TIP3    H160647   3.205   5.814  10.930  1.2407  0.0338 -0.6101
13052TIP3    H260648   3.233   5.944  11.002  0.5105  0.0910 -0.4136
13053TIP3   OH260649   0.485   2.575  14.449  0.0050  0.0577  0.3743
13053TIP3    H160650   0.484   2.660  14.405 -0.1771 -0.1076  0.0523
13053TIP3    H260651   0.452   2.514  14.383 -0.4815 -0.1643  0.8101
13054TIP3   OH260652   3.976   3.897  16.896  0.3119  0.0092  0.0847
13054TIP3    H160653   4.026   3.884  16.977 -0.0336  2.6905  0.8283
13054TIP3    H260654   4.012   3.976  16.858  0.3527 -1.1048 -2.3803
13055TIP3   OH260655   5.811   2.104  13.164 -0.6787 -0.1498  0.3130
13055TIP3    H160656   5.840   2.172  13.225  0.3940 -1.5094  1.3966
13055TIP3    H260657   5.807   2.148  13.080  1.7929  0.8794  0.6287
13056TIP3   OH260658   5.906   1.184  16.503 -0.0135  0.2655 -0.2810
13056TIP3    H160659   5.925   1.114  16.441  0.0773  1.6454 -1.8895
13056TIP3    H260660   5.964   1.255  16.477 -1.6294  1.7027 -0.1122
13057TIP3   OH260661   3.286   2.951   5.714 -0.3277 -0.6578  0.0413
13057TIP3    H160662   3.303   2.918   5.802  3.0083 -0.6611 -0.4706
13057TIP3    H260663   3.300   2.876   5.656 -1.8685 -0.5038 -0.5922
13058TIP3   OH260664   4.441   6.185  14.918  0.8691  0.5079  0.4689
13058TIP3    H160665   4.417   6.102  14.958 -0.7113  0.1271 -1.1112
13058TIP3    H260666   4.529   6.204  14.950  1.0399 -1.4856  1.2875
13059TIP3   OH260667   6.233   1.703   4.402 -0.0884 -0.3367  0.0961
13059TIP3    H160668   6.208   1.755   4.479 -2.3928 -1.6601  0.3539
13059TIP3    H260669   6.228   1.764   4.329  0.4597  0.5528  0.7835
13060TIP3   OH260670   3.098   0.764   3.021 -0.6473 -0.4540 -0.2253
13060TIP3    H160671   3.158   0.726   3.084 -0.5873 -1.2957 -0.7768
13060TIP3    H260672   3.020   0.786   3.073  0.3695  1.3812  0.6537
13061TIP3   OH260673   1.557   4.706  16.148  0.1530 -0.0951 -0.2914
13061TIP3    H160674   1.556   4.787  16.097 -1.3717 -0.2147 -0.4813
13061TIP3    H260675   1.560   4.637  16.082 -0.9193 -0.2279 -0.2202
13062TIP3   OH260676   2.880   0.350   3.495  0.1336  0.0080  0.6753
13062TIP3    H160677   2.906   0.258   3.493  0.9470  0.2406 -0.0941
13062TIP3    H260678   2.923   0.389   3.419 -0.1305  1.0469  1.0395
13063TIP3   OH260679   1.466   3.401  15.851 -0.1996 -0.3764 -0.9935
13063TIP3    H160680   1.477   3.365  15.939 -3.4964  0.0511 -0.2676
13063TIP3    H260681   1.534   3.468  15.844 -0.1568 -0.0902  1.4372
13064TIP3   OH260682   0.219   2.272   4.546 -0.1871 -0.5245  0.0039
13064TIP3    H160683   0.233   2.222   4.627 -1.0091 -1.2602 -0.2891
13064TIP3    H260684   0.164   2.346   4.572  0.5473 -0.0853  0.3327
13065TIP3   OH260685   3.950   2.567   1.008  0.3179  0.7114  0.1297
13065TIP3    H160686   3.965   2.478   1.039  0.4821  0.3473 -0.9478
13065TIP3    H260687   4.022   2.618   1.045  0.4083  0.3290  0.4872
13066TIP3   OH260688   0.769   1.933   3.315  0.1125  0.4745 -0.0704
13066TIP3    H160689   0.861   1.934   3.290  0.1958  0.9084  0.2466
13066TIP3    H260690   0.759   1.851   3.365  0.4328  0.6459  0.2815
13067TIP3   OH260691   0.071   4.256   5.900 -0.1030  0.6029 -0.2240
13067TIP3    H160692   0.136   4.278   5.967  1.6036 -0.3185 -1.5152
13067TIP3    H260693   0.121   4.215   5.830 -1.9959  0.5090 -1.5988
13068TIP3   OH260694   1.633   1.733   3.463  0.4010  0.1732 -0.1216
13068TIP3    H160695   1.675   1.651   3.491 -0.9311 -0.2520  0.7086
13068TIP3    H260696   1.697   1.773   3.404  1.1549 -1.3940 -0.4344
13069TIP3   OH260697   0.597   6.303   0.696  0.7560  0.0826 -0.1949
13069TIP3    H160698   0.615   6.210   0.683 -0.2423 -0.0874 -0.3922
13069TIP3    H260699   0.514   6.306   0.743  0.6457  0.8746 -0.4214
13070TIP3   OH260700   1.286   6.724  12.948 -0.6484 -0.3523  0.2680
13070TIP3    H160701   1.317   6.718  12.857 -0.5076 -0.2728  0.3104
13070TIP3    H260702   1.191   6.725  12.941 -0.6610  2.2466 -0.0620
13071TIP3   OH260703   4.593   2.380  11.756  0.0750 -0.4087 -0.4445
13071TIP3    H160704   4.512   2.342  11.791  0.1683  0.2996  0.5899
13071TIP3    H260705   4.582   2.375  11.661 -1.2649 -0.1842 -0.3304
13072TIP3   OH260706   2.099   3.264  16.942 -0.2546 -0.1710  0.2478
13072TIP3    H160707   2.084   3.357  16.961 -0.1398 -0.0883 -0.0552
13072TIP3    H260708   2.143   3.231  17.020  0.5757  0.2560 -0.0212
13073TIP3   OH260709   0.416   1.617   5.432  0.2231  0.7165 -0.2317
13073TIP3    H160710   0.396   1.686   5.495  0.5279 -0.4090  1.1568
13073TIP3    H260711   0.355   1.631   5.360 -0.0859  2.0864  0.2769
13074TIP3   OH260712   1.875   4.430   1.481  0.0125 -0.2122  0.0259
13074TIP3    H160713   1.797   4.382   1.453 -0.2288 -0.5074  1.1611
13074TIP3    H260714   1.903   4.386   1.561 -0.6694  1.9726  1.5588
13075TIP3   OH260715   3.070   1.651   1.999  0.4145  0.0049 -0.1136
13075TIP3    H160716   2.981   1.621   1.984  0.6479 -0.2062 -1.0998
13075TIP3    H260717   3.070   1.743   1.971  0.9668 -0.5214 -1.9579
13076TIP3   OH260718   1.139   3.811  16.345 -0.1099 -0.0182  0.4272
13076TIP3    H160719   1.145   3.762  16.262  0.3511  1.3245 -0.3705
13076TIP3    H260720   1.219   3.788  16.392  1.7709  2.2993 -1.3423
13077TIP3   OH260721   5.461   5.394  16.019 -0.4978 -0.2543 -0.0415
13077TIP3    H160722   5.381   5.440  16.044 -0.6906 -0.3830 -0.4172
13077TIP3    H260723   5.500   5.368  16.102  0.6495  2.2883  0.2966
13078TIP3   OH260724   4.887   2.769  11.337 -0.7013 -0.7417 -0.2981
13078TIP3    H160725   4.794   2.752  11.352 -0.6232 -0.5831  0.4227
13078TIP3    H260726   4.902   2.742  11.247 -1.9740  1.4620 -1.2659
13079TIP3   OH260727   6.286   4.661   4.325  0.3294 -0.0564  0.0948
13079TIP3    H160728   6.232   4.738   4.341 -0.8603 -0.5817 -1.1496
13079TIP3    H260729   6.258   4.597   4.392 -0.2760 -0.1612 -0.2507
13080TIP3   OH260730   2.972   1.064  12.487  0.0697  0.1928 -0.0012
13080TIP3    H160731   3.001   1.152  12.511  0.8205 -0.5265  1.9965
13080TIP3    H260732   3.045   1.007  12.510 -1.7095 -1.3595  2.4092
13081TIP3   OH260733   3.272   5.017  11.645 -0.1760  0.2663  0.2377
13081TIP3    H160734   3.289   5.073  11.569  0.1973  0.4034  0.4227
13081TIP3    H260735   3.317   5.060  11.717  0.2078 -0.3276  0.3602
13082TIP3   OH260736   2.641   0.988   0.293 -0.3858 -0.2770 -0.0418
13082TIP3    H160737   2.567   0.927   0.294  1.3722 -2.5614  0.1354
13082TIP3    H260738   2.696   0.959   0.366  1.3588  0.4414 -1.0326
13083TIP3   OH260739   5.063   2.666  12.359  0.2676 -0.5036 -0.6778
13083TIP3    H160740   5.148   2.662  12.316  0.1973  0.3970 -0.9068
13083TIP3    H260741   5.083   2.647  12.451  0.5190 -1.6434 -0.9451
13084TIP3   OH260742   2.338   6.689   4.576  0.0895  0.1581  0.5355
13084TIP3    H160743   2.263   6.656   4.624  0.8795 -1.2042  0.8814
13084TIP3    H260744   2.315   6.677   4.484 -0.1849 -0.1125  0.6385
13085TIP3   OH260745   6.474   5.223  16.520  0.0461 -0.0227  0.0531
13085TIP3    H160746   6.456   5.132  16.496 -1.4964  1.1720 -4.1157
13085TIP3    H260747   6.534   5.254  16.453  0.0667  2.2292  1.0256
13086TIP3   OH260748   3.618   6.195   2.209  0.5675  0.0004 -0.1885
13086TIP3    H160749   3.680   6.231   2.271 -0.2722  0.6565  0.2974
13086TIP3    H260750   3.533   6.227   2.239 -0.0026 -0.8452 -0.8513
13087TIP3   OH260751   5.983   5.529   0.109  0.4459  0.2432 -0.8303
13087TIP3    H160752   5.897   5.519   0.150  1.4609 -0.5328  1.2422
13087TIP3    H260753   6.012   5.440   0.092  1.2128  0.4584 -0.6729
13088TIP3   OH260754   0.265   6.308   3.201  0.3444  0.2407  0.0582
13088TIP3    H160755   0.294   6.273   3.117  2.0143 -0.3832  0.8506
13088TIP3    H260756   0.339   6.361   3.231  0.3560 -0.6804  1.7620
13089TIP3   OH260757   4.525   1.519   4.249  0.4013  0.3327  0.1598
13089TIP3    H160758   4.558   1.477   4.329  1.9790  1.0702 -0.0699
13089TIP3    H260759   4.603   1.552   4.205 -0.6211  1.8769 -0.5939
13090TIP3   OH260760   3.857   4.624   3.079 -0.0808 -0.2653  0.3061
13090TIP3    H160761   3.767   4.653   3.062 -0.8290 -1.2543  2.2213
13090TIP3    H260762   3.898   4.700   3.121 -0.6324 -0.4176  1.1568
13091TIP3   OH260763   4.086   1.764   3.600  0.2748 -0.0043 -0.0649
13091TIP3    H160764   4.033   1.693   3.636  0.6922 -0.7875 -0.9585
13091TIP3    H260765   4.165   1.721   3.567  0.7892  0.9505 -0.1277
13092TIP3   OH260766   0.990   3.323  12.939  0.5627  0.5747  0.5613
13092TIP3    H160767   0.921   3.382  12.909 -1.9275 -1.9598  0.9318
13092TIP3    H260768   1.011   3.354  13.028 -1.4629  0.3471  1.1607
13093TIP3   OH260769   2.788   0.858   5.240 -0.2141 -0.1587  0.0495
13093TIP3    H160770   2.839   0.805   5.178 -1.5551 -1.6649  0.1619
13093TIP3    H260771   2.823   0.834   5.326 -0.0836 -0.0162  0.0371
13094TIP3   OH260772   5.268   2.580  11.298  0.7340 -0.3770  0.4523
13094TIP3    H160773   5.293   2.507  11.355 -0.1742  0.0959  1.4987
13094TIP3    H260774   5.339   2.586  11.235  2.9505  0.4120  2.8156
13095TIP3   OH260775   5.849   1.520  12.665 -0.1102 -0.1032 -0.5925
13095TIP3    H160776   5.903   1.489  12.592 -0.7818  1.0373 -1.6268
13095TIP3    H260777   5.781   1.453  12.675  1.0111 -1.1509  0.1933
13096TIP3   OH260778   4.293   4.771  14.799 -0.3120  0.5638  0.5012
13096TIP3    H160779   4.339   4.849  14.767 -1.0433  0.7197 -0.1818
13096TIP3    H260780   4.362   4.705  14.809 -0.0843  0.4185 -1.6683
13097TIP3   OH260781   0.098   0.740  12.852  0.0686 -0.2688 -0.7888
13097TIP3    H160782   0.052   0.683  12.914 -0.0722 -1.3922 -1.8976
13097TIP3    H260783   0.037   0.813  12.837 -1.0201 -1.3129 -1.5915
13098TIP3   OH260784   4.685   5.841  14.960  0.2817  1.0579 -0.4338
13098TIP3    H160785   4.701   5.752  14.930  0.1358  1.3653 -1.4611
13098TIP3    H260786   4.771   5.882  14.963  0.2970  1.0275 -0.4506
13099TIP3   OH260787   4.919   0.880  15.795  0.0252 -0.2377 -0.3000
13099TIP3    H160788   4.883   0.792  15.807 -0.1784 -0.2560 -1.0076
13099TIP3    H260789   4.969   0.875  15.714 -0.8260  0.5602 -0.8863
13100TIP3   OH260790   4.616   2.520   5.184 -0.0074 -0.3637 -0.2045
13100TIP3    H160791   4.646   2.608   5.206  1.2766 -0.8401  0.0426
13100TIP3    H260792   4.571   2.531   5.100 -2.0102  0.9029  0.9795
13101TIP3   OH260793   3.542   5.055   2.876 -0.9372 -0.3527  0.1351
13101TIP3    H160794   3.483   5.129   2.893 -1.0685 -0.2884 -0.5692
13101TIP3    H260795   3.485   4.987   2.840 -0.5313 -0.1603 -0.9021
13102TIP3   OH260796   2.875   1.612  13.744 -0.3070  0.1071 -0.6431
13102TIP3    H160797   2.958   1.612  13.697 -0.3996  0.7278 -0.8140
13102TIP3    H260798   2.881   1.685  13.805 -0.4162 -0.3397 -0.0779
13103TIP3   OH260799   4.394   2.684  15.897  0.3194  0.3898  0.3623
13103TIP3    H160800   4.344   2.766  15.895  1.4916  1.1008 -0.8486
13103TIP3    H260801   4.331   2.618  15.866 -0.4141  0.9495  0.6159
13104TIP3   OH260802   2.643   4.971  10.594  0.2846  0.7247 -0.2463
13104TIP3    H160803   2.698   4.963  10.517  0.8835  1.1395  0.1317
13104TIP3    H260804   2.650   4.886  10.638  1.3866  1.0736  0.2922
13105TIP3   OH260805   0.505   2.026   0.525  0.0130 -0.2151 -0.7017
13105TIP3    H160806   0.522   2.101   0.582 -0.1333  0.7566 -1.8937
13105TIP3    H260807   0.584   1.973   0.530  0.2855  0.2298 -0.1580
13106TIP3   OH260808   3.321   1.013  14.357 -0.1857 -0.2437  0.1779
13106TIP3    H160809   3.284   0.956  14.424  1.8298 -1.2424  0.5228
13106TIP3    H260810   3.367   0.954  14.297  2.0187  0.9602  0.5732
13107TIP3   OH260811   6.176   1.908   2.894 -0.1865  0.3026  0.1074
13107TIP3    H160812   6.185   1.999   2.921 -1.2618  0.5726 -0.3909
13107TIP3    H260813   6.167   1.912   2.799  3.1558 -0.5949 -0.3757
13108TIP3   OH260814   3.570   2.640  13.032  0.8633 -0.9644 -0.2596
13108TIP3    H160815   3.622   2.559  13.031  3.1930  0.4502 -1.9699
13108TIP3    H260816   3.631   2.707  13.062 -0.3184  0.5946 -1.2087
13109TIP3   OH260817   4.675   5.320  14.368  0.2156 -0.0263 -0.1977
13109TIP3    H160818   4.679   5.378  14.444  0.7021  0.7833 -0.8325
13109TIP3    H260819   4.698   5.375  14.294  2.6037 -1.4278 -0.6061
13110TIP3   OH260820   2.657   3.352  17.201 -0.4265 -0.2173 -0.0335
13110TIP3    H160821   2.716   3.393  17.264  1.4544  0.0619 -1.8616
13110TIP3    H260822   2.613   3.426  17.158  0.4400 -0.2227 -0.9802
13111TIP3   OH260823   3.794   2.539   5.821 -0.7157  0.0184  0.4747
13111TIP3    H160824   3.872   2.532   5.765 -0.8620  0.7075  0.1675
13111TIP3    H260825   3.816   2.608   5.884 -0.3779 -1.0652  1.5797
13112TIP3   OH260826   4.164   0.887  13.996  0.0442  0.1664  0.1248
13112TIP3    H160827   4.092   0.934  14.040  0.7061 -0.6970  2.2829
13112TIP3    H260828   4.137   0.795  13.999  1.1547 -0.1491  0.8401
13113TIP3   OH260829   3.621   0.293   0.683 -0.2671 -0.1426 -0.2632
13113TIP3    H160830   3.699   0.252   0.723  0.3990  0.4710 -0.9041
13113TIP3    H260831   3.631   0.276   0.589 -0.0011  1.4196 -0.5388
13114TIP3   OH260832   1.129   1.939   0.884  0.2831 -0.3642 -0.0737
13114TIP3    H160833   1.145   1.850   0.915  0.1300 -0.0548  0.9518
13114TIP3    H260834   1.192   1.992   0.933 -0.4973  0.2433  0.2850
13115TIP3   OH260835   0.793   6.622  12.913  0.0444 -0.3132  0.0021
13115TIP3    H160836   0.766   6.576  12.993  0.2281 -1.5823 -0.6461
13115TIP3    H260837   0.786   6.556  12.844 -0.5741  0.9044 -1.1203
13116TIP3   OH260838   1.642   4.043  14.042 -0.3922 -0.2687 -0.3859
13116TIP3    H160839   1.671   4.134  14.047  0.4428 -0.6089  1.4182
13116TIP3    H260840   1.662   4.017  13.952  0.2748  1.0254 -0.6382
13117TIP3   OH260841   6.731   0.951  16.028 -0.0637 -0.1128  0.3451
13117TIP3    H160842   6.762   0.879  15.972 -0.6106 -0.0313 -0.0653
13117TIP3    H260843   6.637   0.953  16.015  0.0158  1.1183 -0.1870
13118TIP3   OH260844   5.666   4.585  14.142 -0.5445  0.7950 -0.4270
13118TIP3    H160845   5.684   4.616  14.053 -0.7177  0.9974 -0.3901
13118TIP3    H260846   5.752   4.585  14.184 -0.3328 -0.0584 -0.8304
13119TIP3   OH260847   3.974   0.670   0.457  0.8563  0.1559 -0.5221
13119TIP3    H160848   4.037   0.720   0.509  0.3686 -0.7831  1.0235
13119TIP3    H260849   3.928   0.616   0.520  0.1620 -0.9706 -1.9373
13120TIP3   OH260850   1.007   6.754   3.116 -0.4120 -0.4887  0.2113
13120TIP3    H160851   1.091   6.792   3.142 -0.7878  0.7780 -0.3480
13120TIP3    H260852   1.018   6.660   3.128  1.0359 -0.3238  0.2954
13121TIP3   OH260853   3.189   2.506  10.485 -0.0352  0.1358  0.4840
13121TIP3    H160854   3.279   2.479  10.505 -0.4726 -0.4107  1.7771
13121TIP3    H260855   3.134   2.444  10.532 -1.1414 -0.6622 -1.7255
13122TIP3   OH260856   3.106   3.607   4.645 -0.7177  0.8123  0.7077
13122TIP3    H160857   3.132   3.584   4.556 -0.0470  0.1368  1.0673
13122TIP3    H260858   3.157   3.685   4.666 -1.1212  1.1681  0.3914
13123TIP3   OH260859   4.540   3.453  16.690 -0.2157  0.1263 -0.0225
13123TIP3    H160860   4.549   3.421  16.779 -1.7337 -0.3307  0.0035
13123TIP3    H260861   4.507   3.542  16.700  0.8606  0.5423 -0.1259
13124TIP3   OH260862   2.384   0.796   1.276 -0.0070 -0.2177  0.0643
13124TIP3    H160863   2.388   0.875   1.331 -1.7368  1.1869 -1.7020
13124TIP3    H260864   2.350   0.728   1.334 -0.3773  0.8407  1.1265
13125TIP3   OH260865   6.401   3.255  11.296  0.0015  0.2487 -0.4183
13125TIP3    H160866   6.387   3.348  11.318  1.8888  0.5702 -0.3775
13125TIP3    H260867   6.391   3.252  11.201 -1.0069  0.2815 -0.3297
13126TIP3   OH260868   6.129   1.690   0.993  0.1426 -0.0728 -0.6509
13126TIP3    H160869   6.088   1.716   1.076 -0.5895  3.0975 -1.8363
13126TIP3    H260870   6.078   1.615   0.963  0.0630 -0.9342  1.4299
13127TIP3   OH260871   1.523   5.981   1.635  0.3410 -0.3616 -0.0922
13127TIP3    H160872   1.464   5.907   1.648 -0.6592  0.6465  1.3553
13127TIP3    H260873   1.519   5.997   1.540 -0.6024 -1.2018 -0.2228
13128TIP3   OH260874   1.097   1.293  16.627  0.1169 -0.1929 -0.1882
13128TIP3    H160875   1.104   1.389  16.633 -0.1485 -0.0045 -2.0989
13128TIP3    H260876   1.009   1.273  16.659  0.4813  0.0922  1.0286
13129TIP3   OH260877   2.066   1.206   0.263 -0.3048  0.2682  0.5131
13129TIP3    H160878   2.067   1.178   0.355 -0.4873  1.2991  0.8432
13129TIP3    H260879   2.100   1.296   0.265  1.2711 -0.2671 -0.6353
13130TIP3   OH260880   5.303   0.751  16.683  0.2698  0.2052 -0.6301
13130TIP3    H160881   5.299   0.762  16.588  0.9307  2.1112 -0.4802
13130TIP3    H260882   5.323   0.658  16.695  0.4296 -0.0249 -2.3612
13131TIP3   OH260883   4.564   4.138   0.474  0.4852  0.1940  0.4606
13131TIP3    H160884   4.498   4.179   0.417  1.7915  1.2622 -0.3401
13131TIP3    H260885   4.528   4.051   0.492  0.4825 -0.6655 -2.9287
13132TIP3   OH260886   3.093   5.153  10.759 -0.4645 -0.1652  0.1176
13132TIP3    H160887   3.071   5.181  10.670  0.6680 -0.1404 -0.1832
13132TIP3    H260888   3.011   5.158  10.808 -0.4393  3.2604  0.0094
13133TIP3   OH260889   3.928   3.099   0.368 -0.3802 -0.5969 -0.3253
13133TIP3    H160890   3.930   3.193   0.353  0.3598 -0.3220  1.2236
13133TIP3    H260891   3.870   3.089   0.444  1.3435 -1.1120  0.9810
13134TIP3   OH260892   2.717   4.678  13.909 -0.1864  0.2605  0.1702
13134TIP3    H160893   2.653   4.702  13.842  0.6261  0.5608 -0.5349
13134TIP3    H260894   2.772   4.756  13.918 -0.5804  0.4016  1.5674
13135TIP3   OH260895   0.455   4.830  16.952  0.5763 -0.3305  0.3647
13135TIP3    H160896   0.526   4.774  16.921 -0.0252 -0.9575  0.0837
13135TIP3    H260897   0.396   4.837  16.877  0.0862 -0.2363  0.7506
13136TIP3   OH260898   6.515   1.720  14.809  0.0354 -0.1181  0.0249
13136TIP3    H160899   6.455   1.785  14.773 -1.5644 -0.7022  1.4931
13136TIP3    H260900   6.554   1.678  14.732  1.1776  2.5519 -0.9601
13137TIP3   OH260901   1.620   3.954   3.673 -0.2872 -0.7717  0.0421
13137TIP3    H160902   1.633   4.017   3.744 -0.4639  0.5862 -1.0891
13137TIP3    H260903   1.610   4.008   3.595  0.6552 -2.2459 -1.1438
13138TIP3   OH260904   4.959   0.269   3.215  0.0311 -0.3563 -0.1069
13138TIP3    H160905   4.884   0.243   3.163 -0.1158 -1.4785  0.6331
13138TIP3    H260906   4.923   0.325   3.283  0.1405  0.6123 -0.8254
13139TIP3   OH260907   5.021   2.176  15.819  0.1786  0.5803  0.4286
13139TIP3    H160908   5.040   2.228  15.741  0.8645  0.0914  0.2718
13139TIP3    H260909   4.942   2.127  15.797 -0.3528  1.3692  0.4992
13140TIP3   OH260910   3.977   2.406  14.758  0.5567 -0.3263 -0.0711
13140TIP3    H160911   4.065   2.383  14.785  0.2512 -1.0015  0.3643
13140TIP3    H260912   3.932   2.428  14.839  0.3524  0.1194 -0.3020
13141TIP3   OH260913   1.308   0.647   4.184 -0.0270 -0.2868 -0.3148
13141TIP3    H160914   1.253   0.601   4.122  1.0403  0.1948 -1.6942
13141TIP3    H260915   1.318   0.735   4.146  0.2524  0.1844  0.8023
13142TIP3   OH260916   0.599   4.556   2.520 -0.6000 -0.4695 -0.2674
13142TIP3    H160917   0.611   4.609   2.599  0.8115 -3.0146  1.3724
13142TIP3    H260918   0.656   4.596   2.455  0.8339 -0.2498  1.0726
13143TIP3   OH260919   3.429   6.484   0.630  0.0294  0.7723  0.1948
13143TIP3    H160920   3.408   6.400   0.590  0.6629  0.5393  0.3473
13143TIP3    H260921   3.359   6.543   0.600 -1.0235 -0.0526  0.9632
13144TIP3   OH260922   1.023   0.245   5.451 -0.0993 -0.1209  0.0862
13144TIP3    H160923   1.034   0.331   5.410  2.1315 -0.8996 -1.0525
13144TIP3    H260924   0.948   0.206   5.405  1.8257 -0.6492 -2.8259
13145TIP3   OH260925   3.902   6.772   4.955 -0.4475  0.6376  0.3525
13145TIP3    H160926   3.916   6.838   4.888  0.7006  0.9025  0.8323
13145TIP3    H260927   3.896   6.689   4.907  0.2099  0.8423 -0.0865
13146TIP3   OH260928   6.042   1.013  13.997 -0.2463  0.0138  0.2369
13146TIP3    H160929   6.085   1.001  14.081 -0.1227 -0.9412  0.0448
13146TIP3    H260930   6.101   0.973  13.933  0.8116  2.7252 -0.6492
13147TIP3   OH260931   2.966   3.412  10.940  0.8964 -0.1927 -0.5165
13147TIP3    H160932   3.003   3.475  10.878  0.8153  0.3998  0.0284
13147TIP3    H260933   2.877   3.444  10.956  0.6114 -0.8448 -0.7766
13148TIP3   OH260934   4.991   0.728   0.424  0.2975 -0.1837  0.7719
13148TIP3    H160935   4.978   0.817   0.390  0.3927 -0.7889 -0.9348
13148TIP3    H260936   5.065   0.736   0.484 -0.1181  1.0059  1.1457
13149TIP3   OH260937   5.791   1.409  14.888 -0.5212  0.2426 -0.2051
13149TIP3    H160938   5.847   1.351  14.836  0.2660  1.2687 -0.5493
13149TIP3    H260939   5.787   1.368  14.974 -0.8387 -0.8473 -0.7186
13150TIP3   OH260940   0.288   5.804   6.168 -0.2034  0.2740 -0.1308
13150TIP3    H160941   0.352   5.735   6.181  1.7002  1.9221 -0.3253
13150TIP3    H260942   0.209   5.772   6.212  0.0016 -2.7694 -1.7073
13151TIP3   OH260943   0.810   4.692  15.724  0.0944 -0.5948 -0.2960
13151TIP3    H160944   0.864   4.727  15.795 -1.7216 -0.5458  1.1482
13151TIP3    H260945   0.872   4.654  15.663  1.8093  0.3926  0.7493
13152TIP3   OH260946   2.654   2.921  10.517  0.0090  0.2965 -0.4220
13152TIP3    H160947   2.566   2.936  10.483 -0.0099  0.4422 -0.3134
13152TIP3    H260948   2.660   2.826  10.528  0.3027  0.1729 -1.5858
13153TIP3   OH260949   4.398   1.969  14.585 -0.8552 -0.4027  0.5562
13153TIP3    H160950   4.353   1.951  14.503 -0.0868 -0.3443  0.1089
13153TIP3    H260951   4.329   1.967  14.652 -1.7734  1.2221 -0.2930
13154TIP3   OH260952   2.321   0.647   2.714  0.2912  0.4559  0.3944
13154TIP3    H160953   2.259   0.654   2.787 -2.0728 -0.2025 -1.4074
13154TIP3    H260954   2.301   0.724   2.659  1.3806  0.4467 -0.0392
13155TIP3   OH260955   2.151   3.694  14.563  0.2509 -0.3860 -0.0220
13155TIP3    H160956   2.141   3.653  14.650 -0.3440  0.3959  0.2937
13155TIP3    H260957   2.105   3.778  14.571  2.6893  1.0447 -0.1992
13156TIP3   OH260958   6.312   6.075  15.033  0.1123  0.3035 -0.2667
13156TIP3    H160959   6.342   6.040  15.117  0.8968  1.3742 -0.0871
13156TIP3    H260960   6.306   6.169  15.047 -0.4536  0.4176 -1.2070
13157TIP3   OH260961   3.776   1.399  12.323 -0.2694 -0.6639  0.1298
13157TIP3    H160962   3.690   1.371  12.294 -0.7112 -1.2488  1.8684
13157TIP3    H260963   3.761   1.486  12.361 -0.0537 -0.6709  0.2332
13158TIP3   OH260964   3.513   1.942  11.662  0.1635 -0.6089  0.5535
13158TIP3    H160965   3.573   1.990  11.720 -0.2219 -0.1594  0.5874
13158TIP3    H260966   3.561   1.935  11.579 -1.1165  3.1711 -0.7303
13159TIP3   OH260967   1.072   5.782   2.163  0.4930  0.6092 -0.3063
13159TIP3    H160968   1.144   5.720   2.173 -0.8389 -0.5703  3.5209
13159TIP3    H260969   1.095   5.855   2.221 -0.6007  1.0347 -0.3892
13160TIP3   OH260970   6.788   5.275   3.108  0.3658 -0.5123 -1.1496
13160TIP3    H160971   6.843   5.309   3.178  0.5099  2.3634 -2.5249
13160TIP3    H260972   6.850   5.252   3.039  0.0093  1.5827 -2.2361
13161TIP3   OH260973   5.355   6.689   2.783 -0.1278 -0.0332  0.8314
13161TIP3    H160974   5.295   6.758   2.755 -0.9089 -0.6147  1.0594
13161TIP3    H260975   5.299   6.614   2.802  0.7145 -0.7275  0.6105
13162TIP3   OH260976   5.848   5.262  13.110  0.0088 -0.5222  0.1606
13162TIP3    H160977   5.898   5.181  13.125 -0.4345 -0.8174  0.0713
13162TIP3    H260978   5.836   5.265  13.016  0.1609 -0.2658  0.1498
13163TIP3   OH260979   5.075   4.869  10.877  0.0028 -0.2054 -0.2260
13163TIP3    H160980   5.056   4.776  10.870 -1.0074 -0.0821  0.5543
13163TIP3    H260981   5.170   4.874  10.888  0.4094 -0.9698 -2.6465
13164TIP3   OH260982   2.775   0.368  17.098  0.1678  0.0653 -0.1753
13164TIP3    H160983   2.815   0.451  17.123  0.7049 -0.5478  1.1037
13164TIP3    H260984   2.842   0.302  17.117  0.0710 -0.6063 -1.9780
13165TIP3   OH260985   4.523   3.291   3.783  0.0740 -0.7522  0.3811
13165TIP3    H160986   4.452   3.354   3.777  0.1900 -0.6355  0.1899
13165TIP3    H260987   4.552   3.279   3.692  0.0698 -1.0605  0.4189
13166TIP3   OH260988   4.606   1.972   1.540  0.1091 -0.4593 -0.9839
13166TIP3    H160989   4.618   2.008   1.452 -0.1085  1.4102 -0.2866
13166TIP3    H260990   4.602   1.877   1.526  1.0465 -0.2741 -2.8664
13167TIP3   OH260991   5.605   3.478   4.743  0.4057 -0.8559  0.4986
13167TIP3    H160992   5.536   3.413   4.728 -1.1771  0.4761  1.6337
13167TIP3    H260993   5.569   3.559   4.708  1.8556 -0.3250  0.1698
13168TIP3   OH260994   5.944   3.164   3.001 -0.2220  0.1702  0.1268
13168TIP3    H160995   5.927   3.074   2.972  2.6547 -0.1025 -1.0652
13168TIP3    H260996   5.962   3.213   2.921 -0.2740  1.4484  0.8614
13169TIP3   OH260997   5.861   0.533  11.175 -0.5736  0.3529  0.1610
13169TIP3    H160998   5.849   0.501  11.264  2.5899  2.4357  1.5170
13169TIP3    H260999   5.815   0.617  11.173 -0.8909  0.1732 -0.3024
13170TIP3   OH261000   2.273   1.875  11.465  0.4832  0.6014  0.0903
13170TIP3    H161001   2.331   1.814  11.418  3.4525  1.2063  2.5943
13170TIP3    H261002   2.281   1.848  11.557 -0.6095  2.8319  0.8930
13171TIP3   OH261003   3.463   2.035   5.553  1.0752  0.5328 -0.6095
13171TIP3    H161004   3.383   2.051   5.503  0.4772  2.1672  0.7304
13171TIP3    H261005   3.440   1.963   5.612  1.6819 -1.1811 -2.3792
13172TIP3   OH261006   4.916   3.345  16.211  0.5132 -0.3431 -0.0186
13172TIP3    H161007   4.842   3.286  16.192  0.5478  0.0239 -1.4207
13172TIP3    H261008   4.989   3.306  16.164  1.1889 -0.5953  1.2073
13173TIP3   OH261009   1.044   6.604   0.581  0.2488  0.2354  0.0463
13173TIP3    H161010   0.989   6.593   0.658  0.2523 -0.3400 -0.0263
13173TIP3    H261011   1.111   6.667   0.607  0.9082 -0.7723  0.8867
13174TIP3   OH261012   3.970   3.518  12.885  0.1822  0.2280 -0.3061
13174TIP3    H161013   3.999   3.606  12.908  1.5225 -0.1267 -0.5490
13174TIP3    H261014   3.941   3.526  12.794 -0.6561  0.6311 -0.0056
13175TIP3   OH261015   3.475   0.568   3.324 -0.4594 -0.1080  0.0102
13175TIP3    H161016   3.448   0.569   3.232  1.1380 -2.4428 -0.5756
13175TIP3    H261017   3.393   0.560   3.373 -1.2237 -1.1277 -1.3506
13176TIP3   OH261018   0.259   2.017  14.704  0.2333 -0.4304 -0.9053
13176TIP3    H161019   0.245   1.954  14.633  0.1327  0.5497 -1.7733
13176TIP3    H261020   0.299   2.093  14.662  1.5819 -0.3988  0.3567
13177TIP3   OH261021   5.330   6.376   0.677  0.1974 -0.0566  0.0612
13177TIP3    H161022   5.288   6.455   0.712  0.2555 -0.4458  1.0368
13177TIP3    H261023   5.282   6.357   0.596  0.5160  1.2706 -0.4710
13178TIP3   OH261024   0.407   2.929  13.071  0.6125 -0.7927  0.1951
13178TIP3    H161025   0.331   2.985  13.088  1.6759  0.9246 -0.4528
13178TIP3    H261026   0.403   2.862  13.138 -2.6435 -2.0329 -1.0289
13179TIP3   OH261027   1.585   3.077  12.949  0.8618 -0.5692  0.8026
13179TIP3    H161028   1.562   3.159  12.907  1.5284  1.3803  3.9222
13179TIP3    H261029   1.502   3.040  12.978  0.6211 -0.6554  0.0171
13180TIP3   OH261030   3.398   4.364  11.181  0.4737  0.3339  0.1106
13180TIP3    H161031   3.393   4.448  11.136 -0.5960  0.2485  0.0477
13180TIP3    H261032   3.310   4.327  11.172 -0.0310  0.6487  2.9411
13181TIP3   OH261033   1.719   0.243   4.800 -0.0723 -0.3413  0.1168
13181TIP3    H161034   1.646   0.184   4.819 -1.2121  1.1538  0.4588
13181TIP3    H261035   1.790   0.184   4.774 -1.3943 -1.8258 -0.2773
13182TIP3   OH261036   0.669   0.763  12.327  0.1319  0.2343 -0.1853
13182TIP3    H161037   0.738   0.813  12.372  0.6597  1.7220 -2.4650
13182TIP3    H261038   0.598   0.826  12.314 -0.3438 -0.3912 -0.6869
13183TIP3   OH261039   0.399   6.507  15.138 -0.5274 -0.4329 -0.7270
13183TIP3    H161040   0.474   6.567  15.146 -0.0022 -1.1270 -0.2952
13183TIP3    H261041   0.323   6.564  15.146 -0.0386  0.0966  0.4767
13184TIP3   OH261042   4.061   3.406  11.303  0.3239 -0.3904 -0.6119
13184TIP3    H161043   4.036   3.319  11.272 -0.9572  0.4255 -1.9545
13184TIP3    H261044   4.078   3.457  11.224  0.4184  0.7688  0.1257
13185TIP3   OH261045   3.366   4.144   2.272 -0.2177 -0.1119 -0.0292
13185TIP3    H161046   3.279   4.152   2.233 -0.5817 -0.8839  0.6108
13185TIP3    H261047   3.387   4.051   2.268  0.9122  0.1448 -0.8452
13186TIP3   OH261048   0.376   4.795   6.337 -0.1616 -0.4255 -0.1332
13186TIP3    H161049   0.331   4.711   6.342 -2.4006  0.7760  1.0405
13186TIP3    H261050   0.331   4.842   6.266  0.2087  0.2749  0.0886
13187TIP3   OH261051   6.356   2.152   1.348  0.9372  0.4534 -0.2296
13187TIP3    H161052   6.340   2.145   1.254 -2.0375  0.2291  0.1799
13187TIP3    H261053   6.353   2.246   1.366  1.9697  0.5269 -0.3980
13188TIP3   OH261054   4.802   3.746  13.592  0.4837 -0.0040  0.7136
13188TIP3    H161055   4.736   3.775  13.528  0.0403  1.9169  1.9643
13188TIP3    H261056   4.886   3.767  13.550  0.2161  4.0077  1.7424
13189TIP3   OH261057   4.423   1.504  17.176  0.2106  0.2258 -0.5419
13189TIP3    H161058   4.452   1.563  17.245  0.6739 -0.2499 -0.3211
13189TIP3    H261059   4.483   1.520  17.103  1.3153 -1.0456  0.0596
13190TIP3   OH261060   4.096   2.796   2.809 -0.3143  0.1183 -0.1598
13190TIP3    H161061   4.156   2.812   2.737  1.6174 -1.8114  0.8990
13190TIP3    H261062   4.136   2.840   2.884  0.1877 -1.6812  0.6910
13191TIP3   OH261063   3.825   5.272   3.950 -0.0002  0.1789  0.2066
13191TIP3    H161064   3.808   5.358   3.911 -2.2134  0.1237  0.9423
13191TIP3    H261065   3.899   5.287   4.008 -0.9042  1.8360  1.0166
13192TIP3   OH261066   1.112   6.314   0.892  0.1976 -0.2845 -0.2983
13192TIP3    H161067   1.022   6.308   0.860 -0.9297  2.9183  1.8070
13192TIP3    H261068   1.108   6.276   0.980 -0.0791  2.9267  1.2068
13193TIP3   OH261069   6.162   6.530  14.119 -0.4759  0.4600 -0.7199
13193TIP3    H161070   6.068   6.514  14.120  0.0181 -3.2273  1.2842
13193TIP3    H261071   6.179   6.581  14.198 -0.7013  0.6488 -0.7913
13194TIP3   OH261072   4.802   5.651  15.406  0.2452 -0.2565  0.0901
13194TIP3    H161073   4.844   5.585  15.461  0.4375  0.3097  0.6249
13194TIP3    H261074   4.718   5.613  15.382  0.8436 -1.2000 -0.5891
13195TIP3   OH261075   4.282   1.594   3.911 -0.2280 -0.0713 -0.2723
13195TIP3    H161076   4.355   1.542   3.878  0.2692  0.8677 -0.6929
13195TIP3    H261077   4.204   1.541   3.893  0.0678  0.1722 -2.4960
13196TIP3   OH261078   2.355   3.628   6.321  0.4900  0.2517 -0.4525
13196TIP3    H161079   2.270   3.585   6.311  0.1328  1.2289 -2.0499
13196TIP3    H261080   2.366   3.638   6.415 -0.6128 -0.9480 -0.1643
13197TIP3   OH261081   4.533   6.587   2.281 -0.4743 -0.1838 -0.1141
13197TIP3    H161082   4.530   6.627   2.368  1.0953  1.4745 -0.7503
13197TIP3    H261083   4.622   6.603   2.251 -0.7458 -1.4683 -1.7017
13198TIP3   OH261084   0.953   3.471   4.769  0.2272 -0.2535 -0.5802
13198TIP3    H161085   1.048   3.459   4.772  0.2794  0.1832 -0.3866
13198TIP3    H261086   0.922   3.432   4.851  0.1220 -1.3348 -1.1143
13199TIP3   OH261087   6.424   6.557   0.141  0.7518 -0.4127  0.0850
13199TIP3    H161088   6.458   6.588   0.056 -1.2242  1.1268 -0.2019
13199TIP3    H261089   6.491   6.582   0.204  1.0504  0.8188 -0.6960
13200TIP3   OH261090   4.301   2.115  14.126 -0.7653  0.2557 -0.4847
13200TIP3    H161091   4.290   2.205  14.156  0.3944  0.8609 -1.7073
13200TIP3    H261092   4.387   2.115  14.084  0.6690 -2.1904  2.1077
13201TIP3   OH261093   0.713   2.520   0.351  0.0548 -0.7754  0.2997
13201TIP3    H161094   0.743   2.469   0.276  0.6154  0.5246 -0.3890
13201TIP3    H261095   0.783   2.512   0.415  0.0846 -0.9768  0.2423
13202TIP3   OH261096   2.840   6.491  12.779  0.0670 -0.3806  0.5125
13202TIP3    H161097   2.901   6.559  12.751  1.7574 -1.7735  0.6323
13202TIP3    H261098   2.859   6.417  12.721 -1.0047 -1.1008  1.0487
13203TIP3   OH261099   0.505   3.993  14.059  0.5091  0.5838  0.7067
13203TIP3    H161100   0.504   4.050  13.982 -1.4181  0.3893  0.5588
13203TIP3    H261101   0.488   3.906  14.025  2.3368  0.0379  1.0694
13204TIP3   OH261102   3.306   5.872  17.151  0.1174  0.0600 -0.1744
13204TIP3    H161103   3.215   5.862  17.179 -0.0706  0.0694 -0.7751
13204TIP3    H261104   3.354   5.891  17.232 -0.1134 -1.7656  0.4318
13205TIP3   OH261105   1.787   0.786  13.016  0.5672 -0.0489 -0.1901
13205TIP3    H161106   1.758   0.842  13.088 -0.3297 -2.6180  1.5647
13205TIP3    H261107   1.709   0.738  12.990  1.3348 -0.5999 -1.5516
13206TIP3   OH261108   5.110   2.582   4.154 -0.1226 -0.2096 -0.2054
13206TIP3    H161109   5.104   2.659   4.097  0.2079 -0.4714 -0.6064
13206TIP3    H261110   5.047   2.598   4.224 -0.8134 -0.0435 -0.8542
13207TIP3   OH261111   2.536   4.984  16.208 -0.0132  0.0336 -0.1276
13207TIP3    H161112   2.586   4.950  16.282  2.1183  0.6166 -1.2001
13207TIP3    H261113   2.445   4.961  16.227  0.2012  1.4915  3.4123
13208TIP3   OH261114   0.874   1.331  15.931 -0.0409 -0.2342 -0.4983
13208TIP3    H161115   0.967   1.313  15.924 -0.0005 -1.5433  2.1084
13208TIP3    H261116   0.864   1.372  16.017 -1.6007  2.2745 -1.7623
13209TIP3   OH261117   3.951   0.851   2.796  0.2794  0.0123  0.3559
13209TIP3    H161118   3.929   0.781   2.857  1.2258 -0.2077  0.4575
13209TIP3    H261119   4.047   0.858   2.800  0.1909  1.5058  0.5718
13210TIP3   OH261120   6.400   4.234  11.240  0.3502  0.4427 -0.0310
13210TIP3    H161121   6.315   4.242  11.284  0.2618  0.3500 -0.1878
13210TIP3    H261122   6.432   4.148  11.266  1.1473  1.1164  1.3724
13211TIP3   OH261123   3.439   3.172  13.395  0.4017  0.0069 -0.0246
13211TIP3    H161124   3.380   3.155  13.321  0.0766 -1.8028  0.5923
13211TIP3    H261125   3.524   3.139  13.365  0.2153 -0.9490  0.4832
13212TIP3   OH261126   1.741   2.695  16.505  0.6270  0.2172  0.3379
13212TIP3    H161127   1.803   2.760  16.536 -0.0402  0.5961  0.9114
13212TIP3    H261128   1.677   2.745  16.453  0.9886 -0.2175 -0.5518
13213TIP3   OH261129   6.303   6.408   4.183  0.1709 -0.0359  0.4162
13213TIP3    H161130   6.391   6.377   4.205  0.9204  2.3635  1.0108
13213TIP3    H261131   6.299   6.497   4.216 -2.0742  0.3579 -0.7047
13214TIP3   OH261132   1.351   0.399  16.696 -0.1211 -0.5638 -0.2613
13214TIP3    H161133   1.265   0.425  16.666  0.2055 -1.2606 -1.9239
13214TIP3    H261134   1.334   0.327  16.757 -0.7184 -1.2485 -1.1964
13215TIP3   OH261135   2.282   4.788  12.038  0.2472  0.0225  0.0614
13215TIP3    H161136   2.283   4.813  11.946  1.7550  0.6054  0.2035
13215TIP3    H261137   2.211   4.840  12.076  0.2032  0.4556 -0.6010
13216TIP3   OH261138   5.232   3.116   4.549  0.7478  0.0467 -0.0444
13216TIP3    H161139   5.162   3.119   4.614  0.3307  1.4692 -0.5131
13216TIP3    H261140   5.257   3.024   4.544  0.4533 -0.1602  1.7552
13217TIP3   OH261141   4.483   6.663   0.458  1.0071  0.2071 -0.2317
13217TIP3    H161142   4.410   6.608   0.432  0.0598  1.1791  0.3071
13217TIP3    H261143   4.491   6.728   0.388 -1.1854  2.4783  1.4178
13218TIP3   OH261144   2.763   1.708  13.294 -0.3296 -0.0522  0.3350
13218TIP3    H161145   2.702   1.644  13.257 -1.0782  1.1877 -0.6275
13218TIP3    H261146   2.847   1.689  13.253 -0.9436  0.7027 -1.3455
13219TIP3   OH261147   2.445   3.522  13.314 -0.0863 -0.1618  0.0026
13219TIP3    H161148   2.463   3.432  13.289  1.1728 -0.5970  2.1808
13219TIP3    H261149   2.503   3.538  13.388 -1.4695  1.8944  0.7396
13220TIP3   OH261150   2.500   0.635   0.074  0.0377  0.4580  0.4451
13220TIP3    H161151   2.503   0.650  -0.021  0.9202 -1.3304  0.1365
13220TIP3    H261152   2.592   0.620   0.098 -0.0602  1.8107  1.7787
13221TIP3   OH261153   2.838   2.457  12.399  0.5723  0.1585  0.7637
13221TIP3    H161154   2.748   2.426  12.389  0.6268 -0.4169  1.9357
13221TIP3    H261155   2.830   2.542  12.440  0.5348  0.5635 -0.0590
13222TIP3   OH261156   1.950   1.735  13.024 -0.4099 -0.1118  0.3632
13222TIP3    H161157   1.953   1.812  12.967 -2.1792  0.9172  1.5488
13222TIP3    H261158   2.034   1.737  13.071 -0.3143  0.9537  0.1882
13223TIP3   OH261159   4.130   5.830  16.032 -0.4290  0.0400  0.0163
13223TIP3    H161160   4.157   5.792  15.949 -0.2004 -0.8786  0.4933
13223TIP3    H261161   4.047   5.787  16.052  0.4978 -1.2760  1.2288
13224TIP3   OH261162   0.693   4.173  13.568 -0.5540  0.2753  1.0073
13224TIP3    H161163   0.729   4.250  13.523  1.1662 -0.9264  0.1904
13224TIP3    H261164   0.600   4.173  13.544 -0.1610  0.9510 -0.7101
13225TIP3   OH261165   5.817   2.244  11.073 -0.2482  0.0246 -0.3727
13225TIP3    H161166   5.888   2.191  11.037  0.6275  0.3063  0.8975
13225TIP3    H261167   5.859   2.325  11.101 -0.6842 -0.5643  2.1896
13226TIP3   OH261168   6.394   1.774  15.322 -0.0260 -0.1722 -0.7550
13226TIP3    H161169   6.344   1.819  15.253  0.2337 -0.2292 -0.9821
13226TIP3    H261170   6.439   1.845  15.368  1.8978 -0.2913 -2.2951
13227TIP3   OH261171   0.391   6.318   1.297 -0.6847  0.4058  0.0707
13227TIP3    H161172   0.338   6.388   1.259  0.4858  0.5185 -1.4910
13227TIP3    H261173   0.361   6.238   1.253 -0.1587  0.3499 -0.1954
13228TIP3   OH261174   4.273   2.822  14.782  0.0402  0.1531  0.1803
13228TIP3    H161175   4.242   2.745  14.734  0.3619  1.0218 -1.5084
13228TIP3    H261176   4.360   2.797  14.813 -0.2425 -0.4908  0.4695
13229TIP3   OH261177   1.179   2.390   3.907  0.5440 -0.3892 -0.1869
13229TIP3    H161178   1.161   2.441   3.828 -1.4310 -0.3076  0.2639
13229TIP3    H261179   1.117   2.318   3.904 -1.4429  1.0278  2.5191
13230TIP3   OH261180   3.547   2.922   0.913 -0.1157  0.1091 -0.1357
13230TIP3    H161181   3.453   2.915   0.925 -0.1547 -0.2744 -0.6301
13230TIP3    H261182   3.583   2.851   0.968  0.0831  1.9472  2.2757
13231TIP3   OH261183   3.772   6.371  13.234  0.0337  0.3259  0.6807
13231TIP3    H161184   3.719   6.451  13.230 -0.1375  0.1505 -1.4551
13231TIP3    H261185   3.848   6.390  13.179  0.4530 -0.6647  0.8974
13232TIP3   OH261186   1.075   6.274   6.162 -0.5686 -0.1293 -0.5137
13232TIP3    H161187   0.988   6.245   6.191 -0.9844 -0.0465 -1.6110
13232TIP3    H261188   1.056   6.349   6.105  0.2568  0.1514 -0.4207
13233TIP3   OH261189   5.054   2.194   6.664 -0.1461  0.1092  0.2989
13233TIP3    H161190   4.981   2.158   6.614 -0.6843 -0.9873  1.8022
13233TIP3    H261191   5.119   2.124   6.667  0.6608  0.8099 -0.3782
13234TIP3   OH261192   0.650   3.729  14.408  0.2911  0.8439 -0.0726
13234TIP3    H161193   0.602   3.719  14.325  0.2760  1.1693 -0.1027
13234TIP3    H261194   0.594   3.687  14.473 -0.0716  1.2973 -0.0949
13235TIP3   OH261195   1.226   4.070   6.024  0.3258  1.0651  0.6806
13235TIP3    H161196   1.279   3.998   6.058 -0.6221 -0.4232 -0.8539
13235TIP3    H261197   1.152   4.075   6.085 -0.0738  0.1114  0.2880
13236TIP3   OH261198   5.831   2.231  12.006 -0.1011 -0.3094  0.2552
13236TIP3    H161199   5.776   2.203  12.079  1.4808  0.1267  1.6791
13236TIP3    H261200   5.876   2.151  11.978 -0.1878 -0.3438  0.2130
13237TIP3   OH261201   2.408   2.014  14.427  0.3326  0.2787  0.1157
13237TIP3    H161202   2.386   2.091  14.374 -0.0487  0.0498 -0.0637
13237TIP3    H261203   2.475   2.045  14.487  1.4596  0.3188 -1.1189
13238TIP3   OH261204   6.610   6.812   5.598 -0.0076  0.3091  0.2015
13238TIP3    H161205   6.605   6.719   5.620  0.9249  0.3306  0.5351
13238TIP3    H261206   6.520   6.844   5.609 -0.1392 -0.3286  1.0479
13239TIP3   OH261207   1.634   2.516   4.898 -0.9341 -0.3269 -0.3138
13239TIP3    H161208   1.625   2.531   4.803 -1.4275  0.0899 -0.2033
13239TIP3    H261209   1.637   2.420   4.906 -1.7124 -0.3896 -0.6827
13240TIP3   OH261210   1.694   0.403   3.457  0.1433  0.1818 -0.3186
13240TIP3    H161211   1.618   0.345   3.463  0.7708 -1.4630 -4.6666
13240TIP3    H261212   1.765   0.354   3.498 -0.4499  0.4543  1.1045
13241TIP3   OH261213   2.135   5.311   2.017 -0.4182  0.7244  0.2582
13241TIP3    H161214   2.085   5.381   1.974  0.1942  0.8325 -0.3079
13241TIP3    H261215   2.177   5.264   1.945 -0.0973  0.3375  0.6923
13242TIP3   OH261216   1.897   4.421  14.855 -0.1547  0.3557  0.2724
13242TIP3    H161217   1.847   4.486  14.805 -0.3438  0.8555  1.0992
13242TIP3    H261218   1.982   4.418  14.811 -0.5975  0.1525 -0.6047
13243TIP3   OH261219   5.563   5.450   5.133 -0.6820  0.0774 -0.2917
13243TIP3    H161220   5.584   5.455   5.039  1.1236  0.5402  0.0894
13243TIP3    H261221   5.494   5.516   5.145  1.0595  2.1137 -0.8415
13244TIP3   OH261222   0.526   5.267   2.763  0.0058 -0.1466 -0.5585
13244TIP3    H161223   0.433   5.289   2.755 -0.1833 -0.4580  0.5363
13244TIP3    H261224   0.555   5.253   2.673 -0.7660  0.8950 -0.9962
13245TIP3   OH261225   5.855   4.385   0.334 -0.0766 -0.5332  0.1831
13245TIP3    H161226   5.834   4.293   0.315 -1.2044 -0.7129  1.9394
13245TIP3    H261227   5.929   4.406   0.278  0.1220 -2.4909 -0.3542
13246TIP3   OH261228   6.000   4.955  14.945  0.1849  0.0959  0.2747
13246TIP3    H161229   5.923   4.990  14.900 -0.2218 -2.0854 -0.8469
13246TIP3    H261230   6.074   5.002  14.908 -0.3543 -0.0483 -1.0353
13247TIP3   OH261231   6.540   0.125  14.473 -0.0449  0.1871 -0.3046
13247TIP3    H161232   6.626   0.109  14.512 -0.2140 -1.7093 -0.6529
13247TIP3    H261233   6.508   0.039  14.449 -0.9243  1.0737 -2.6123
13248TIP3   OH261234   6.212   4.782  15.881  0.2002 -0.3110  0.1656
13248TIP3    H161235   6.128   4.740  15.864 -0.6117  1.5456 -0.6618
13248TIP3    H261236   6.191   4.853  15.943  0.8249  1.1139 -1.1729
13249TIP3   OH261237   5.389   4.275  13.420 -0.0898 -0.2387  0.0096
13249TIP3    H161238   5.402   4.259  13.514 -0.7501 -2.0258 -0.1558
13249TIP3    H261239   5.457   4.222  13.377 -0.8146 -0.7586 -0.5381
13250TIP3   OH261240   0.789   3.917  14.195 -0.9417  0.0214 -0.1068
13250TIP3    H161241   0.698   3.929  14.165 -1.6403 -0.6895  1.5930
13250TIP3    H261242   0.806   3.824  14.184 -1.3216 -0.3242  1.8397
13251TIP3   OH261243   3.599   0.759  15.866  0.0619 -0.5562  0.2890
13251TIP3    H161244   3.585   0.749  15.960 -0.4543 -1.9782  0.0875
13251TIP3    H261245   3.620   0.670  15.835  0.3503 -0.0951 -0.9174
13252TIP3   OH261246   2.267   3.925   1.651  0.4434  0.1437  0.6770
13252TIP3    H161247   2.302   3.966   1.572 -2.7598 -1.7188 -1.9235
13252TIP3    H261248   2.247   3.835   1.625 -0.8630 -0.5259  3.6036
13253TIP3   OH261249   6.210   0.459  11.198  0.4802 -0.0692 -0.2811
13253TIP3    H161250   6.186   0.431  11.286  2.4652  0.5953  0.5393
13253TIP3    H261251   6.164   0.542  11.185  0.7346  0.1961  0.4510
13254TIP3   OH261252   5.653   4.232   2.372 -0.1646 -0.1211  0.0044
13254TIP3    H161253   5.639   4.233   2.277  0.1275 -0.5943 -0.0500
13254TIP3    H261254   5.722   4.295   2.388 -0.9301  0.7304  0.0316
13255TIP3   OH261255   1.244   1.544  11.362 -0.1937  0.4123  0.5983
13255TIP3    H161256   1.236   1.497  11.279  3.2324 -0.1152  0.4388
13255TIP3    H261257   1.242   1.475  11.429  1.0123  0.4080  0.6411
13256TIP3   OH261258   3.550   5.300   5.021 -0.0974  0.1371  0.7785
13256TIP3    H161259   3.632   5.316   4.975  0.9732  0.5933  2.6966
13256TIP3    H261260   3.565   5.219   5.069 -0.6585  0.3658  1.3528
13257TIP3   OH261261   2.434   4.253   1.830  0.5349  0.2920  0.4580
13257TIP3    H161262   2.515   4.304   1.836 -0.6195  2.0571  1.8654
13257TIP3    H261263   2.366   4.311   1.864 -1.3597 -1.1320 -0.7112
13258TIP3   OH261264   4.821   0.528  12.410 -0.0659 -0.2451 -0.1573
13258TIP3    H161265   4.874   0.482  12.345 -1.9964 -1.1096 -1.1786
13258TIP3    H261266   4.882   0.547  12.481  2.4667  1.7180 -2.5788
13259TIP3   OH261267   1.972   4.633   4.677 -0.0715 -0.5618  0.1276
13259TIP3    H161268   1.917   4.700   4.718  0.1711 -1.2151  1.5616
13259TIP3    H261269   1.961   4.649   4.583 -1.9909 -0.0949  0.3718
13260TIP3   OH261270   0.361   0.016   1.014 -0.0499 -0.0655 -0.2904
13260TIP3    H161271   0.407  -0.026   0.941  1.5882  0.9473  0.1056
13260TIP3    H261272   0.384  -0.037   1.090  0.6803  0.5779 -0.0531
13261TIP3   OH261273   0.703   3.072   1.295 -0.4818 -0.3950  0.6381
13261TIP3    H161274   0.711   3.055   1.202  0.7967 -0.7957  0.7984
13261TIP3    H261275   0.677   2.988   1.333 -0.7676 -0.2914  0.6759
13262TIP3   OH261276   4.553   1.530   3.394 -0.4581 -0.2979  0.2852
13262TIP3    H161277   4.525   1.582   3.469 -1.8693 -0.6778  0.0522
13262TIP3    H261278   4.620   1.583   3.351  0.7818 -0.3081  2.0963
13263TIP3   OH261279   3.845   2.651  16.665 -0.1704  0.2589  0.2837
13263TIP3    H161280   3.877   2.571  16.624  2.2987  0.4726  1.5644
13263TIP3    H261281   3.919   2.681  16.719 -0.5125  4.0283 -1.0468
13264TIP3   OH261282   0.615   5.542   2.345  0.7815 -0.0155 -0.3294
13264TIP3    H161283   0.603   5.462   2.293 -1.4907 -0.6181  1.0139
13264TIP3    H261284   0.552   5.604   2.310  0.8399  0.3608  0.2130
13265TIP3   OH261285   5.066   5.617  11.003 -0.0009  0.6055  0.0603
13265TIP3    H161286   5.041   5.659  11.086  0.7950  1.2968 -0.0332
13265TIP3    H261287   5.059   5.687  10.938  0.6996  0.4170 -0.2202
13266TIP3   OH261288   3.803   3.908   0.632 -0.0163  0.5225 -0.2773
13266TIP3    H161289   3.723   3.925   0.682  0.7586  0.9073  0.8933
13266TIP3    H261290   3.813   3.813   0.634  0.6888  0.5914  1.4918
13267TIP3   OH261291   4.595   5.017   1.109  0.3492  0.5582  0.3043
13267TIP3    H161292   4.566   5.046   1.196  0.3012 -0.9437  0.8248
13267TIP3    H261293   4.688   5.037   1.106  0.9957 -1.7593  1.8253
13268TIP3   OH261294   2.818   6.529   4.982  0.0907  0.5103  0.2658
13268TIP3    H161295   2.910   6.511   4.962 -0.0002  1.6125 -1.3351
13268TIP3    H261296   2.770   6.494   4.907 -0.8394 -0.1587  1.1380
13269TIP3   OH261297   0.852   3.627  16.149  0.5877  0.2539  0.1974
13269TIP3    H161298   0.877   3.620  16.057  0.6945  0.9956  0.1636
13269TIP3    H261299   0.911   3.566  16.195 -0.8385 -1.7156 -0.4394
13270TIP3   OH261300   4.824   2.046  11.387  0.1510  0.7133  0.0884
13270TIP3    H161301   4.753   1.984  11.404  1.1937 -0.5404  0.0079
13270TIP3    H261302   4.876   2.005  11.317 -0.3493  2.7047 -1.5436
13271TIP3   OH261303   2.993   4.025  14.760  0.3157 -0.1023  0.4248
13271TIP3    H161304   3.051   4.004  14.687  0.6920 -1.1544  1.0145
13271TIP3    H261305   3.051   4.027  14.837  0.2061  2.4622  0.5323
13272TIP3   OH261306   6.674   0.368   3.369 -0.3342  0.5850 -0.2331
13272TIP3    H161307   6.696   0.455   3.403 -0.1498  0.4935 -0.1195
13272TIP3    H261308   6.645   0.319   3.447  1.7359 -0.1736  0.1122
13273TIP3   OH261309   3.481   4.051  16.651  0.1948 -0.0934 -0.0644
13273TIP3    H161310   3.538   4.112  16.604  0.9520 -0.7182  0.0326
13273TIP3    H261311   3.541   3.995  16.701 -0.5594  1.7714  3.2851
13274TIP3   OH261312   6.033   0.548   0.098 -0.1247 -0.1131 -0.1503
13274TIP3    H161313   5.943   0.531   0.071  0.5371 -1.2271 -1.7897
13274TIP3    H261314   6.049   0.639   0.073 -0.6119 -0.0857 -0.3675
13275TIP3   OH261315   6.336   1.499  13.074  0.5488 -0.2984 -0.5200
13275TIP3    H161316   6.284   1.422  13.052 -1.0461  0.4709  0.3353
13275TIP3    H261317   6.322   1.558  13.000 -0.6075  0.2625  0.1062
13276TIP3   OH261318   4.885   1.451   4.054 -0.1006 -0.2299 -0.0916
13276TIP3    H161319   4.906   1.379   3.994  0.0200  0.6797 -1.1761
13276TIP3    H261320   4.970   1.491   4.074 -0.3767  1.2425 -1.6366
13277TIP3   OH261321   0.390   3.857  14.674 -0.3910  0.1857 -0.4268
13277TIP3    H161322   0.362   3.766  14.666  0.4690 -0.1535  0.3055
13277TIP3    H261323   0.388   3.890  14.584  2.2542 -1.4656 -1.1816
13278TIP3   OH261324   4.028   0.424   5.256 -0.0488  0.1764 -0.0138
13278TIP3    H161325   4.023   0.419   5.160  0.1670  1.7548 -0.1335
13278TIP3    H261326   3.937   0.426   5.285 -0.1160 -0.5235 -0.1635
13279TIP3   OH261327   4.317   4.404   2.887  0.3110  0.8447 -0.2430
13279TIP3    H161328   4.285   4.434   2.973 -0.8809 -1.2762  0.1048
13279TIP3    H261329   4.238   4.377   2.840  1.0355  1.2198 -1.7399
13280TIP3   OH261330   5.153   3.025   4.808 -0.3655  0.2143 -0.0136
13280TIP3    H161331   5.204   3.041   4.888  0.5186 -1.2609 -0.2550
13280TIP3    H261332   5.137   2.931   4.807  1.4870 -0.1832 -2.6316
13281TIP3   OH261333   3.518   6.393  14.421 -0.4748  0.0355 -0.2300
13281TIP3    H161334   3.494   6.472  14.470 -2.0363 -1.4016  1.4591
13281TIP3    H261335   3.494   6.320  14.479 -1.4370 -1.7537 -2.7073
13282TIP3   OH261336   3.566   2.776  14.899  0.4258 -0.2338 -0.2259
13282TIP3    H161337   3.609   2.733  14.825  0.2788  0.7588 -0.9106
13282TIP3    H261338   3.480   2.735  14.905  0.6736 -0.7554 -0.1957
13283TIP3   OH261339   2.321   4.521   1.897 -0.3827  0.0225  0.3164
13283TIP3    H161340   2.315   4.470   1.978  0.8753 -1.0930 -0.2468
13283TIP3    H261341   2.392   4.583   1.912 -3.0279  3.0219  1.6569
13284TIP3   OH261342   2.724   3.024   1.369 -0.7203  0.1106 -0.0704
13284TIP3    H161343   2.672   2.944   1.378  0.0816 -0.3164  0.9975
13284TIP3    H261344   2.685   3.070   1.295 -2.6564 -0.1583  0.7198
13285TIP3   OH261345   3.895   2.772   4.409  0.1976  0.6985 -0.4765
13285TIP3    H161346   3.843   2.728   4.477 -0.8828 -1.2749 -2.4560
13285TIP3    H261347   3.856   2.858   4.401 -0.6713  0.3942  0.3098
13286TIP3   OH261348   3.849   5.224  14.162  0.3640 -0.9022 -0.5716
13286TIP3    H161349   3.809   5.178  14.089  0.0783  1.1006 -1.7580
13286TIP3    H261350   3.814   5.181  14.240 -1.5647 -1.2870 -1.5959
13287TIP3   OH261351   4.020   0.267  15.737 -0.2563 -0.0162 -0.5323
13287TIP3    H161352   4.094   0.297  15.684 -0.1203 -0.2443 -0.4739
13287TIP3    H261353   3.972   0.347  15.759 -0.6554  0.0251 -1.4987
13288TIP3   OH261354   1.311   1.992  16.664 -0.6198 -0.2128  0.3142
13288TIP3    H161355   1.237   2.009  16.722 -1.1068  0.7989 -0.5778
13288TIP3    H261356   1.384   2.040  16.703 -0.9798  0.5739  0.0368
13289TIP3   OH261357   1.978   0.144   5.501  0.4593 -0.5987  0.5816
13289TIP3    H161358   2.068   0.177   5.496  0.6988 -1.3869 -0.7525
13289TIP3    H261359   1.925   0.222   5.517  1.1140  0.3545 -1.5280
13290TIP3   OH261360   2.153   3.316   1.229 -0.5470 -0.1474 -0.3576
13290TIP3    H161361   2.107   3.242   1.268  0.5070  0.0295  1.3197
13290TIP3    H261362   2.169   3.289   1.138  0.6932 -2.4326  0.4476
13291TIP3   OH261363   5.232   4.770   3.006 -0.0234  0.5632 -0.5970
13291TIP3    H161364   5.283   4.744   2.929  0.6980  0.4628 -0.0921
13291TIP3    H261365   5.176   4.694   3.024  1.4829 -0.3726  0.3737
13292TIP3   OH261366   3.740   3.671  12.545 -0.2115  0.1937  0.9545
13292TIP3    H161367   3.772   3.665  12.454 -0.9083 -2.8944  0.8113
13292TIP3    H261368   3.813   3.711  12.593  0.3286  1.5118 -0.8484
13293TIP3   OH261369   5.562   5.465  11.581 -0.0895 -0.1610  0.4458
13293TIP3    H161370   5.613   5.402  11.530 -0.3631  0.4262 -0.5842
13293TIP3    H261371   5.471   5.448  11.557 -0.2008  0.3212  0.5129
13294TIP3   OH261372   2.596   0.769  12.553 -0.2713  0.3688  0.1067
13294TIP3    H161373   2.533   0.754  12.483 -0.1605  1.7196 -0.3264
13294TIP3    H261374   2.650   0.842  12.521  1.2283 -0.4474  0.6473
13295TIP3   OH261375   3.594   6.158   4.019 -0.2191  0.4241 -0.2840
13295TIP3    H161376   3.527   6.224   4.003 -1.4638 -1.1431 -1.9152
13295TIP3    H261377   3.586   6.139   4.113 -1.0584  1.3160 -0.1568
13296TIP3   OH261378   5.911   1.353   4.374  0.5784 -0.5566  0.0774
13296TIP3    H161379   5.882   1.420   4.311  1.5077 -2.1280 -2.1483
13296TIP3    H261380   5.992   1.388   4.410  0.2700  0.1723  0.0797
13297TIP3   OH261381   6.492   4.737   6.717 -0.3957  0.0960 -0.2493
13297TIP3    H161382   6.464   4.652   6.685 -0.4195  0.1448 -0.3594
13297TIP3    H261383   6.578   4.721   6.757 -0.1278  0.1266 -0.7987
13298TIP3   OH261384   5.895   4.625  16.712  0.4283 -0.2027 -0.7701
13298TIP3    H161385   5.949   4.692  16.672  0.4510  0.6209  0.5993
13298TIP3    H261386   5.827   4.673  16.759  0.6082 -1.1073  0.4741
13299TIP3   OH261387   6.474   1.229   2.372  0.2884  0.3177  0.3443
13299TIP3    H161388   6.421   1.248   2.295  3.5268  1.5920 -1.7826
13299TIP3    H261389   6.467   1.307   2.426  1.1969  1.1998 -0.7480
13300TIP3   OH261390   4.329   0.583   3.600  0.4763 -0.2015 -0.6589
13300TIP3    H161391   4.264   0.636   3.553 -0.7338 -1.6136 -0.6520
13300TIP3    H261392   4.294   0.578   3.690  0.1414 -1.6212 -0.8413
13301TIP3   OH261393   2.783   2.804  11.876  0.7201 -0.5246 -0.1752
13301TIP3    H161394   2.735   2.863  11.933  0.7738 -1.4076  0.8085
13301TIP3    H261395   2.875   2.815  11.902  0.9312  0.1803 -1.1446
13302TIP3   OH261396   6.431   1.286  16.856 -0.1607 -0.0095 -0.3285
13302TIP3    H161397   6.341   1.272  16.827 -1.3724  0.4620  2.7314
13302TIP3    H261398   6.444   1.220  16.924  2.2776 -0.7887 -1.4546
13303TIP3   OH261399   0.706   1.786   3.075 -0.0919 -0.0719 -0.1585
13303TIP3    H161400   0.693   1.837   3.155 -2.0270 -0.4322 -0.1995
13303TIP3    H261401   0.787   1.821   3.037 -0.3402  1.6439  0.8003
13304TIP3   OH261402   5.727   4.751   2.940 -0.5371 -0.0905  0.3127
13304TIP3    H161403   5.763   4.835   2.968 -2.4008  1.2304 -1.0299
13304TIP3    H261404   5.650   4.738   2.995  0.1340 -1.3070  1.0000
13305TIP3   OH261405   3.556   5.487   3.851  0.5446  0.0966 -0.1876
13305TIP3    H161406   3.549   5.522   3.762 -0.3881 -0.3979 -0.3205
13305TIP3    H261407   3.648   5.499   3.874  1.0792 -0.8026 -1.6634
13306TIP3   OH261408   3.744   4.942  13.558  0.7303  0.5910  0.1750
13306TIP3    H161409   3.740   4.995  13.479 -1.3017 -0.0516 -0.2211
13306TIP3    H261410   3.772   5.003  13.627  2.1740  1.2356 -0.9314
13307TIP3   OH261411   5.010   4.185   6.224 -0.1628  0.3174  0.1240
13307TIP3    H161412   5.042   4.113   6.169 -1.3388 -0.8049  0.8626
13307TIP3    H261413   5.064   4.181   6.303  2.4708  2.7831 -1.3474
13308TIP3   OH261414   4.383   5.173   4.628 -0.1644 -0.7648  0.6589
13308TIP3    H161415   4.412   5.108   4.693  0.0957 -0.0809  1.2402
13308TIP3    H261416   4.373   5.254   4.678  2.2663  0.3811 -0.5050
13309TIP3   OH261417   0.264   0.943  16.852 -0.3394  0.4030  0.3706
13309TIP3    H161418   0.235   0.934  16.761 -0.2648 -1.0939  0.4585
13309TIP3    H261419   0.289   0.854  16.877 -0.5209  0.7690  1.9217
13310TIP3   OH261420   1.759   6.710   0.611 -0.0542 -0.2242 -0.1499
13310TIP3    H161421   1.779   6.708   0.517  1.4194 -1.0257  0.1540
13310TIP3    H261422   1.792   6.627   0.645  1.3443  0.9227  1.4447
13311TIP3   OH261423   0.184   1.762  13.076  0.2477  0.6717  0.1464
13311TIP3    H161424   0.215   1.853  13.074  1.1753  0.3702  0.5019
13311TIP3    H261425   0.092   1.769  13.102 -0.1092  1.6045 -1.2064
13312TIP3   OH261426   3.837   2.047   5.022 -0.4095  0.3375  0.0186
13312TIP3    H161427   3.787   2.054   5.104 -0.0147 -0.3812  0.3337
13312TIP3    H261428   3.921   2.009   5.049  0.5182  2.0080 -0.4302
13313TIP3   OH261429   0.740   6.300  14.044 -0.0853 -0.2161  0.6747
13313TIP3    H161430   0.775   6.380  14.005 -0.2321 -0.4658  0.0110
13313TIP3    H261431   0.816   6.246  14.062 -0.0922 -0.6451 -0.5100
13314TIP3   OH261432   0.471   2.538  10.459 -0.1793  0.3828 -0.1147
13314TIP3    H161433   0.521   2.605  10.411 -0.4170 -2.1664 -4.4998
13314TIP3    H261434   0.384   2.539  10.418 -1.9658  0.7693  3.3389
13315TIP3   OH261435   6.607   1.985  16.266 -0.4152  0.4363 -0.0490
13315TIP3    H161436   6.535   1.971  16.327 -2.9624 -0.8642 -3.0484
13315TIP3    H261437   6.602   1.911  16.205  3.0514  0.6966 -0.8954
13316TIP3   OH261438   3.977   1.822  14.294 -0.0852 -0.3367 -0.0390
13316TIP3    H161439   4.023   1.769  14.360 -1.0928 -0.7763  0.3364
13316TIP3    H261440   3.885   1.810  14.315 -0.3961  0.0840 -1.1173
13317TIP3   OH261441   4.149   6.449  11.033 -0.2109 -0.1134  0.2973
13317TIP3    H161442   4.194   6.530  11.009  1.1075 -0.4051  1.6118
13317TIP3    H261443   4.192   6.381  10.982 -0.3904 -0.1676  0.2157
13318TIP3   OH261444   4.404   0.115  17.091 -0.1380  0.7110 -0.1153
13318TIP3    H161445   4.422   0.024  17.067 -0.1102  0.4142  0.9969
13318TIP3    H261446   4.401   0.161  17.007  2.6257  0.2015 -0.5822
13319TIP3   OH261447   6.670   4.995  16.808  0.3663  0.4269 -0.0204
13319TIP3    H161448   6.659   4.900  16.806 -2.4316  0.6169  1.1911
13319TIP3    H261449   6.588   5.029  16.771  1.0700  2.3776  0.1016
13320TIP3   OH261450   6.019   4.114   0.528 -0.6260  0.0444  0.4857
13320TIP3    H161451   5.947   4.075   0.577  0.2967 -0.7106  1.2796
13320TIP3    H261452   5.998   4.098   0.436 -1.4665 -0.1572  0.7105
13321TIP3   OH261453   1.414   3.754   2.417  0.2739 -0.2133  0.2464
13321TIP3    H161454   1.377   3.752   2.329  0.8419  1.2076 -0.0538
13321TIP3    H261455   1.426   3.662   2.441  0.1559 -0.6119 -1.1740
13322TIP3   OH261456   1.412   0.321   3.550  1.0193 -0.5993  0.4925
13322TIP3    H161457   1.398   0.292   3.640  1.7523  0.2613  0.8970
13322TIP3    H261458   1.352   0.268   3.498 -2.0995  1.3090  1.8566
13323TIP3   OH261459   5.833   5.964  10.884  0.1756  0.3902 -0.2244
13323TIP3    H161460   5.811   6.022  10.957 -1.1371  1.2518 -1.2715
13323TIP3    H261461   5.874   6.022  10.820 -0.8102  0.1047 -1.1243
13324TIP3   OH261462   1.837   5.846  14.555  0.2182 -0.1252 -0.0993
13324TIP3    H161463   1.925   5.856  14.590 -0.1428  0.6012  0.6256
13324TIP3    H261464   1.797   5.932  14.565  0.0093  0.0400 -2.0927
13325TIP3   OH261465   0.961   3.122  13.272  0.1936 -0.1953  0.3586
13325TIP3    H161466   0.926   3.049  13.323  0.2979  2.3143  4.4577
13325TIP3    H261467   0.885   3.159  13.226 -0.6493 -0.5016  1.4827
13326TIP3   OH261468   4.253   2.727   2.438 -0.1093  0.0608 -0.5764
13326TIP3    H161469   4.263   2.703   2.346  0.0967 -1.9624 -0.0706
13326TIP3    H261470   4.168   2.771   2.442 -0.2319 -0.0465 -1.6834
13327TIP3   OH261471   0.807   5.367   3.479  0.3192  0.5249  0.7091
13327TIP3    H161472   0.756   5.443   3.452 -2.5526 -0.9211  1.6821
13327TIP3    H261473   0.787   5.300   3.413  1.2014 -0.0014  0.9617
13328TIP3   OH261474   6.593   4.801  14.976  0.1075 -0.0294  0.2638
13328TIP3    H161475   6.650   4.873  15.001  1.1089 -1.0011  0.8576
13328TIP3    H261476   6.518   4.807  15.035 -0.2969  1.0680 -0.3217
13329TIP3   OH261477   2.531   5.854   1.851  0.0184  0.0162 -0.0946
13329TIP3    H161478   2.468   5.879   1.918 -0.8692 -0.6468 -0.6669
13329TIP3    H261479   2.599   5.806   1.899 -0.7455 -0.6963  0.2963
13330TIP3   OH261480   6.390   3.325  11.040  0.5147  0.3359 -0.6058
13330TIP3    H161481   6.306   3.361  11.012  1.0601  0.4706 -2.1928
13330TIP3    H261482   6.384   3.231  11.021 -0.2298 -0.1815  1.8175
13331TIP3   OH261483   3.444   1.192   0.849 -0.5422  0.8246 -0.7692
13331TIP3    H161484   3.423   1.261   0.786  0.7229  0.7142 -1.3353
13331TIP3    H261485   3.539   1.180   0.841 -0.4796  0.2235  0.5605
13332TIP3   OH261486   5.905   0.775   3.952  0.3384  0.4755  0.2191
13332TIP3    H161487   5.874   0.825   3.877 -0.2541 -0.4179 -0.1589
13332TIP3    H261488   5.996   0.753   3.932  0.9221  2.1661  0.8226
13333TIP3   OH261489   1.354   5.967   2.002 -0.1797  0.5400  0.0809
13333TIP3    H161490   1.387   6.033   2.063 -1.4366  0.3272  1.0260
13333TIP3    H261491   1.309   6.018   1.934  0.0445  0.7159  0.0640
13334TIP3   OH261492   2.213   2.401   6.746 -0.2772  0.8364  0.2504
13334TIP3    H161493   2.150   2.393   6.817  0.6303  0.6653  1.0508
13334TIP3    H261494   2.218   2.313   6.708  2.0273 -0.0517  2.4210
13335TIP3   OH261495   2.787   2.209  17.237 -0.7997  0.1910 -0.1682
13335TIP3    H161496   2.876   2.246  17.237 -0.4055 -0.6572  1.4126
13335TIP3    H261497   2.748   2.244  17.317 -0.7120 -2.0490  0.9151
13336TIP3   OH261498   3.586   4.259  13.867 -0.1530 -0.0891 -0.0594
13336TIP3    H161499   3.549   4.204  13.798  1.6898  0.3137 -1.4610
13336TIP3    H261500   3.667   4.293  13.829 -0.7565  2.8963  1.0795
13337TIP3   OH261501   3.131   0.555  11.051 -0.2206 -0.3309 -0.5991
13337TIP3    H161502   3.036   0.565  11.057 -0.0323  0.6033  2.0426
13337TIP3    H261503   3.163   0.567  11.141  2.2308 -2.9726 -0.9792
13338TIP3   OH261504   0.065   4.859   1.903  0.1099  0.1373 -0.3399
13338TIP3    H161505   0.011   4.813   1.967  1.5159  1.6029  2.0236
13338TIP3    H261506   0.042   4.951   1.914 -0.8087  0.3472 -3.1972
13339TIP3   OH261507   4.332   3.741   5.169 -0.5030 -0.0886  0.3388
13339TIP3    H161508   4.320   3.716   5.078  1.2437  1.0346 -0.2592
13339TIP3    H261509   4.258   3.702   5.215 -0.4935 -2.1654 -1.2602
13340TIP3   OH261510   4.675   1.943   2.861 -0.4611  0.1232  0.9648
13340TIP3    H161511   4.604   2.005   2.850 -0.9516 -0.0229  2.9299
13340TIP3    H261512   4.693   1.911   2.773 -1.4377  1.6648  0.1629
13341TIP3   OH261513   4.846   5.384  12.881  0.5316  0.0652 -0.0624
13341TIP3    H161514   4.906   5.444  12.837  0.6086  0.0717  0.0519
13341TIP3    H261515   4.759   5.421  12.866  0.6059  0.4041  0.3176
13342TIP3   OH261516   1.042   4.306  13.061  0.6584  0.0274  0.0831
13342TIP3    H161517   0.949   4.319  13.078 -0.3426 -3.7641 -1.3462
13342TIP3    H261518   1.084   4.317  13.147 -1.0359  1.9846  0.7192
13343TIP3   OH261519   3.310   3.672   2.814 -0.2945  0.1482  0.4372
13343TIP3    H161520   3.387   3.616   2.804 -0.6049 -0.4176  1.1185
13343TIP3    H261521   3.344   3.753   2.853  0.5713  1.5279 -2.8634
13344TIP3   OH261522   2.936   0.164  17.179  0.1036  0.3906 -0.0736
13344TIP3    H161523   2.905   0.075  17.191 -1.6528  0.9236 -0.4156
13344TIP3    H261524   3.021   0.155  17.135  0.2060 -1.1005  0.3933
13345TIP3   OH261525   3.306   0.999  16.943  0.0462 -0.4640 -0.1990
13345TIP3    H161526   3.236   1.043  16.993 -0.3588 -0.7644 -0.4952
13345TIP3    H261527   3.261   0.959  16.869  0.6012 -0.2743 -0.6489
13346TIP3   OH261528   6.558   3.809  13.809 -0.2219  0.1323  0.2543
13346TIP3    H161529   6.468   3.777  13.799  0.8738 -3.2102 -0.2543
13346TIP3    H261530   6.592   3.813  13.720  0.5185  0.0340  0.5266
13347TIP3   OH261531   3.183   2.107   3.328 -0.4912 -0.7440 -0.7292
13347TIP3    H161532   3.252   2.121   3.393 -0.2600  0.2134 -1.1604
13347TIP3    H261533   3.102   2.133   3.373 -0.1170  1.7863 -1.3818
13348TIP3   OH261534   6.204   6.457   6.009 -0.7702  0.2177  0.7613
13348TIP3    H161535   6.216   6.527   6.073  1.1121 -1.5368  2.4887
13348TIP3    H261536   6.144   6.396   6.052 -0.6883 -0.2744  0.1897
13349TIP3   OH261537   1.006   2.329  10.581 -0.0446 -0.0766 -0.3830
13349TIP3    H161538   0.931   2.270  10.586 -0.1637  0.0332 -0.8374
13349TIP3    H261539   0.986   2.398  10.645  0.1396 -0.5679  0.2175
13350TIP3   OH261540   1.436   0.077  15.153 -0.4386 -0.4407  0.1744
13350TIP3    H161541   1.367   0.140  15.134  0.5703  0.3774 -0.9519
13350TIP3    H261542   1.508   0.130  15.186 -0.1768 -1.2181  0.8758
13351TIP3   OH261543   1.794   1.641  13.676 -0.5746  0.2202 -0.7710
13351TIP3    H161544   1.712   1.593  13.688 -1.0000  0.4922 -2.2651
13351TIP3    H261545   1.778   1.726  13.718 -0.3912 -0.3573  0.4982
13352TIP3   OH261546   6.512   2.673   5.093 -0.0954  0.4802  0.1890
13352TIP3    H161547   6.495   2.580   5.111  1.3537  0.2897  0.7005
13352TIP3    H261548   6.510   2.714   5.179  0.0070  0.7984  0.0375
13353TIP3   OH261549   2.035   5.412   4.252 -0.8167  0.4583  0.5333
13353TIP3    H161550   1.957   5.456   4.219  0.0951  1.4253 -0.3586
13353TIP3    H261551   2.103   5.479   4.252 -0.5367  0.3170  3.6231
13354TIP3   OH261552   4.625   6.473   0.880  0.1797 -0.4428  0.6278
13354TIP3    H161553   4.551   6.427   0.842 -0.8885  1.8252 -0.2351
13354TIP3    H261554   4.698   6.411   0.875 -1.2738 -2.1958  0.1224
13355TIP3   OH261555   3.863   3.716  13.644  0.1805 -0.2223  0.0582
13355TIP3    H161556   3.950   3.750  13.667  0.0429 -0.1592  0.5069
13355TIP3    H261557   3.808   3.741  13.718  0.1308 -1.6550  0.5322
13356TIP3   OH261558   0.690   2.929  16.611 -0.1364  0.1968  0.3238
13356TIP3    H161559   0.739   2.861  16.565 -0.2283  0.3796 -0.0481
13356TIP3    H261560   0.694   2.903  16.703  2.1171  1.0858  0.5638
13357TIP3   OH261561   4.524   2.881   0.831 -0.0291  0.2117 -0.4245
13357TIP3    H161562   4.492   2.799   0.794  0.2493  0.1138 -0.4550
13357TIP3    H261563   4.594   2.855   0.891 -1.4856  0.2397  1.3644
13358TIP3   OH261564   1.479   1.411   1.347  0.0949 -0.0129 -0.5925
13358TIP3    H161565   1.573   1.426   1.338  0.2119 -1.0953 -1.4061
13358TIP3    H261566   1.468   1.317   1.330 -0.7759 -0.5668  2.4346
13359TIP3   OH261567   2.681   0.848  16.842  1.0736  0.1910  0.0103
13359TIP3    H161568   2.618   0.910  16.806  2.0415 -0.0416 -2.2378
13359TIP3    H261569   2.644   0.762  16.822 -0.4844 -0.1046  3.4972
13360TIP3   OH261570   3.652   3.339  12.282  0.0832  0.7320 -0.2150
13360TIP3    H161571   3.565   3.328  12.319  0.5566 -0.0387  0.7199
13360TIP3    H261572   3.641   3.319  12.189 -0.9060  1.5852 -0.2950
13361TIP3   OH261573   5.672   4.709   4.772 -0.5820 -0.4658  0.0779
13361TIP3    H161574   5.681   4.616   4.751  0.7189 -0.0470 -1.4135
13361TIP3    H261575   5.762   4.743   4.768 -0.8534  0.6107  1.9439
13362TIP3   OH261576   0.942   1.856   5.243  0.4354  0.5411  0.5863
13362TIP3    H161577   0.920   1.948   5.254  0.0177  0.6000 -0.6341
13362TIP3    H261578   0.861   1.815   5.212  1.1772  0.1905 -0.9958
13363TIP3   OH261579   0.053   4.233  15.572  0.3163  0.9023  0.2601
13363TIP3    H161580  -0.022   4.176  15.593 -0.1928  0.6481 -1.9837
13363TIP3    H261581   0.060   4.292  15.647 -1.8999  0.6896  0.7065
13364TIP3   OH261582   2.162   2.016  10.500  0.3902  0.1655 -0.4114
13364TIP3    H161583   2.115   1.932  10.503  0.8264 -0.0569  1.1381
13364TIP3    H261584   2.140   2.059  10.582 -0.0701  1.7430 -1.3164
13365TIP3   OH261585   3.875   2.928  15.501 -0.0876 -0.6556 -0.0122
13365TIP3    H161586   3.788   2.946  15.464 -1.1227 -3.0913  1.0232
13365TIP3    H261587   3.910   2.857  15.446  1.5107  0.6026 -0.7089
13366TIP3   OH261588   3.286   1.224  11.779 -0.9749  0.4110  1.2394
13366TIP3    H161589   3.362   1.281  11.789 -0.8381  0.2900  0.9083
13366TIP3    H261590   3.299   1.154  11.843 -1.1431  0.7430  1.6479
13367TIP3   OH261591   5.586   1.175   1.766 -0.1682  0.9227  0.0210
13367TIP3    H161592   5.672   1.182   1.724  0.5822 -0.1462  1.3049
13367TIP3    H261593   5.603   1.197   1.858 -0.9188 -0.9584  0.6490
13368TIP3   OH261594   0.629   2.583  14.654  0.2179 -0.2396  0.2015
13368TIP3    H161595   0.566   2.554  14.720 -0.1125 -2.4993 -1.0024
13368TIP3    H261596   0.578   2.590  14.573  0.9976  0.5573 -0.2452
13369TIP3   OH261597   5.819   4.293  15.114 -0.0040  0.2049  0.0858
13369TIP3    H161598   5.779   4.348  15.181 -1.2643  0.8077 -1.1211
13369TIP3    H261599   5.869   4.354  15.059 -1.0885  0.1255 -1.0248
13370TIP3   OH261600   5.596   3.862  17.151 -0.0667  0.0951  0.2194
13370TIP3    H161601   5.633   3.849  17.238  1.7299 -1.6576 -0.7346
13370TIP3    H261602   5.573   3.774  17.121  0.1124  0.5640 -1.3900
13371TIP3   OH261603   5.395   6.682  11.235  0.3020  0.5942 -1.1868
13371TIP3    H161604   5.313   6.639  11.259 -0.0212  0.8595 -1.8066
13371TIP3    H261605   5.434   6.626  11.168  0.5629  0.5479 -1.0026
13372TIP3   OH261606   5.056   5.021  11.832  0.3583 -1.1261  0.2518
13372TIP3    H161607   5.122   5.085  11.858  1.4349 -2.0939  0.0099
13372TIP3    H261608   5.106   4.941  11.815 -1.0702 -2.4066  1.7827
13373TIP3   OH261609   3.534   5.680   3.615 -0.4792 -0.1926  0.2068
13373TIP3    H161610   3.625   5.699   3.638 -0.3508 -0.6247  0.0635
13373TIP3    H261611   3.486   5.760   3.639  0.1045  0.4727 -0.7581
13374TIP3   OH261612   4.214   2.935   3.720  0.0673 -0.0831  0.2053
13374TIP3    H161613   4.127   2.916   3.756 -0.0882  0.2413  0.0041
13374TIP3    H261614   4.234   3.023   3.752  0.4018 -0.2230  0.3955
13375TIP3   OH261615   0.702   1.393   5.290 -0.6786  0.2870  0.4342
13375TIP3    H161616   0.762   1.467   5.300 -0.8466  0.6357 -0.8834
13375TIP3    H261617   0.653   1.390   5.372  0.2883  0.7574  1.0506
13376TIP3   OH261618   3.808   5.949   5.276 -0.5365 -0.1914  0.0319
13376TIP3    H161619   3.721   5.929   5.242 -1.8030  1.2519  2.1892
13376TIP3    H261620   3.802   5.932   5.370  1.8549 -1.0708  0.0936
13377TIP3   OH261621   3.113   4.647   0.633 -0.4039  0.0904  0.3140
13377TIP3    H161622   3.098   4.683   0.546  0.4420 -0.7807 -0.2267
13377TIP3    H261623   3.089   4.554   0.625  0.5596 -0.2104  0.7331
13378TIP3   OH261624   0.916   4.212  16.741 -0.5974  0.0321 -0.6743
13378TIP3    H161625   0.858   4.251  16.806 -0.3739 -0.0073 -0.4488
13378TIP3    H261626   0.954   4.287  16.695 -1.1321  0.0504 -1.0959
13379TIP3   OH261627   3.685   2.768  10.750 -0.0124  0.3029 -0.4125
13379TIP3    H161628   3.593   2.756  10.726  0.1589  0.0592 -0.9841
13379TIP3    H261629   3.695   2.862  10.764 -1.0517  0.0399  2.7060
13380TIP3   OH261630   4.199   5.473   1.953 -0.2246  0.5223  0.5143
13380TIP3    H161631   4.274   5.513   1.996  1.2926  0.2852 -1.7907
13380TIP3    H261632   4.123   5.512   1.997  1.1894  3.6481  0.4173
13381TIP3   OH261633   5.150   2.103   2.188 -0.1600  0.3484 -0.3560
13381TIP3    H161634   5.088   2.052   2.238 -1.5960  1.7801 -0.6085
13381TIP3    H261635   5.220   2.041   2.166  0.1402 -0.5331  2.6418
13382TIP3   OH261636   4.443   3.814   4.772  0.1554  0.0928  0.7796
13382TIP3    H161637   4.366   3.793   4.825  0.1069  0.1667  0.7382
13382TIP3    H261638   4.478   3.729   4.746  0.3801  0.0496  1.2176
13383TIP3   OH261639   4.234   3.521  10.471  0.5175  0.1006  0.6746
13383TIP3    H161640   4.320   3.502  10.433 -0.1150 -1.4419 -0.0734
13383TIP3    H261641   4.179   3.448  10.443 -1.2663  1.4753  0.4156
13384TIP3   OH261642   4.943   4.047  14.494 -0.4226 -0.4666 -0.0031
13384TIP3    H161643   5.003   4.069  14.566  0.6834  0.4177 -1.1530
13384TIP3    H261644   4.936   3.951  14.499 -0.8254 -0.3932  1.6106
13385TIP3   OH261645   4.703   4.398  15.192 -0.4401  0.2676 -0.4355
13385TIP3    H161646   4.656   4.459  15.135  0.0004  2.5162  1.4707
13385TIP3    H261647   4.648   4.390  15.270  1.8972  2.6315  1.6734
13386TIP3   OH261648   0.583   0.902   4.130  0.2746  0.3128  0.0729
13386TIP3    H161649   0.613   0.825   4.177  1.4635  0.4862 -0.3935
13386TIP3    H261650   0.638   0.907   4.052  0.5740  1.9053  0.3489
13387TIP3   OH261651   0.874   2.139   0.150  0.2667  0.2404  0.3532
13387TIP3    H161652   0.854   2.064   0.093  1.3204 -0.8532  1.3529
13387TIP3    H261653   0.810   2.133   0.220  0.9948 -0.3699  0.9835
13388TIP3   OH261654   5.995   0.156  14.065  0.2516 -0.0755 -0.2332
13388TIP3    H161655   5.929   0.099  14.105 -0.1138  1.7755  2.0189
13388TIP3    H261656   6.033   0.103  13.996 -0.7745 -2.6683  1.0417
13389TIP3   OH261657   1.008   6.086  17.228 -0.2765 -0.1619  0.1153
13389TIP3    H161658   1.041   6.077  17.317 -1.9540  1.7134  1.0048
13389TIP3    H261659   1.086   6.096  17.174  0.9000 -3.2503  1.0108
13390TIP3   OH261660   1.354   4.360  16.078  0.6580  0.1725  0.3328
13390TIP3    H161661   1.408   4.334  16.153 -0.3714 -1.4614  0.5489
13390TIP3    H261662   1.264   4.352  16.109  0.2177 -0.4764 -1.0439
13391TIP3   OH261663   6.248   3.355   2.400 -0.5772 -0.0244 -0.6089
13391TIP3    H161664   6.255   3.260   2.388 -1.3255  0.0140 -1.5001
13391TIP3    H261665   6.154   3.372   2.400 -0.4499  0.8787 -2.0386
13392TIP3   OH261666   4.780   4.130   1.908 -0.2807 -0.3164 -0.2889
13392TIP3    H161667   4.815   4.083   1.831  0.9852  1.4187 -0.8371
13392TIP3    H261668   4.686   4.132   1.893 -0.1207 -0.5475 -1.5091
13393TIP3   OH261669   0.483   2.869  12.232 -0.2194 -0.2624 -0.2818
13393TIP3    H161670   0.483   2.846  12.139  0.8647  0.0692 -0.3743
13393TIP3    H261671   0.575   2.866  12.258 -0.0665  2.7787 -0.0345
13394TIP3   OH261672   0.487   6.443   2.884  0.1109 -0.2525 -0.0804
13394TIP3    H161673   0.458   6.448   2.793  2.7251  0.5842 -0.9552
13394TIP3    H261674   0.488   6.350   2.903  1.0084 -0.5520 -1.4496
13395TIP3   OH261675   6.809   3.902   1.041  0.1146 -0.1477  0.4597
13395TIP3    H161676   6.835   3.982   0.996 -1.4873  0.5236  0.6434
13395TIP3    H261677   6.843   3.911   1.130 -0.4605  0.5673  0.6134
13396TIP3   OH261678   1.729   1.442   6.595  0.0257 -0.4879  0.0125
13396TIP3    H161679   1.687   1.508   6.540 -0.3696 -0.7139  0.0414
13396TIP3    H261680   1.678   1.362   6.580  1.5685 -1.2785 -1.4137
13397TIP3   OH261681   4.791   2.030   0.142 -0.0386  0.5540  0.9917
13397TIP3    H161682   4.861   2.035   0.208  0.5507 -1.2261  0.5450
13397TIP3    H261683   4.725   1.973   0.181 -0.0303  0.0991  0.3547
13398TIP3   OH261684   1.874   2.850   4.773  0.0052  0.0697 -0.4501
13398TIP3    H161685   1.934   2.922   4.756 -1.1196  1.2223  0.3314
13398TIP3    H261686   1.838   2.827   4.687  1.4953 -0.6308 -0.9300
13399TIP3   OH261687   5.524   3.457  15.363 -0.3563 -0.3154  0.0978
13399TIP3    H161688   5.506   3.477  15.271  0.7940 -0.7651 -0.2425
13399TIP3    H261689   5.583   3.528  15.391 -0.1674 -0.5481  0.2908
13400TIP3   OH261690   5.824   6.332   2.450  0.5688 -0.1574 -0.2003
13400TIP3    H161691   5.917   6.311   2.459  0.2686 -1.0682  0.9496
13400TIP3    H261692   5.790   6.329   2.539  0.1490  3.7913 -0.0310
13401TIP3   OH261693   1.128   5.367   5.148  0.3635  0.8866  0.5549
13401TIP3    H161694   1.042   5.409   5.153  0.0364  0.1317  1.8300
13401TIP3    H261695   1.188   5.429   5.191  0.3328  1.1090  0.2775
13402TIP3   OH261696   4.067   3.645   0.717  0.1460 -0.1464 -0.3666
13402TIP3    H161697   4.057   3.724   0.769  0.6850  1.5160 -2.6128
13402TIP3    H261698   3.979   3.608   0.712 -0.9534  2.4025 -2.2376
13403TIP3   OH261699   1.950   0.970  11.302 -0.1129  0.2839  0.0063
13403TIP3    H161700   1.975   0.993  11.391  0.2833  1.0820 -0.3015
13403TIP3    H261701   1.945   1.054  11.256 -2.6588  0.1052 -0.1428
13404TIP3   OH261702   0.520   3.392   1.700  0.4143  0.6465 -0.4358
13404TIP3    H161703   0.530   3.395   1.796 -1.1224  0.4863 -0.2502
13404TIP3    H261704   0.586   3.329   1.672  0.4260  0.1656  0.6030
13405TIP3   OH261705   5.858   5.846   5.248 -0.3260  0.7705  0.1720
13405TIP3    H161706   5.819   5.798   5.322 -4.5438 -0.9282 -2.7605
13405TIP3    H261707   5.924   5.787   5.213  0.6628  0.9627  1.6018
13406TIP3   OH261708   3.085   2.289  15.189  0.1886  0.2572  0.3851
13406TIP3    H161709   3.076   2.283  15.094 -0.5301 -2.1652  0.5188
13406TIP3    H261710   2.997   2.314  15.220  0.3386  0.7229  0.4451
13407TIP3   OH261711   3.859   4.382  10.720 -0.1588  0.1234 -0.2626
13407TIP3    H161712   3.939   4.429  10.741 -0.9973  1.2911  0.4213
13407TIP3    H261713   3.798   4.450  10.690 -0.8835 -0.7487 -0.8451
13408TIP3   OH261714   0.876   4.805   2.959 -0.1769 -0.5638 -0.5244
13408TIP3    H161715   0.850   4.745   3.029 -0.7162  0.8098  0.5002
13408TIP3    H261716   0.815   4.879   2.967  2.2054  1.4575  0.1149
13409TIP3   OH261717   5.725   4.878   3.301 -0.0276 -0.2114  0.0234
13409TIP3    H161718   5.759   4.934   3.231 -2.3936 -0.7128 -1.6564
13409TIP3    H261719   5.646   4.923   3.330  0.8500 -0.0794  2.3656
13410TIP3   OH261720   5.801   6.230  14.002 -0.7363 -0.5534  0.1367
13410TIP3    H161721   5.845   6.261  13.923 -2.2964  0.9859 -0.2013
13410TIP3    H261722   5.745   6.158  13.973 -1.3972  0.0873 -0.2190
13411TIP3   OH261723   3.526   4.622  15.081 -0.2153 -0.8287  0.2967
13411TIP3    H161724   3.435   4.652  15.084 -0.3612 -1.3564  1.7716
13411TIP3    H261725   3.537   4.589  14.991 -1.0632  0.4191 -0.3021
13412TIP3   OH261726   0.568   3.298  10.907  0.1484 -0.5315  0.0484
13412TIP3    H161727   0.475   3.294  10.883  0.0539  1.8286 -0.2485
13412TIP3    H261728   0.614   3.253  10.836 -0.7034 -1.1496 -0.1276
13413TIP3   OH261729   6.290   1.399   1.785  0.6286 -0.7829 -0.0825
13413TIP3    H161730   6.259   1.482   1.750  0.7325  0.0233  1.6423
13413TIP3    H261731   6.306   1.345   1.707  0.8449  0.8936 -1.2628
13414TIP3   OH261732   0.926   6.387   2.442  0.2215 -0.1405 -0.7581
13414TIP3    H161733   0.915   6.476   2.474  2.9615 -0.2249  0.6598
13414TIP3    H261734   0.836   6.355   2.430 -0.8735  3.1744 -2.6789
13415TIP3   OH261735   6.360   1.090  17.055 -0.1093  0.0494  0.3594
13415TIP3    H161736   6.325   1.001  17.048 -0.7179  0.3678 -0.7711
13415TIP3    H261737   6.445   1.078  17.099 -0.7943 -0.9174  1.4891
13416TIP3   OH261738   2.741   2.364   4.852 -0.5463  0.3439 -0.3842
13416TIP3    H161739   2.776   2.275   4.859  1.6620  1.1031 -0.8361
13416TIP3    H261740   2.690   2.363   4.771 -1.0324 -0.6370 -0.0854
13417TIP3   OH261741   4.866   1.999  11.996 -0.5165 -0.1573 -0.7468
13417TIP3    H161742   4.907   2.015  12.081  1.1065 -0.0769 -1.4917
13417TIP3    H261743   4.817   1.918  12.007  0.6479 -0.7898 -0.0474
13418TIP3   OH261744   4.814   4.425   2.172 -0.2830 -0.8281 -0.0777
13418TIP3    H161745   4.889   4.451   2.226 -1.7348 -0.4834  1.9075
13418TIP3    H261746   4.794   4.502   2.120 -0.1783 -0.3899  0.5195
13419TIP3   OH261747   4.711   0.217   3.101  0.1576 -0.0195 -0.8506
13419TIP3    H161748   4.693   0.240   3.009 -1.6244 -1.1694 -0.8382
13419TIP3    H261749   4.670   0.131   3.112  0.4511  0.0534  1.0019
13420TIP3   OH261750   6.408   5.124  11.636  0.3793 -0.0617 -0.2421
13420TIP3    H161751   6.498   5.096  11.621 -0.0497 -0.9568 -1.3327
13420TIP3    H261752   6.376   5.065  11.704  1.0456  1.2457  1.2653
13421TIP3   OH261753   3.795   4.653   3.613  0.2047 -0.4477 -0.4200
13421TIP3    H161754   3.850   4.670   3.536 -0.2605 -3.5733 -1.5983
13421TIP3    H261755   3.721   4.713   3.603  0.6264 -0.1272 -1.9332
13422TIP3   OH261756   0.034   5.059  15.526  0.6398 -0.2292 -0.2667
13422TIP3    H161757   0.007   4.967  15.536  2.2627 -0.6532  0.5635
13422TIP3    H261758   0.085   5.078  15.604  0.8506  1.2080 -0.7259
13423TIP3   OH261759   1.372   4.033  15.809  0.0386 -0.0123  0.2703
13423TIP3    H161760   1.288   3.997  15.781  0.7005 -1.2921 -0.1339
13423TIP3    H261761   1.430   3.957  15.814  1.7954  1.1009 -1.7002
13424TIP3   OH261762   6.415   5.709   2.819 -0.1634  0.0290 -0.5865
13424TIP3    H161763   6.348   5.731   2.754 -1.3248 -2.1982 -0.2615
13424TIP3    H261764   6.419   5.613   2.817  1.9327  0.0472  0.5198
13425TIP3   OH261765   2.757   3.346   0.816 -0.2269  0.1137  0.2587
13425TIP3    H161766   2.689   3.292   0.856  0.8214 -1.3317  0.1641
13425TIP3    H261767   2.758   3.426   0.868 -2.4596  0.4820 -0.1772
13426TIP3   OH261768   0.571   1.647   4.943 -0.4060 -0.0562  0.0035
13426TIP3    H161769   0.512   1.668   4.871  0.3975  1.2620 -0.2975
13426TIP3    H261770   0.611   1.564   4.918  0.1917  0.5897 -1.3231
13427TIP3   OH261771   3.356   0.980   5.732 -0.2436  0.0138  0.0930
13427TIP3    H161772   3.402   0.896   5.724  1.7168  0.5403  3.6985
13427TIP3    H261773   3.269   0.956   5.764 -1.0386 -0.7115 -2.3183
13428TIP3   OH261774   6.390   6.269  14.732 -0.3319  0.6260  0.5923
13428TIP3    H161775   6.325   6.216  14.778  0.2798 -0.2525  0.4600
13428TIP3    H261776   6.372   6.255  14.639 -1.8044  2.6881  0.4961
13429TIP3   OH261777   1.993   0.272   4.405  0.3623 -0.4364  0.3194
13429TIP3    H161778   1.909   0.246   4.441  0.9047 -0.5954  1.5022
13429TIP3    H261779   2.035   0.190   4.379 -1.5288 -0.2123 -4.3668
13430TIP3   OH261780   3.294   2.507   5.055 -0.1371  0.4524  0.1746
13430TIP3    H161781   3.325   2.423   5.019 -0.3688  0.1127  0.7541
13430TIP3    H261782   3.265   2.556   4.978 -0.1464 -0.0629 -0.1600
13431TIP3   OH261783   6.718   2.192  15.687  0.1395  0.2343  0.5401
13431TIP3    H161784   6.636   2.239  15.669 -0.4893 -1.1422 -0.4132
13431TIP3    H261785   6.723   2.126  15.617  1.9636  0.1396  0.7143
13432TIP3   OH261786   3.234   5.691   3.717 -0.3556  0.1643 -0.2661
13432TIP3    H161787   3.261   5.613   3.669 -2.0380 -1.4376  1.1764
13432TIP3    H261788   3.259   5.673   3.808  2.9890  3.2010 -0.3870
13433TIP3   OH261789   6.725   1.726  12.366  0.5379  0.1698  0.3487
13433TIP3    H161790   6.687   1.802  12.410  0.7688  2.5324 -3.1398
13433TIP3    H261791   6.804   1.760  12.323  1.0351 -2.2099 -0.8171
13434TIP3   OH261792   3.313   1.363  10.982 -0.1415 -0.4436 -0.5552
13434TIP3    H161793   3.253   1.426  10.942  0.0461 -0.4284 -0.8094
13434TIP3    H261794   3.399   1.402  10.972  0.0688 -1.1217 -1.4457
13435TIP3   OH261795   5.441   6.620   4.458  0.1863 -0.1733 -0.1056
13435TIP3    H161796   5.403   6.707   4.473  0.9507  0.0076  0.8559
13435TIP3    H261797   5.445   6.612   4.363 -0.1300  0.7313 -0.2081
13436TIP3   OH261798   3.975   2.507   0.374  0.0883 -0.8004 -0.7524
13436TIP3    H161799   3.934   2.481   0.292  0.6010 -2.0384 -0.6490
13436TIP3    H261800   4.069   2.507   0.355  0.4460 -3.7517  0.4420
13437TIP3   OH261801   4.072   3.091  13.570 -0.5274 -0.2515 -0.4200
13437TIP3    H161802   4.134   3.155  13.535  0.8010 -1.7823 -1.0027
13437TIP3    H261803   4.098   3.080  13.661  1.0272 -1.8702 -0.9892
13438TIP3   OH261804   2.209   4.368   2.326  0.2855 -0.0277 -0.0349
13438TIP3    H161805   2.185   4.292   2.378 -0.3485  1.6927  2.3628
13438TIP3    H261806   2.126   4.414   2.311  0.6314  0.1436 -1.5616
13439TIP3   OH261807   5.135   2.964  12.882  0.6465 -0.2939  0.6575
13439TIP3    H161808   5.072   3.036  12.889  0.5344 -0.5230  2.5804
13439TIP3    H261809   5.188   2.987  12.806  0.1051  1.4201  0.7370
13440TIP3   OH261810   5.676   4.746   6.732  0.0600 -0.1379  0.5030
13440TIP3    H161811   5.726   4.706   6.660  0.2629  2.1212 -0.7150
13440TIP3    H261812   5.601   4.787   6.688 -0.2928  0.5405  1.7085
13441TIP3   OH261813   3.193   3.469   2.651 -0.4835  0.1270 -0.0506
13441TIP3    H161814   3.234   3.397   2.699 -1.2374  0.1884  0.7096
13441TIP3    H261815   3.156   3.525   2.720  1.7701  2.3185 -0.4571
13442TIP3   OH261816   1.992   5.848   3.474 -0.5980 -0.5059 -0.1757
13442TIP3    H161817   2.005   5.889   3.560 -1.4279  0.4643 -0.4968
13442TIP3    H261818   2.077   5.856   3.431 -0.0603 -1.3497  0.6804
13443TIP3   OH261819   4.992   1.750   2.856  0.1567  0.2967  0.0644
13443TIP3    H161820   5.005   1.834   2.811 -1.9032  0.5155 -0.1993
13443TIP3    H261821   4.901   1.728   2.839  0.5618 -1.8328  0.4657
13444TIP3   OH261822   1.808   4.641   3.321 -0.3387 -0.0290 -0.1878
13444TIP3    H161823   1.745   4.658   3.251  0.1395  0.9577 -0.3934
13444TIP3    H261824   1.819   4.546   3.320 -1.8300 -0.2197 -0.1278
13445TIP3   OH261825   2.353   1.613  14.147  0.5933  0.1140  0.5575
13445TIP3    H161826   2.385   1.547  14.208  1.3891 -0.1598 -0.1403
13445TIP3    H261827   2.408   1.603  14.070  1.8281  2.6233  0.9926
13446TIP3   OH261828   2.599   1.174  14.351 -0.1905 -0.1603  0.4569
13446TIP3    H161829   2.564   1.097  14.397  0.1807 -0.9181 -0.4974
13446TIP3    H261830   2.677   1.142  14.307 -2.0643 -0.2603 -3.1328
13447TIP3   OH261831   1.486   1.755  14.875 -0.3231  0.1848  0.1579
13447TIP3    H161832   1.520   1.703  14.802  0.6625  0.7145  0.2239
13447TIP3    H261833   1.393   1.765  14.855  0.0187  0.7247 -1.2910
13448TIP3   OH261834   5.462   0.381   0.279 -0.4991  0.3517 -0.2327
13448TIP3    H161835   5.461   0.394   0.185 -0.8500  3.3514  0.0813
13448TIP3    H261836   5.397   0.313   0.295  0.6490 -1.3266 -2.2127
13449TIP3   OH261837   5.898   2.834  14.404  0.1427 -0.8214 -0.8453
13449TIP3    H161838   5.898   2.908  14.464 -1.2286  0.9262 -2.8639
13449TIP3    H261839   5.837   2.771  14.444  2.6253 -1.7576  1.7648
13450TIP3   OH261840   5.356   0.340   3.297 -0.0839  1.1522 -0.0752
13450TIP3    H161841   5.388   0.384   3.376 -0.7027  0.8980  0.3276
13450TIP3    H261842   5.382   0.397   3.225  1.4054  0.8844  0.2149
13451TIP3   OH261843   1.447   4.010   3.141 -0.0023 -0.2694 -1.0139
13451TIP3    H161844   1.379   4.021   3.075 -0.5724  1.0888 -0.2474
13451TIP3    H261845   1.438   3.919   3.170 -0.3813 -0.5887 -2.1062
13452TIP3   OH261846   0.030   6.693   2.543  0.3021 -0.0010  0.0870
13452TIP3    H161847   0.118   6.664   2.517 -0.1761 -3.4439  1.7762
13452TIP3    H261848  -0.029   6.642   2.488 -0.6694  0.9255  0.2389
13453TIP3   OH261849   2.676   6.562  12.034 -0.1024  0.9130 -0.0560
13453TIP3    H161850   2.722   6.530  12.112 -0.5061 -1.8091 -0.8215
13453TIP3    H261851   2.586   6.533  12.045 -0.2646  0.8633 -1.3293
13454TIP3   OH261852   4.640   5.089  15.040  0.1136  0.1710 -0.6678
13454TIP3    H161853   4.695   5.135  15.104 -0.1424  1.0113 -1.0425
13454TIP3    H261854   4.637   4.999  15.073  2.8766 -0.2811 -1.3905
13455TIP3   OH261855   0.983   2.934   3.973 -0.0254  0.3548 -0.0881
13455TIP3    H161856   0.962   2.844   3.949  1.1104  0.4554 -1.6381
13455TIP3    H261857   1.055   2.926   4.036 -0.0028  0.1627 -0.1389
13456TIP3   OH261858   1.798   3.210  12.699 -0.1014 -0.3387 -0.5974
13456TIP3    H161859   1.739   3.138  12.723 -1.0553  1.1366  1.8909
13456TIP3    H261860   1.816   3.196  12.606 -2.3640 -2.2673 -0.8523
13457TIP3   OH261861   5.633   1.188  15.418 -0.1518  0.6435  0.5861
13457TIP3    H161862   5.691   1.197  15.342 -0.1901 -1.1019  0.3018
13457TIP3    H261863   5.554   1.147  15.383 -0.4011  0.3622  1.4551
13458TIP3   OH261864   3.688   1.330   1.080 -0.0026  0.6036 -0.5644
13458TIP3    H161865   3.681   1.421   1.050  2.4971  0.5922 -1.4598
13458TIP3    H261866   3.776   1.324   1.116 -0.3669 -1.3124  0.0870
13459TIP3   OH261867   6.086   3.355   4.052  0.4670 -0.2178 -0.1821
13459TIP3    H161868   6.009   3.355   3.995  1.1189  4.0938 -1.3990
13459TIP3    H261869   6.155   3.315   3.998  0.0453 -0.3271 -0.6481
13460TIP3   OH261870   0.357   0.994   2.480 -0.1411 -0.0284 -0.0054
13460TIP3    H161871   0.288   0.967   2.420 -1.1000  1.5826  0.3178
13460TIP3    H261872   0.359   1.089   2.473  0.6508  0.0999  1.5274
13461TIP3   OH261873   1.642   1.134  11.130  0.5874  0.9037  0.0102
13461TIP3    H161874   1.728   1.098  11.151  0.6725  1.9568  1.6265
13461TIP3    H261875   1.660   1.224  11.102 -0.1011  2.1009  3.0080
13462TIP3   OH261876   0.176   3.800  12.036  0.1675 -0.0211  0.1760
13462TIP3    H161877   0.137   3.801  12.123  0.4687  0.7876  0.3050
13462TIP3    H261878   0.201   3.890  12.019 -0.8699  0.0387 -1.2070
13463TIP3   OH261879   0.031   4.523  12.965  0.1202  0.1473 -0.2152
13463TIP3    H161880  -0.043   4.465  12.983  1.3613 -1.2693  0.5232
13463TIP3    H261881   0.088   4.472  12.907  1.3878  0.4891  0.6848
13464TIP3   OH261882   4.031   5.327   0.361 -0.4692 -0.3181  0.5665
13464TIP3    H161883   4.055   5.306   0.452  1.6627  1.7121  0.5706
13464TIP3    H261884   3.936   5.334   0.363 -0.7029 -2.6363  2.0671
13465TIP3   OH261885   2.083   1.999  14.003 -0.6986 -0.3659 -0.1090
13465TIP3    H161886   2.037   1.918  13.980 -1.6803 -0.3844  1.7133
13465TIP3    H261887   2.170   1.970  14.030 -1.0677 -0.8414  0.6056
13466TIP3   OH261888   2.088   6.240   3.194  0.4258 -0.0053  0.2275
13466TIP3    H161889   2.004   6.256   3.150  1.0541 -0.2341 -1.1030
13466TIP3    H261890   2.081   6.150   3.226  0.3717 -0.2213 -0.3808
13467TIP3   OH261891   4.733   5.266   5.424  0.4111  0.2204  0.5316
13467TIP3    H161892   4.651   5.315   5.418 -0.0109 -0.6311 -1.5107
13467TIP3    H261893   4.798   5.324   5.384  0.2882 -0.1086 -0.1550
13468TIP3   OH261894   4.127   0.543  15.299  0.0310 -0.3782 -0.0274
13468TIP3    H161895   4.132   0.573  15.208  0.9303  0.9652  0.4235
13468TIP3    H261896   4.044   0.496  15.305 -0.1501 -0.2835 -1.4776
13469TIP3   OH261897   0.151   6.809   0.110  0.4530 -0.0273 -0.5133
13469TIP3    H161898   0.155   6.884   0.168  0.7980 -0.5183  0.1197
13469TIP3    H261899   0.058   6.789   0.101  0.1007  2.1873 -2.9880
13470TIP3   OH261900   6.261   1.765   2.286 -0.2768  0.4422 -0.2814
13470TIP3    H161901   6.177   1.783   2.244 -1.2355 -2.2136  0.2951
13470TIP3    H261902   6.311   1.717   2.219 -0.2036 -0.1536  0.1920
13471TIP3   OH261903   1.170   2.980   1.301  0.1394  0.1839 -0.1595
13471TIP3    H161904   1.160   2.917   1.373 -1.4215  1.7308  1.0613
13471TIP3    H261905   1.255   2.959   1.263  0.8164 -1.0154  1.8400
13472TIP3   OH261906   1.156   1.540  14.004 -0.2700 -0.0510 -0.0935
13472TIP3    H161907   1.162   1.502  14.092 -2.2051  1.4447  0.7584
13472TIP3    H261908   1.134   1.467  13.948 -0.1658 -0.8371  0.8564
13473TIP3   OH261909   4.542   3.179  12.643  0.2320 -0.5296  0.0794
13473TIP3    H161910   4.509   3.089  12.650 -0.3004 -0.4779 -1.4075
13473TIP3    H261911   4.472   3.227  12.599  0.6725  0.5310  0.5057
13474TIP3   OH261912   2.803   4.867   1.262 -0.3662  0.3727  0.2822
13474TIP3    H161913   2.863   4.936   1.289 -0.1800 -0.0507  0.9569
13474TIP3    H261914   2.838   4.787   1.301 -0.3781 -0.1720 -0.7709
13475TIP3   OH261915   6.269   2.372  11.819 -0.0241  0.6665 -0.2235
13475TIP3    H161916   6.232   2.299  11.868 -0.5460  0.4965 -0.8549
13475TIP3    H261917   6.298   2.333  11.736  2.6411  0.5606  0.6510
13476TIP3   OH261918   6.509   1.479  16.204  0.0281 -0.0454 -0.2191
13476TIP3    H161919   6.604   1.490  16.196  0.0134  0.2992  0.0327
13476TIP3    H261920   6.495   1.384  16.202  0.3448 -0.0872 -0.5946
13477TIP3   OH261921   2.822   5.909  16.476 -0.0677  0.2681  0.2852
13477TIP3    H161922   2.903   5.870  16.510 -0.3184  0.2547  0.8832
13477TIP3    H261923   2.769   5.925  16.554 -0.6093  0.3581 -0.0992
13478TIP3   OH261924   2.313   3.795  15.592 -0.0972  0.3337  0.2820
13478TIP3    H161925   2.270   3.713  15.569  0.1294  0.4381 -0.5717
13478TIP3    H261926   2.299   3.852  15.515  2.8014 -0.1391 -0.7151
13479TIP3   OH261927   3.030   5.109  13.435  0.1064  0.1342  0.1060
13479TIP3    H161928   3.063   5.105  13.525 -0.5786  2.1541  0.5129
13479TIP3    H261929   3.045   5.200  13.409  0.3648 -0.4368 -1.8811
13480TIP3   OH261930   6.061   1.907   2.630 -0.1917 -0.0140  0.1440
13480TIP3    H161931   6.075   2.001   2.615  0.9689 -0.0795  0.7248
13480TIP3    H261932   6.139   1.865   2.593 -0.1403 -0.6455  0.9523
13481TIP3   OH261933   4.687   0.217  16.185 -0.6783  0.3334  0.4753
13481TIP3    H161934   4.654   0.207  16.095 -1.8204 -1.0256  1.0106
13481TIP3    H261935   4.624   0.275  16.227 -0.4525  0.5209  0.5552
13482TIP3   OH261936   5.865   4.821  11.391  0.3256 -0.4755  0.1263
13482TIP3    H161937   5.848   4.792  11.301 -1.2018 -0.4278  0.3785
13482TIP3    H261938   5.927   4.756  11.425  1.3209 -0.2086 -1.1041
13483TIP3   OH261939   2.222   5.161   1.146  0.0112  0.3844 -0.2166
13483TIP3    H161940   2.254   5.250   1.132  0.1180  0.4311  0.3250
13483TIP3    H261941   2.146   5.171   1.203 -0.2954  0.1708 -0.5807
13484TIP3   OH261942   0.640   5.921  12.145 -0.2556 -0.5297  1.1666
13484TIP3    H161943   0.595   5.840  12.166 -0.5914 -0.8917 -0.7477
13484TIP3    H261944   0.624   5.934  12.051 -2.3959  3.0899  1.8203
13485TIP3   OH261945   2.123   6.137  14.830  0.6046 -0.6607 -0.0899
13485TIP3    H161946   2.115   6.046  14.799 -2.9526 -0.3759 -0.4386
13485TIP3    H261947   2.108   6.190  14.752  3.2903  0.3209 -0.0139
13486TIP3   OH261948   5.165   6.724   2.114  0.2758 -0.6310  0.6399
13486TIP3    H161949   5.134   6.804   2.072  1.2915 -1.0055 -0.9130
13486TIP3    H261950   5.236   6.752   2.172  0.4539 -0.3790  0.2986
13487TIP3   OH261951   5.008   5.006  11.112  0.7513  0.4733 -0.4389
13487TIP3    H161952   5.012   4.953  11.031  1.0373  3.1221 -2.2744
13487TIP3    H261953   4.916   5.028  11.121  0.6127 -0.3826  0.4096
13488TIP3   OH261954   5.966   0.527  14.921 -0.1610  0.0690 -0.1785
13488TIP3    H161955   5.971   0.604  14.978 -1.2469 -0.0773  0.1332
13488TIP3    H261956   5.896   0.474  14.959  1.4822 -1.7677  0.4307
13489TIP3   OH261957   4.832   3.950  12.684  0.0463  0.1142 -0.4281
13489TIP3    H161958   4.823   3.980  12.774  2.4681 -3.7382  1.3569
13489TIP3    H261959   4.905   4.000  12.649  2.1560 -1.3898  1.4905
13490TIP3   OH261960   0.317   6.481   2.267 -0.3691 -0.2954  0.2286
13490TIP3    H161961   0.284   6.400   2.230  0.8616 -0.7068 -0.0052
13490TIP3    H261962   0.354   6.528   2.193  1.7199 -0.9293  0.7967
13491TIP3   OH261963   0.127   1.423  15.803  0.1214 -0.0597 -0.4082
13491TIP3    H161964   0.191   1.425  15.874 -1.0844  1.8724  0.7265
13491TIP3    H261965   0.111   1.516  15.782 -3.3284 -0.2945  0.4418
13492TIP3   OH261966   5.595   0.155  12.041  0.3118  0.1619  0.1982
13492TIP3    H161967   5.622   0.068  12.013  0.4793  0.3893 -0.3876
13492TIP3    H261968   5.678   0.203  12.055  0.2410 -0.0884  1.6052
13493TIP3   OH261969   0.172   4.561   2.629 -0.4625  0.1378 -0.0873
13493TIP3    H161970   0.233   4.606   2.570 -0.0588  0.9631  0.9183
13493TIP3    H261971   0.086   4.577   2.590 -0.0279 -1.7151 -1.9563
13494TIP3   OH261972   1.820   4.966  12.556 -0.5946 -0.8450  0.0963
13494TIP3    H161973   1.830   4.882  12.511  0.4579 -1.3417  1.2201
13494TIP3    H261974   1.836   4.947  12.648  1.0148  0.8290  0.2220
13495TIP3   OH261975   1.405   2.145   6.403 -0.9403  0.0118  0.5307
13495TIP3    H161976   1.440   2.121   6.317 -1.1990 -0.8863  0.6689
13495TIP3    H261977   1.482   2.173   6.452 -0.2711 -2.3289  0.9596
13496TIP3   OH261978   3.095   0.631   3.739 -0.0144 -0.2199 -0.0072
13496TIP3    H161979   3.008   0.644   3.776  0.2206  1.7275 -0.0469
13496TIP3    H261980   3.126   0.719   3.717  3.0585 -0.5042  2.4480
13497TIP3   OH261981   2.910   6.225  14.028  0.1076 -0.1136  0.2010
13497TIP3    H161982   2.898   6.160  14.097  0.7848 -0.5180 -0.0557
13497TIP3    H261983   2.987   6.275  14.054 -0.2460  0.4063  0.2564
13498TIP3   OH261984   4.761   5.464  10.266 -0.8699 -0.4440  0.0826
13498TIP3    H161985   4.769   5.540  10.323 -0.3847 -1.3211  1.2101
13498TIP3    H261986   4.821   5.481  10.194  0.7542 -0.6382  1.3479
13499TIP3   OH261987   1.087   4.262   2.525 -0.0919  0.2430 -0.2016
13499TIP3    H161988   1.179   4.286   2.510  0.1595  0.3845  1.3638
13499TIP3    H261989   1.082   4.246   2.619 -2.0665  1.9988  0.0660
13500TIP3   OH261990   4.779   1.656  14.968 -0.2390 -0.5504 -0.0291
13500TIP3    H161991   4.851   1.593  14.959  1.2811  1.1607 -0.4211
13500TIP3    H261992   4.733   1.628  15.047  0.4513 -2.0853 -0.1356
13501TIP3   OH261993   3.049   0.927  12.912  0.2896 -0.2963 -0.5355
13501TIP3    H161994   2.968   0.906  12.959 -0.0444  1.5428 -0.2461
13501TIP3    H261995   3.035   1.015  12.878  2.7952  0.7244  0.8852
13502TIP3   OH261996   1.123   3.050  14.656 -0.2150 -0.5982  0.2573
13502TIP3    H161997   1.047   3.009  14.614 -0.8281 -0.1761  0.9131
13502TIP3    H261998   1.184   2.978  14.673 -0.5010 -0.9543 -0.2265
13503TIP3   OH261999   5.636   0.665   5.946  0.0160 -0.1453  0.5501
13503TIP3    H162000   5.644   0.651   6.040 -1.4997  0.7039  0.8476
13503TIP3    H262001   5.600   0.753   5.938  2.6410  0.9105 -0.9623
13504TIP3   OH262002   0.346   5.046   6.867  0.3729  0.3455 -0.3482
13504TIP3    H162003   0.325   5.139   6.864 -0.1109  0.3199  1.2504
13504TIP3    H262004   0.292   5.007   6.797  0.0951  1.1687 -0.6042
13505TIP3   OH262005   5.335   6.206   1.511  0.2275 -0.5158  0.1335
13505TIP3    H162006   5.328   6.133   1.573  0.1131 -0.7634 -0.1661
13505TIP3    H262007   5.383   6.169   1.436 -0.2788 -0.4326 -0.2372
13506TIP3   OH262008   1.033   4.991   1.707  0.1991 -0.0562 -0.3696
13506TIP3    H162009   1.093   5.066   1.712  0.2466 -0.0838 -0.5300
13506TIP3    H262010   0.964   5.020   1.647 -0.3255  0.2426  0.3635
13507TIP3   OH262011   1.613   1.148   0.187 -0.2998  0.2839  0.2692
13507TIP3    H162012   1.609   1.054   0.172 -0.7125  0.3859 -0.2858
13507TIP3    H262013   1.528   1.170   0.225 -0.4796  0.5420 -0.2703
13508TIP3   OH262014   1.124   5.557  15.514  0.2326  0.2176 -0.3958
13508TIP3    H162015   1.155   5.602  15.593 -0.2607 -0.5632  0.2581
13508TIP3    H262016   1.149   5.615  15.442  2.2925  0.1091  0.1679
13509TIP3   OH262017   5.818   3.321   5.093 -0.5644 -0.6203  0.1821
13509TIP3    H162018   5.818   3.383   5.021  0.7053 -2.1025 -1.1660
13509TIP3    H262019   5.880   3.254   5.067 -0.5654 -1.5604  2.3759
13510TIP3   OH262020   2.727   5.145   2.249 -0.3011  0.6992 -0.1166
13510TIP3    H162021   2.706   5.078   2.314 -1.1547  0.0783 -0.9966
13510TIP3    H262022   2.823   5.143   2.242 -0.3332 -2.6114 -2.2437
13511TIP3   OH262023   1.121   4.203   1.899  0.0396  0.3745 -0.5210
13511TIP3    H162024   1.043   4.156   1.870  0.4994 -0.2461 -0.7844
13511TIP3    H262025   1.180   4.200   1.823  1.0691 -0.8492  0.2935
13512TIP3   OH262026   3.599   3.708  14.983 -0.5775 -0.2445  0.5966
13512TIP3    H162027   3.567   3.655  15.056  1.5505  1.4885  2.9957
13512TIP3    H262028   3.546   3.787  14.986 -1.6864 -0.8989 -0.9704
13513TIP3   OH262029   5.806   0.717   6.442 -0.4032  0.4463 -0.7069
13513TIP3    H162030   5.761   0.640   6.475  0.4450  1.5298  3.5699
13513TIP3    H262031   5.740   0.786   6.441 -0.1806  0.6792 -0.0809
13514TIP3   OH262032   6.692   3.487  11.866  0.2174  0.4989  0.6266
13514TIP3    H162033   6.626   3.528  11.810 -0.7924  2.6169  3.1185
13514TIP3    H262034   6.755   3.557  11.883 -0.9555  0.8861  4.1500
13515TIP3   OH262035   3.452   5.076   3.225 -0.1652  0.2516  0.2248
13515TIP3    H162036   3.393   5.095   3.152  2.7236 -0.3904 -2.4551
13515TIP3    H262037   3.405   5.011   3.277 -1.4910 -0.9218 -2.2656
13516TIP3   OH262038   3.854   3.060   2.526 -0.2358  0.6468  0.0198
13516TIP3    H162039   3.815   2.976   2.549 -0.4366  0.8302  0.3556
13516TIP3    H262040   3.879   3.099   2.610 -1.7411  1.6962  0.0385
13517TIP3   OH262041   6.448   0.261   4.834 -0.5174 -0.0959 -0.3266
13517TIP3    H162042   6.526   0.277   4.782  0.0717 -1.2323  0.1663
13517TIP3    H262043   6.426   0.346   4.872  1.4215 -0.0439  0.8166
13518TIP3   OH262044   4.629   1.572   5.507  0.3538  0.0482  0.0387
13518TIP3    H162045   4.682   1.553   5.584 -0.2579 -1.7358  0.0589
13518TIP3    H262046   4.628   1.491   5.457 -0.6461  0.6698 -1.0129
13519TIP3   OH262047   2.249   4.718   2.984 -0.0415  0.4893 -0.2934
13519TIP3    H162048   2.283   4.806   2.967  1.2415  0.0163 -0.2492
13519TIP3    H262049   2.312   4.659   2.942 -1.0036 -0.4132 -0.5214
13520TIP3   OH262050   3.985   4.441   0.762  0.2013  0.3264 -0.3284
13520TIP3    H162051   4.009   4.348   0.771 -1.8749 -0.1512  0.7295
13520TIP3    H262052   3.891   4.443   0.778 -0.6415  2.0570 -4.3497
13521TIP3   OH262053   5.091   4.654   3.726 -0.1428 -0.8969  0.2973
13521TIP3    H162054   5.170   4.697   3.693  0.3654 -1.0929  1.2273
13521TIP3    H262055   5.044   4.724   3.772 -0.7077 -0.6924 -0.5660
13522TIP3   OH262056   0.388   6.495  14.526 -0.5233 -0.6756  0.6228
13522TIP3    H162057   0.469   6.451  14.553  0.7560  1.4982  0.5450
13522TIP3    H262058   0.347   6.435  14.464  2.4317 -0.7164 -1.4719
13523TIP3   OH262059   3.533   5.998  14.913  0.1091 -0.1804 -0.4833
13523TIP3    H162060   3.588   6.028  14.986 -0.4628 -0.6526  0.1667
13523TIP3    H262061   3.577   5.920  14.881 -0.9336 -1.4722  1.0527
13524TIP3   OH262062   6.003   1.315   2.148  0.6858 -0.7896  0.4220
13524TIP3    H162063   5.990   1.409   2.161  5.6932  0.1976  0.2419
13524TIP3    H262064   5.997   1.278   2.236  0.5085 -0.0058  0.7485
13525TIP3   OH262065   2.092   4.170  15.310  0.4233  0.7141  0.4774
13525TIP3    H162066   2.079   4.174  15.405  1.2756  2.0860  0.5706
13525TIP3    H262067   2.143   4.091  15.295  1.9133  1.4563  1.4051
13526TIP3   OH262068   6.262   5.038  13.371 -0.1262 -0.0678 -0.0062
13526TIP3    H162069   6.284   5.081  13.289 -1.9138 -1.3494 -1.2296
13526TIP3    H262070   6.188   5.088  13.405 -2.7083 -2.3471 -1.8066
13527TIP3   OH262071   3.627   0.286   4.337  0.3826  0.8312 -0.0579
13527TIP3    H162072   3.620   0.351   4.267  3.6076 -1.4381 -2.8287
13527TIP3    H262073   3.554   0.227   4.322 -0.6830  1.9562  0.4790
13528TIP3   OH262074   0.884   0.194  12.456  0.1803  0.0133  0.2925
13528TIP3    H162075   0.796   0.164  12.436  0.4083 -3.2507  3.1744
13528TIP3    H262076   0.940   0.153  12.390 -0.1375 -0.9024  0.5845
13529TIP3   OH262077   2.956   1.738  14.063 -0.6439  0.1032  0.3085
13529TIP3    H162078   3.034   1.769  14.016  0.6309 -2.0391  0.8325
13529TIP3    H262079   2.883   1.778  14.017  0.6587  0.0904 -1.9271
13530TIP3   OH262080   0.140   6.306   2.482 -0.1213  0.5259 -0.0481
13530TIP3    H162081   0.234   6.317   2.497  0.3489 -3.4886  1.0779
13530TIP3    H262082   0.099   6.343   2.560  0.6109  1.0195  0.1172
13531TIP3   OH262083   3.422   2.592   4.292 -1.2105  0.3739  0.2712
13531TIP3    H162084   3.516   2.576   4.281 -1.0445  2.2603 -1.8916
13531TIP3    H262085   3.388   2.511   4.330  1.0001 -1.1028 -0.6771
13532TIP3   OH262086   4.677   3.337  15.706 -0.2390  0.1689  0.5758
13532TIP3    H162087   4.765   3.313  15.736  0.0882 -0.6982 -0.9672
13532TIP3    H262088   4.647   3.402  15.770  1.4598  0.3715  1.2270
13533TIP3   OH262089   2.615   0.456   5.189  0.0723  0.7678 -0.2970
13533TIP3    H162090   2.706   0.485   5.196  0.1091  0.5888 -0.0082
13533TIP3    H262091   2.601   0.404   5.268 -0.5103  1.4136  0.0275
13534TIP3   OH262092   0.670   3.340   6.529  0.2327 -0.4359  0.6264
13534TIP3    H162093   0.673   3.422   6.578 -0.4710  0.5549 -0.9051
13534TIP3    H262094   0.759   3.329   6.495 -0.2511  1.2286 -1.4490
13535TIP3   OH262095   3.735   4.015   3.094  0.1011 -0.4309 -0.6099
13535TIP3    H162096   3.803   4.077   3.121 -0.2468  0.2732 -1.3297
13535TIP3    H262097   3.653   4.064   3.101 -0.7391 -1.9914  2.7649
13536TIP3   OH262098   6.741   0.608   1.632  0.1152  0.5002  0.3350
13536TIP3    H162099   6.682   0.550   1.682  0.3293  1.1578  1.3806
13536TIP3    H262100   6.753   0.563   1.548 -1.8394  0.3313  0.1099
13537TIP3   OH262101   6.352   6.118   1.155 -0.2446 -0.0546  0.5200
13537TIP3    H162102   6.408   6.147   1.228 -0.9680  1.6830  0.4352
13537TIP3    H262103   6.404   6.137   1.077 -0.7171  1.0635  0.4645
13538TIP3   OH262104   4.312   4.013  14.150 -0.5744 -0.0250  0.0142
13538TIP3    H162105   4.251   3.957  14.101 -2.1052  1.3592  0.2471
13538TIP3    H262106   4.260   4.048  14.222  0.8390  0.2977  0.9082
13539TIP3   OH262107   0.925   2.554   0.586  0.0266 -0.0025  0.5439
13539TIP3    H162108   0.988   2.536   0.656 -0.3604  2.4936  1.6508
13539TIP3    H262109   0.976   2.596   0.517  0.4887 -2.8307 -0.9951
13540TIP3   OH262110   6.759   1.162   6.672 -0.5022  0.2616 -0.7574
13540TIP3    H162111   6.750   1.244   6.722  1.4480 -0.5648  1.1463
13540TIP3    H262112   6.683   1.110   6.699  0.0818  0.1521  0.7884
13541TIP3   OH262113   6.162   2.761   4.464 -0.2738  0.4706  0.6474
13541TIP3    H162114   6.155   2.820   4.539 -1.6318  1.2549 -0.0584
13541TIP3    H262115   6.196   2.815   4.393  1.8909 -0.4809  0.8713
13542TIP3   OH262116   4.504   5.536   5.477  0.2011  0.2503 -0.4564
13542TIP3    H162117   4.416   5.572   5.469  1.1387  2.5058 -1.4347
13542TIP3    H262118   4.513   5.478   5.402 -0.3767  0.1190 -0.4322
13543TIP3   OH262119   0.020   4.981  13.029 -0.2775 -0.4551  0.0406
13543TIP3    H162120   0.051   4.965  12.940 -0.4855  1.4851 -0.4275
13543TIP3    H262121   0.053   5.069  13.051  0.4360 -1.1921  2.1919
13544TIP3   OH262122   2.612   2.023  14.123 -0.3237 -0.2865 -0.0822
13544TIP3    H162123   2.555   2.077  14.179  1.1156  0.8984  0.3245
13544TIP3    H262124   2.637   1.950  14.179 -0.1516  0.0606  0.3055
13545TIP3   OH262125   0.225   4.438  12.766  0.2494  0.1748 -0.2465
13545TIP3    H162126   0.210   4.349  12.733  1.2461  0.3362 -1.2101
13545TIP3    H262127   0.221   4.493  12.687  0.5123  0.8667  0.2175
13546TIP3   OH262128   5.825   0.685   4.585  0.7503 -0.3549  0.1042
13546TIP3    H162129   5.753   0.724   4.535  3.0267  1.4565 -2.0327
13546TIP3    H262130   5.884   0.651   4.517  1.8205 -2.0197  1.7856
13547TIP3   OH262131   2.869   3.864   5.347  0.2600  0.6169  0.5503
13547TIP3    H162132   2.920   3.820   5.279 -0.7490  0.4958 -0.1509
13547TIP3    H262133   2.935   3.901   5.406  1.1930  1.5527 -0.9950
13548TIP3   OH262134   0.358   4.083  16.764 -0.2359  0.0947 -0.8156
13548TIP3    H162135   0.362   4.092  16.860 -0.3857 -3.2701 -0.3415
13548TIP3    H262136   0.449   4.075  16.737 -0.2333 -2.6748 -0.3206
13549TIP3   OH262137   3.762   6.215   1.621 -0.2763 -0.1187 -0.3611
13549TIP3    H162138   3.800   6.136   1.583  1.7441  0.3738  0.4930
13549TIP3    H262139   3.815   6.232   1.699 -2.5050  0.4742  1.1145
13550TIP3   OH262140   5.495   4.276  15.890 -0.2536 -1.0910  0.0720
13550TIP3    H162141   5.427   4.223  15.850 -2.6798  2.1863 -0.6217
13550TIP3    H262142   5.542   4.315  15.816  1.8412 -2.5513  0.5516
13551TIP3   OH262143   2.309   5.982   0.765 -0.1957 -0.6311 -0.1066
13551TIP3    H162144   2.318   5.888   0.748 -1.0178 -0.7243 -0.0627
13551TIP3    H262145   2.397   6.011   0.790  0.1673 -1.2916 -0.5909
13552TIP3   OH262146   6.363   1.050  12.702  0.1622  0.1889 -0.0179
13552TIP3    H162147   6.419   1.123  12.729  0.1328  0.1860  0.0520
13552TIP3    H262148   6.425   0.980  12.680  0.1758 -0.0928  0.8552
13553TIP3   OH262149   4.560   2.460  10.595 -0.2550  0.2623 -0.1343
13553TIP3    H162150   4.569   2.383  10.651  2.3831  1.5015  1.3591
13553TIP3    H262151   4.466   2.479  10.594 -0.8894 -2.5621 -0.0576
13554TIP3   OH262152   4.242   1.705   2.440  0.0027  0.2543 -0.4480
13554TIP3    H162153   4.214   1.726   2.530  1.1468  2.5927 -0.5578
13554TIP3    H262154   4.175   1.744   2.384  0.7714  1.3812 -0.6187
13555TIP3   OH262155   1.427   2.932   1.246 -0.4921 -0.0076  0.4883
13555TIP3    H162156   1.417   2.979   1.163 -0.3695  1.0168  1.0294
13555TIP3    H262157   1.516   2.896   1.243 -0.5171 -0.0403  0.1433
13556TIP3   OH262158   4.628   5.592  14.465  0.3212 -0.0299  0.2351
13556TIP3    H162159   4.551   5.638  14.499  0.5122  0.7060 -0.3137
13556TIP3    H262160   4.602   5.564  14.377  0.1518 -1.1198  0.6233
13557TIP3   OH262161   0.968   3.829   0.929 -0.4678 -0.3142  0.1685
13557TIP3    H162162   0.987   3.884   1.005 -2.6389  0.5426  0.1815
13557TIP3    H262163   1.039   3.847   0.868 -0.2088  1.2044  0.8724
13558TIP3   OH262164   1.109   6.201   2.556  0.1708 -0.0869 -0.3241
13558TIP3    H162165   1.060   6.223   2.635 -2.8053 -1.0746 -1.7672
13558TIP3    H262166   1.060   6.242   2.485  2.0192 -0.3264 -1.8188
13559TIP3   OH262167   4.362   0.075   4.492 -0.8103  0.3268  0.1213
13559TIP3    H162168   4.344   0.169   4.492 -0.8030  0.3281  0.0963
13559TIP3    H262169   4.411   0.060   4.573 -1.3537  0.2435  0.4441
13560TIP3   OH262170   5.439   6.270   2.572 -0.0554 -0.0415 -0.0588
13560TIP3    H162171   5.385   6.206   2.525 -1.2130 -0.3658  1.6188
13560TIP3    H262172   5.411   6.355   2.539 -0.0507 -0.2983 -0.7385
13561TIP3   OH262173   3.851   4.861   4.998  0.1428  0.3965  0.6906
13561TIP3    H162174   3.939   4.834   4.971 -0.3531 -0.2960 -0.2656
13561TIP3    H262175   3.798   4.781   4.992 -0.2832  0.4908  2.5186
13562TIP3   OH262176   5.772   4.880  16.586 -0.8145  0.1941  0.0614
13562TIP3    H162177   5.752   4.843  16.672 -0.0985  0.9193  0.5576
13562TIP3    H262178   5.686   4.890  16.544 -1.0076 -2.7578 -0.4498
13563TIP3   OH262179   2.873   0.415  16.701  0.3626  0.1972  0.5618
13563TIP3    H162180   2.788   0.371  16.700  0.1625  0.4144 -3.1861
13563TIP3    H262181   2.930   0.359  16.648  1.0490  2.5946 -1.4165
13564TIP3   OH262182   5.749   3.360   4.547 -0.1517 -0.5636 -0.0758
13564TIP3    H162183   5.669   3.364   4.598 -0.0563 -1.0688  0.1266
13564TIP3    H262184   5.809   3.308   4.601  0.2553 -0.3238 -0.2921
13565TIP3   OH262185   6.039   4.671   4.514  0.5084 -0.0754  0.0243
13565TIP3    H162186   6.066   4.732   4.445  2.0825 -0.3409  0.3712
13565TIP3    H262187   5.968   4.619   4.474  2.9035 -1.8273 -2.3090
13566TIP3   OH262188   0.090   0.465   1.960 -0.0159 -0.7694 -0.4011
13566TIP3    H162189   0.060   0.523   2.030  0.9469 -1.2834  0.4598
13566TIP3    H262190   0.021   0.400   1.951 -0.8329  0.1464 -0.9701
13567TIP3   OH262191   4.259   6.608   2.214 -0.2418  0.0076 -0.2731
13567TIP3    H162192   4.236   6.697   2.187  1.3190  0.4262 -0.3451
13567TIP3    H262193   4.354   6.611   2.227 -0.3671 -1.2231  1.3087
13568TIP3   OH262194   0.895   0.897  13.233 -0.2095  0.7889 -0.5632
13568TIP3    H162195   0.876   0.970  13.292 -3.1588 -0.1216 -0.2384
13568TIP3    H262196   0.943   0.834  13.287  0.4849  1.5609 -0.2545
13569TIP3   OH262197   2.245   0.017   3.738  0.3818 -0.0434 -0.7783
13569TIP3    H162198   2.151   0.037   3.741  0.3856 -0.1532  0.5399
13569TIP3    H262199   2.251  -0.074   3.766  0.8635 -0.1385 -1.1785
13570TIP3   OH262200   5.007   1.925   5.645 -0.1218  0.1213 -0.4072
13570TIP3    H162201   5.026   1.871   5.721 -1.4619 -0.2377 -0.3172
13570TIP3    H262202   4.918   1.957   5.659 -0.0661  0.7626 -1.4044
13571TIP3   OH262203   2.417   2.142  10.725 -0.4167  0.3546 -0.3371
13571TIP3    H162204   2.321   2.143  10.733 -0.3836 -0.7263  0.3181
13571TIP3    H262205   2.432   2.138  10.630 -1.0724 -1.0495 -0.4168
13572TIP3   OH262206   0.276   3.662   4.940 -0.1572 -0.6148  0.6404
13572TIP3    H162207   0.310   3.750   4.928 -1.6384 -0.2028 -1.1776
13572TIP3    H262208   0.235   3.663   5.026 -0.4511  0.6051  0.5023
13573TIP3   OH262209   4.823   3.838   4.189  0.0234  0.7675 -0.1830
13573TIP3    H162210   4.913   3.825   4.158 -0.8383 -0.1061 -2.5634
13573TIP3    H262211   4.775   3.866   4.111 -2.0001  0.1376  0.7757
13574TIP3   OH262212   1.447   0.890   4.844  0.1272 -0.3198  0.7944
13574TIP3    H162213   1.465   0.976   4.883  1.5017  0.8815 -2.1701
13574TIP3    H262214   1.529   0.843   4.852  1.5415  1.0968 -3.0369
13575TIP3   OH262215   5.171   0.787  11.818  0.0602 -0.4212 -0.4509
13575TIP3    H162216   5.138   0.846  11.886  1.0104 -0.4921  0.0774
13575TIP3    H262217   5.250   0.829  11.786  0.6479 -1.3056 -0.2026
13576TIP3   OH262218   4.931   6.469   4.245  0.1291 -0.0972  0.6319
13576TIP3    H162219   4.854   6.417   4.222  0.4115  0.5081 -2.0911
13576TIP3    H262220   4.925   6.481   4.340 -1.8265 -2.0403  0.8358
13577TIP3   OH262221   4.818   0.192  12.665 -0.1312  0.5489 -0.1440
13577TIP3    H162222   4.813   0.098  12.646  1.5590  0.3316  0.3207
13577TIP3    H262223   4.770   0.233  12.594 -2.1238 -0.7226  0.3970
13578TIP3   OH262224   0.064   4.114   5.068 -0.4178 -0.0995  0.1129
13578TIP3    H162225   0.020   4.166   5.136 -0.3990 -0.5973  0.5148
13578TIP3    H262226   0.146   4.161   5.051 -1.5510  1.4250 -1.4170
13579TIP3   OH262227   5.852   0.214  15.187 -0.3726  0.2448  0.1558
13579TIP3    H162228   5.885   0.291  15.233  0.9153 -1.0039  1.4520
13579TIP3    H262229   5.914   0.145  15.210 -0.5712 -0.8229 -2.2463
13580TIP3   OH262230   0.802   2.468  14.867 -0.2216 -0.1859  0.5590
13580TIP3    H162231   0.781   2.544  14.921 -3.6295  1.1938 -2.3477
13580TIP3    H262232   0.889   2.488  14.831 -0.8699  2.2421  0.1492
13581TIP3   OH262233   0.833   4.990   5.019  0.1830  0.3807 -0.5499
13581TIP3    H162234   0.746   4.992   5.058 -0.3053  0.7601 -1.6287
13581TIP3    H262235   0.892   5.004   5.093 -0.6545 -0.0224  0.2162
13582TIP3   OH262236   5.375   3.911  11.595 -0.4104 -0.5021  0.0284
13582TIP3    H162237   5.280   3.922  11.607 -0.7861 -1.2202 -1.8827
13582TIP3    H262238   5.414   3.975  11.654 -2.1490  1.6518 -0.9828
13583TIP3   OH262239   5.473   3.775  11.355 -0.2916 -0.1890 -0.2304
13583TIP3    H162240   5.414   3.824  11.297  2.0405  2.3580 -0.6331
13583TIP3    H262241   5.431   3.780  11.441 -1.2823  0.4392 -0.7302
13584TIP3   OH262242   4.497   1.310  12.450  0.1741  0.3660  0.2447
13584TIP3    H162243   4.528   1.341  12.535  0.4589  1.3593 -0.2157
13584TIP3    H262244   4.475   1.389  12.402 -2.4120 -0.2269  0.2814
13585TIP3   OH262245   0.673   4.440  16.670  0.2491  0.4560  0.3997
13585TIP3    H162246   0.622   4.403  16.599 -0.6633 -0.7440  1.6386
13585TIP3    H262247   0.764   4.436  16.639  0.0154 -1.3749 -0.1515
13586TIP3   OH262248   4.110   0.125  17.109 -0.0507  0.5225 -0.2671
13586TIP3    H162249   4.193   0.103  17.066  0.4289  0.3717  0.7251
13586TIP3    H262250   4.116   0.220  17.125 -1.3006  1.1200 -2.7775
13587TIP3   OH262251   5.523   6.050  12.106 -0.2679 -0.1091  0.2692
13587TIP3    H162252   5.615   6.025  12.108 -0.2236  0.0327  2.1421
13587TIP3    H262253   5.497   6.041  12.014  1.7660  0.4785 -0.4136
13588TIP3   OH262254   3.282   2.015  15.569 -0.1404 -0.9719 -0.1566
13588TIP3    H162255   3.336   2.092  15.551 -0.6115 -1.2975 -3.6377
13588TIP3    H262256   3.345   1.943  15.576  0.1507 -0.6360  0.7813
13589TIP3   OH262257   5.055   0.315  12.601 -0.1475  0.3818  0.7364
13589TIP3    H162258   5.021   0.383  12.543 -0.2467 -0.6231 -0.4203
13589TIP3    H262259   4.979   0.259  12.621  0.2624 -0.3580  0.2814
13590TIP3   OH262260   2.460   4.794  12.311  0.2008  0.2990  0.4176
13590TIP3    H162261   2.424   4.802  12.399  0.1046  0.7861  0.3361
13590TIP3    H262262   2.383   4.783  12.255  0.2684 -0.1335  0.4050
13591TIP3   OH262263   2.230   3.597  14.322  0.3815 -0.0119  0.4363
13591TIP3    H162264   2.205   3.621  14.411  0.6890  1.1570  0.2178
13591TIP3    H262265   2.168   3.643  14.266 -0.0613 -1.0558  0.0414
13592TIP3   OH262266   2.897   3.117  11.734 -0.0070 -0.4174 -0.8739
13592TIP3    H162267   2.825   3.177  11.755  0.0657 -0.7430  0.4342
13592TIP3    H262268   2.943   3.106  11.818  0.2756 -1.9110 -1.2044
13593TIP3   OH262269   1.291   6.516   0.827  0.1788  0.5233 -0.3884
13593TIP3    H162270   1.375   6.491   0.789 -0.2133  1.6767 -2.1675
13593TIP3    H262271   1.255   6.434   0.861  2.1025  0.0502  0.6641
13594TIP3   OH262272   3.452   6.026  16.982  0.0160  0.3653 -0.3813
13594TIP3    H162273   3.382   5.988  17.036 -0.1999 -1.0971 -1.6134
13594TIP3    H262274   3.530   6.023  17.037 -0.7256  1.4349  0.7880
13595TIP3   OH262275   5.813   2.874   3.390 -0.1276 -0.5234  0.0012
13595TIP3    H162276   5.772   2.957   3.416 -0.1756 -0.4215 -0.3986
13595TIP3    H262277   5.758   2.807   3.431 -0.1428 -0.3612  0.2492
13596TIP3   OH262278   6.748   0.644   3.483  0.0555  0.1876  0.3528
13596TIP3    H162279   6.789   0.729   3.469  1.5314 -0.6695 -0.7878
13596TIP3    H262280   6.818   0.589   3.519 -0.1479 -1.1926 -1.2288
13597TIP3   OH262281   4.668   6.664  13.417 -0.1792  0.3680 -0.3324
13597TIP3    H162282   4.620   6.723  13.359  1.4886  1.6929 -0.4357
13597TIP3    H262283   4.674   6.711  13.500 -0.8118 -0.6677  0.3219
13598TIP3   OH262284   1.392   6.059  12.930  0.5149  0.3491 -0.1359
13598TIP3    H162285   1.306   6.075  12.970  0.1790  1.1647 -1.1228
13598TIP3    H262286   1.445   6.023  13.001 -0.7721 -0.6328  0.3888
13599TIP3   OH262287   0.578   0.791   1.423  0.0233  0.1058 -0.1071
13599TIP3    H162288   0.592   0.838   1.504  1.1247  0.5030 -0.5168
13599TIP3    H262289   0.503   0.734   1.441 -1.0960  1.6985  0.5207
13600TIP3   OH262290   0.906   5.179   6.595 -0.5003  0.2932  0.4225
13600TIP3    H162291   0.835   5.158   6.534 -0.0625 -1.8492  0.5681
13600TIP3    H262292   0.876   5.257   6.641 -2.1400  0.2491 -0.4939
13601TIP3   OH262293   2.905   0.414  15.757 -0.2787  0.4925 -0.8194
13601TIP3    H162294   2.981   0.450  15.711 -0.6199  0.8073 -1.1381
13601TIP3    H262295   2.903   0.322  15.731  0.1730  0.4072 -0.5680
13602TIP3   OH262296   3.976   5.901  11.449 -0.6913 -0.7006  0.0433
13602TIP3    H162297   4.006   5.926  11.362 -1.1180 -0.2709  0.0207
13602TIP3    H262298   4.049   5.851  11.486  0.2559  0.7293  0.1625
13603TIP3   OH262299   5.622   5.183   5.741  0.1207  0.5750  0.0064
13603TIP3    H162300   5.661   5.243   5.804 -1.3154 -0.1990  1.7223
13603TIP3    H262301   5.691   5.118   5.725  0.9581  1.5034 -0.2611
13604TIP3   OH262302   1.794   0.056   0.842  0.9578 -0.0500  0.2317
13604TIP3    H162303   1.806   0.015   0.757  2.8993  2.1407 -0.6543
13604TIP3    H262304   1.842  -0.000   0.903  0.5803 -0.9789 -0.3144
13605TIP3   OH262305   4.201   3.711   3.127  0.0970  0.4188 -0.2521
13605TIP3    H162306   4.283   3.702   3.178  0.7901  1.5766 -1.1333
13605TIP3    H262307   4.175   3.620   3.110  0.1707 -0.0131  1.6101
13606TIP3   OH262308   5.355   6.171   5.513 -0.0901  0.0349  0.1180
13606TIP3    H162309   5.278   6.221   5.541 -1.7376 -0.9018 -2.3698
13606TIP3    H262310   5.331   6.080   5.530  0.5053 -0.2599 -0.5944
13607TIP3   OH262311   5.360   6.220  14.608  0.2943 -0.1151 -0.1288
13607TIP3    H162312   5.397   6.132  14.606 -1.1207 -0.7842  1.4155
13607TIP3    H262313   5.292   6.217  14.674  0.0890  2.1163 -0.1439
13608TIP3   OH262314   3.577   0.373   1.125 -0.4510 -0.1740 -0.5072
13608TIP3    H162315   3.630   0.294   1.134  1.2523  0.7731 -1.6320
13608TIP3    H262316   3.586   0.399   1.033 -2.0594  0.6158 -0.4952
13609TIP3   OH262317   5.207   6.461  15.616  0.4345  0.1000 -0.1332
13609TIP3    H162318   5.215   6.417  15.700 -2.7446  1.7971  1.2498
13609TIP3    H262319   5.148   6.405  15.565  0.5670  0.1690 -0.3645
13610TIP3   OH262320   3.762   0.423   0.056 -0.1549  0.9490 -0.1748
13610TIP3    H162321   3.834   0.467   0.101  1.1786 -1.2680  0.0117
13610TIP3    H262322   3.799   0.340   0.026 -2.3750  0.1621 -0.9895
13611TIP3   OH262323   6.616   5.132  14.678  0.0812  0.3994 -0.3850
13611TIP3    H162324   6.677   5.075  14.631  0.6330  0.3363  0.3916
13611TIP3    H262325   6.574   5.075  14.742 -0.8589  0.4296 -0.9568
13612TIP3   OH262326   2.880   5.210  16.751  0.4699  0.1598  0.4984
13612TIP3    H162327   2.890   5.281  16.687  1.0821 -0.2086  0.1681
13612TIP3    H262328   2.789   5.184  16.743  1.1652 -1.9981 -2.5972
13613TIP3   OH262329   4.247   1.200   1.214 -0.1449  0.2782 -0.4104
13613TIP3    H162330   4.183   1.270   1.198 -0.3223  0.3661  0.5838
13613TIP3    H262331   4.195   1.120   1.221 -0.1302  0.3101  0.1359
13614TIP3   OH262332   5.983   6.470   6.161  0.0584 -0.4853  0.3290
13614TIP3    H162333   5.946   6.557   6.149 -1.7936 -1.1534  0.8369
13614TIP3    H262334   6.055   6.483   6.224  0.1835  0.7371 -0.0366
13615TIP3   OH262335   0.737   0.656  16.536  0.5839  0.5621  0.7988
13615TIP3    H162336   0.725   0.677  16.443  1.0299 -0.7596  0.4054
13615TIP3    H262337   0.664   0.699  16.580 -0.1863  0.4275 -0.2920
13616TIP3   OH262338   2.371   2.934   3.133 -0.3598  0.3151  0.1632
13616TIP3    H162339   2.335   3.023   3.138 -0.3641  0.2421  2.2783
13616TIP3    H262340   2.443   2.934   3.195 -0.1203 -1.0657 -0.0921
13617TIP3   OH262341   6.605   1.021   3.728 -0.0788  0.1615 -0.3085
13617TIP3    H162342   6.516   1.057   3.726 -0.3261 -0.3807  0.3882
13617TIP3    H262343   6.629   1.013   3.636 -0.9162 -0.0721 -0.5231
13618TIP3   OH262344   0.593   0.187   3.217  0.1341 -0.4340  0.0719
13618TIP3    H162345   0.528   0.253   3.243  0.9213  0.8368 -1.0746
13618TIP3    H262346   0.573   0.170   3.125  1.1495 -0.3584 -0.1663
13619TIP3   OH262347   5.730   0.894  12.964  0.1580  0.1109  0.2047
13619TIP3    H162348   5.770   0.981  12.966  3.0029 -0.9760 -2.2044
13619TIP3    H262349   5.766   0.850  13.041  2.9172 -0.4670 -1.2961
13620TIP3   OH262350   2.735   4.967   4.466  0.5241  0.4263  0.2149
13620TIP3    H162351   2.665   4.933   4.522 -0.7179  1.0749 -0.8709
13620TIP3    H262352   2.815   4.930   4.502 -0.3389 -0.0546  1.7288
13621TIP3   OH262353   0.526   5.163  16.979 -0.4687  0.0596 -0.5620
13621TIP3    H162354   0.536   5.173  16.884 -0.9183  1.0209 -0.5263
13621TIP3    H262355   0.446   5.212  16.999 -0.3321 -0.0742  0.3295
13622TIP3   OH262356   4.056   2.441  14.410 -0.2136  0.3560  0.7103
13622TIP3    H162357   4.073   2.417  14.319  1.3110 -0.7729  1.2513
13622TIP3    H262358   3.989   2.380  14.438 -0.7542  0.7655  0.3316
13623TIP3   OH262359   3.506   2.414  11.733 -1.1509 -0.0386 -0.0321
13623TIP3    H162360   3.471   2.409  11.822 -0.7039  1.9486  0.2932
13623TIP3    H262361   3.556   2.333  11.722  0.4848  0.5739  2.2823
13624TIP3   OH262362   4.005   6.221   6.043  0.0660  0.5681  0.4346
13624TIP3    H162363   3.985   6.129   6.064  0.6225  0.7560  1.8893
13624TIP3    H262364   4.099   6.221   6.024 -0.0949  0.7072 -0.3914
13625TIP3   OH262365   6.400   1.436   5.428  0.2362  0.0583 -0.1031
13625TIP3    H162366   6.431   1.523   5.403  0.6671 -0.1075 -0.1448
13625TIP3    H262367   6.376   1.445   5.520  1.9827 -0.2281  0.4119
13626TIP3   OH262368   5.253   2.829  11.606  0.0456  0.1843 -0.1328
13626TIP3    H162369   5.206   2.805  11.527 -1.0566  0.4788  0.4121
13626TIP3    H262370   5.244   2.753  11.664 -0.9536  0.7539  0.4881
13627TIP3   OH262371   4.294   4.239  15.804 -0.6147 -0.2003 -0.0130
13627TIP3    H162372   4.360   4.256  15.871 -1.3102  0.3344  0.5469
13627TIP3    H262373   4.322   4.291  15.728 -1.2479  1.3073  0.7584
13628TIP3   OH262374   2.781   3.235  15.905  0.6377 -0.7050  0.1146
13628TIP3    H162375   2.780   3.320  15.949 -1.0303 -1.7560  2.2672
13628TIP3    H262376   2.865   3.196  15.931  1.5748  0.3620 -1.1735
13629TIP3   OH262377   5.757   5.072   4.927  0.4106  0.2800 -0.5216
13629TIP3    H162378   5.709   5.112   4.998 -1.2795 -0.7543 -1.0287
13629TIP3    H262379   5.790   4.990   4.963 -0.3280 -0.1784 -0.8564
13630TIP3   OH262380   4.172   0.478   4.153 -0.2682  0.0411 -0.4667
13630TIP3    H162381   4.113   0.475   4.228  0.2283  1.7970  0.0326
13630TIP3    H262382   4.222   0.558   4.165 -0.0609  0.2829 -2.6073
13631TIP3   OH262383   2.018   6.588   3.952  0.4660 -0.0699 -0.3032
13631TIP3    H162384   2.080   6.533   3.905  1.9455  1.1461  0.1203
13631TIP3    H262385   1.932   6.555   3.927  1.0597  1.0694 -4.6021
13632TIP3   OH262386   0.299   0.690   4.555  0.1893  0.1960 -0.2082
13632TIP3    H162387   0.262   0.652   4.634  0.2361  0.6855  0.0518
13632TIP3    H262388   0.386   0.651   4.548 -1.0468 -2.5526 -1.9337
13633TIP3   OH262389   4.802   6.572  13.769 -0.4203  0.1455  0.3937
13633TIP3    H162390   4.820   6.497  13.712 -0.0321 -0.0066  0.7086
13633TIP3    H262391   4.882   6.582  13.822 -0.4196  0.8531  0.2754
13634TIP3   OH262392   6.656   1.448   2.469  0.2737 -0.2968 -0.6320
13634TIP3    H162393   6.717   1.377   2.450 -1.3368 -2.0196  0.2845
13634TIP3    H262394   6.660   1.458   2.564 -0.0642  0.3463 -0.6797
13635TIP3   OH262395   1.132   2.516   1.380  0.8443 -0.0954  0.0519
13635TIP3    H162396   1.068   2.520   1.451  0.5888  1.2714 -0.2112
13635TIP3    H262397   1.081   2.537   1.301  1.3450 -0.4146 -0.3634
13636TIP3   OH262398   2.041   4.241  13.312  0.0733 -0.2530 -0.6661
13636TIP3    H162399   2.082   4.239  13.226  0.8987 -0.3770 -0.2798
13636TIP3    H262400   2.114   4.255  13.373 -0.4343 -0.6848  0.0523
13637TIP3   OH262401   1.318   5.270  13.160  0.4661 -0.1844 -0.2186
13637TIP3    H162402   1.374   5.264  13.237  2.2529  1.8992 -1.2528
13637TIP3    H262403   1.313   5.179  13.128 -0.0682 -1.0369  2.1147
13638TIP3   OH262404   5.649   6.081   0.300  0.0340 -0.0002 -0.1620
13638TIP3    H162405   5.578   6.145   0.296  0.8817  0.9549 -0.5828
13638TIP3    H262406   5.673   6.077   0.392 -0.6815 -0.4796  0.0137
13639TIP3   OH262407   2.636   4.433   1.478  0.2136 -0.3107  0.2294
13639TIP3    H162408   2.568   4.373   1.511 -0.3313  0.6298  0.8859
13639TIP3    H262409   2.718   4.388   1.497 -0.0553  0.1485  2.9770
13640TIP3   OH262410   2.411   3.776  10.938 -0.5166 -0.5009 -0.7911
13640TIP3    H162411   2.448   3.854  10.896  0.4625 -0.4541  0.0962
13640TIP3    H262412   2.436   3.704  10.880  0.2956 -0.3689 -0.6228
13641TIP3   OH262413   3.113   3.663  13.468  0.5705  0.1614 -0.2731
13641TIP3    H162414   3.136   3.579  13.429  0.0592 -0.4483  0.6864
13641TIP3    H262415   3.034   3.690  13.422  0.5693 -0.0284 -0.3828
13642TIP3   OH262416   0.249   5.599   5.484  0.1692 -0.8972 -0.3879
13642TIP3    H162417   0.234   5.647   5.565  1.0036 -0.6837 -0.3508
13642TIP3    H262418   0.279   5.512   5.512  0.3211 -0.8700 -0.4610
13643TIP3   OH262419   0.488   5.394   1.604 -0.2619  0.0773  0.3012
13643TIP3    H162420   0.403   5.348   1.609 -0.1291 -0.1279  0.7352
13643TIP3    H262421   0.477   5.470   1.662  0.4102 -0.8805  1.7573
13644TIP3   OH262422   6.464   5.900   1.868  0.5884  0.3002 -0.4366
13644TIP3    H162423   6.378   5.875   1.835 -0.7608  2.2289  1.2595
13644TIP3    H262424   6.502   5.819   1.901 -0.0916 -0.7734 -2.1655
13645TIP3   OH262425   3.178   2.902   0.185 -0.0191  0.2524  0.0229
13645TIP3    H162426   3.245   2.911   0.118 -0.3277  0.3611 -0.2738
13645TIP3    H262427   3.095   2.906   0.137 -0.2848 -3.4812 -0.1459
13646TIP3   OH262428   0.619   2.008   5.533  0.2096 -0.8447 -0.4852
13646TIP3    H162429   0.694   1.955   5.558 -0.2375 -2.2731 -2.0273
13646TIP3    H262430   0.545   1.968   5.577 -0.1146 -1.5093 -1.5804
13647TIP3   OH262431   4.673   2.260  15.973 -0.4471 -0.1770  0.1088
13647TIP3    H162432   4.685   2.165  15.977 -2.3534 -0.4530  0.4777
13647TIP3    H262433   4.754   2.293  15.936 -0.1145 -2.0612 -0.9849
13648TIP3   OH262434   4.936   0.680   2.388  0.0084 -0.0415 -0.2017
13648TIP3    H162435   4.977   0.714   2.309 -0.1652  1.0675  0.1697
13648TIP3    H262436   4.957   0.744   2.456 -1.5291  0.0869  0.2020
13649TIP3   OH262437   2.688   3.745  16.156 -0.0007  0.1709  0.0222
13649TIP3    H162438   2.658   3.824  16.200 -1.1085  0.7197 -1.6425
13649TIP3    H262439   2.612   3.686  16.160  1.0751 -1.1819  1.9782
13650TIP3   OH262440   1.600   5.226   4.607  0.4674 -0.1511  0.0719
13650TIP3    H162441   1.650   5.305   4.628 -0.7776  0.7321 -0.2400
13650TIP3    H262442   1.668   5.160   4.592  1.5244  0.5538  1.3894
13651TIP3   OH262443   1.297   4.442   4.846  0.2016  0.2182 -0.2562
13651TIP3    H162444   1.365   4.413   4.786  1.3252 -0.8273  1.4302
13651TIP3    H262445   1.216   4.406   4.810  1.2566 -3.4176  0.5755
13652TIP3   OH262446   1.835   5.929  14.868  0.4232 -0.5980 -0.2938
13652TIP3    H162447   1.810   6.010  14.825  2.0143 -0.1242 -0.3946
13652TIP3    H262448   1.755   5.877  14.870 -0.4960  0.7519 -0.7026
13653TIP3   OH262449   5.594   6.796   5.858 -0.5349  0.6074 -0.6909
13653TIP3    H162450   5.627   6.816   5.946  2.5031  0.4114 -1.6574
13653TIP3    H262451   5.620   6.871   5.805 -2.8182  0.9765 -1.3666
13654TIP3   OH262452   2.476   3.591  10.564  1.0590  0.3167 -0.3286
13654TIP3    H162453   2.466   3.587  10.659  0.9756 -2.1519 -0.3644
13654TIP3    H262454   2.539   3.522  10.544  1.5734  1.2267 -2.0256
13655TIP3   OH262455   6.422   2.554   6.219 -0.4587  0.0831  0.0078
13655TIP3    H162456   6.473   2.503   6.282 -1.1343 -0.2177  0.3178
13655TIP3    H262457   6.411   2.640   6.261 -0.9974 -0.1509  0.3438
13656TIP3   OH262458   5.203   0.397  13.293 -0.0846  0.0989  0.5845
13656TIP3    H162459   5.225   0.304  13.281  0.7622  0.3829 -0.1712
13656TIP3    H262460   5.202   0.409  13.388 -0.8464 -0.8259  0.7099
13657TIP3   OH262461   0.139   0.856   4.773 -0.5119  0.1704  0.4913
13657TIP3    H162462   0.114   0.810   4.854  3.4603  1.7654  2.9081
13657TIP3    H262463   0.212   0.805   4.738  1.0000  2.0577  0.7340
13658TIP3   OH262464   3.959   2.849   4.791  0.2684  0.0043 -0.4968
13658TIP3    H162465   3.991   2.758   4.790  1.0200  0.2539 -0.1605
13658TIP3    H262466   3.911   2.856   4.874 -0.2397 -0.2243 -0.7636
13659TIP3   OH262467   6.517   5.488   2.486  0.5862 -0.1032  0.5099
13659TIP3    H162468   6.434   5.446   2.511  0.3561 -0.1064 -0.2315
13659TIP3    H262469   6.584   5.427   2.516  0.2409 -1.4272 -1.2361
13660TIP3   OH262470   4.206   4.095   1.546  0.6060 -0.2490  0.3878
13660TIP3    H162471   4.228   4.007   1.515 -0.0621 -0.4919  0.5664
13660TIP3    H262472   4.272   4.152   1.509  0.0708 -0.5874 -1.1401
13661TIP3   OH262473   3.522   1.861   0.890 -0.2736 -0.3907  0.0676
13661TIP3    H162474   3.506   1.783   0.943 -2.3830 -0.2413 -0.2285
13661TIP3    H262475   3.447   1.918   0.911  0.6666  1.1003 -0.5149
13662TIP3   OH262476   1.799   1.202   4.119  0.2063 -0.2865 -0.3177
13662TIP3    H162477   1.772   1.140   4.187 -2.3381 -0.7887 -1.6438
13662TIP3    H262478   1.824   1.281   4.168  0.1801 -1.2068  1.2547
13663TIP3   OH262479   6.494   0.049   3.951 -0.7875  0.0027 -0.3465
13663TIP3    H162480   6.458   0.122   4.002 -0.9373 -0.6559  0.5159
13663TIP3    H262481   6.582   0.078   3.927 -0.7498  0.3666  0.2025
13664TIP3   OH262482   6.650   4.121  15.015 -0.0877 -0.1213 -0.0553
13664TIP3    H162483   6.627   4.113  14.922  0.2680  0.4858 -0.2010
13664TIP3    H262484   6.714   4.052  15.030 -0.5573 -0.5742 -0.1255
13665TIP3   OH262485   5.037   4.598  14.118 -0.5727  0.5685 -0.4710
13665TIP3    H162486   4.960   4.572  14.068 -0.4728 -0.2777 -0.1994
13665TIP3    H262487   5.042   4.535  14.190 -0.2157  1.2372  0.1119
13666TIP3   OH262488   6.536   6.728  11.247 -0.2655  0.2941 -0.0768
13666TIP3    H162489   6.622   6.764  11.228 -0.5946  1.4185  0.4733
13666TIP3    H262490   6.477   6.774  11.187 -0.3919 -1.0569 -1.0243
13667TIP3   OH262491   0.091   6.427   2.726  0.3159  0.8149  0.6029
13667TIP3    H162492   0.100   6.416   2.820 -0.9127  1.4744  0.8107
13667TIP3    H262493   0.159   6.491   2.703 -0.1790  1.5825  1.2453
13668TIP3   OH262494   6.399   5.244  11.361  0.3384  0.5077  0.2394
13668TIP3    H162495   6.433   5.156  11.351  2.0986  1.1354  0.4161
13668TIP3    H262496   6.414   5.286  11.277 -1.5597  0.3399 -0.2394
13669TIP3   OH262497   5.814   3.186  15.030 -0.6048 -0.3992 -0.0412
13669TIP3    H162498   5.907   3.204  15.041 -0.1244 -2.4756 -0.3047
13669TIP3    H262499   5.798   3.108  15.083 -2.6063  0.8854  1.3661
13670TIP3   OH262500   5.831   0.304  12.090  0.0766 -0.4352 -0.2348
13670TIP3    H162501   5.893   0.350  12.147  0.9266 -0.0866 -1.3917
13670TIP3    H262502   5.770   0.372  12.062  0.6128 -0.2515 -0.9864
13671TIP3   OH262503   2.900   6.135  16.309 -0.2526  0.5549  0.5107
13671TIP3    H162504   2.844   6.207  16.337  1.2238  1.4285  1.3361
13671TIP3    H262505   2.865   6.058  16.354 -0.5247  1.1644  1.3697
13672TIP3   OH262506   4.241   5.319  17.188  0.9075 -0.5406 -0.5546
13672TIP3    H162507   4.214   5.243  17.238  1.3180  0.5668  1.4852
13672TIP3    H262508   4.308   5.361  17.243  1.3205  0.8031 -2.0028
13673TIP3   OH262509   6.545   4.495  14.040  0.0034  0.5395  0.5789
13673TIP3    H162510   6.556   4.469  13.948 -0.1561 -0.8190  0.9202
13673TIP3    H262511   6.461   4.457  14.066 -0.2978  1.5142  1.1024
13674TIP3   OH262512   0.308   0.324  11.687  0.1784  0.9071 -0.6723
13674TIP3    H162513   0.385   0.373  11.658  0.3818  1.0584  0.1118
13674TIP3    H262514   0.333   0.232  11.675 -0.0195  0.9640 -1.6656
13675TIP3   OH262515   6.157   2.979   1.719 -0.8171 -0.2726 -0.4471
13675TIP3    H162516   6.187   3.016   1.636 -2.4021 -2.1635 -1.9823
13675TIP3    H262517   6.061   2.987   1.716 -0.8941 -0.2103  1.2972
13676TIP3   OH262518   2.863   3.900  15.220 -0.1132  0.2874 -0.0387
13676TIP3    H162519   2.788   3.957  15.238  1.0133  1.6418  0.5287
13676TIP3    H262520   2.866   3.894  15.125 -1.2149 -0.1981 -0.0681
13677TIP3   OH262521   2.269   6.162   3.575 -0.5940 -0.0136 -0.5534
13677TIP3    H162522   2.286   6.230   3.641 -0.4814 -0.7351  0.1789
13677TIP3    H262523   2.200   6.109   3.613 -0.0821 -0.8187 -0.7342
13678TIP3   OH262524   2.197   5.559   3.979  0.5008 -0.0937 -0.1653
13678TIP3    H162525   2.234   5.479   3.940  0.2270 -1.1056  1.5388
13678TIP3    H262526   2.267   5.593   4.033  0.3079  0.3229 -0.1768
13679TIP3   OH262527   3.369   3.869  15.985  0.0275 -0.5706 -0.2456
13679TIP3    H162528   3.464   3.884  15.991 -0.1442  0.2147  0.8686
13679TIP3    H262529   3.361   3.781  15.949  1.1325  1.0198 -5.0899
13680TIP3   OH262530   4.347   2.032   6.047 -0.7119  0.1882 -0.4613
13680TIP3    H162531   4.253   2.038   6.061 -0.5280 -0.1617  1.1447
13680TIP3    H262532   4.381   2.118   6.070 -0.6289  0.3133 -1.0329
13681TIP3   OH262533   0.552   0.660  16.268  0.1156  0.1979  0.1687
13681TIP3    H162534   0.530   0.596  16.201  1.0708 -0.3894  0.3998
13681TIP3    H262535   0.505   0.631  16.347  1.9139 -1.2751  0.7700
13682TIP3   OH262536   6.329   4.782   5.919 -0.2603 -0.1889 -0.0018
13682TIP3    H162537   6.279   4.857   5.886 -1.5877 -0.3618  1.4909
13682TIP3    H262538   6.282   4.755   5.998  0.3804 -2.3831 -0.3085
13683TIP3   OH262539   2.266   1.730   3.657 -0.3242  0.4275 -0.1683
13683TIP3    H162540   2.228   1.796   3.599  0.3916  0.9204 -0.0882
13683TIP3    H262541   2.339   1.774   3.699 -0.8672  0.0899  1.1771
13684TIP3   OH262542   4.657   1.293   2.362 -0.3197 -0.4231  0.2375
13684TIP3    H162543   4.585   1.238   2.393  0.4934 -2.8269 -1.8090
13684TIP3    H262544   4.724   1.285   2.429 -0.9653 -0.2881  0.9073
13685TIP3   OH262545   2.790   6.597  14.006  0.4341 -0.3649 -0.6999
13685TIP3    H162546   2.695   6.586  14.010  0.4618 -0.6609 -0.7873
13685TIP3    H262547   2.809   6.610  13.913  0.3674  0.7998 -0.5631
13686TIP3   OH262548   1.590   6.229   4.610 -0.1142 -0.2144  0.0459
13686TIP3    H162549   1.540   6.303   4.576 -1.0438 -0.7028  0.3208
13686TIP3    H262550   1.681   6.249   4.586 -0.4835  0.4680 -0.8518
13687TIP3   OH262551   0.940   3.712   5.958 -0.4598  0.7750  0.0561
13687TIP3    H162552   1.031   3.686   5.943 -0.7340  0.4079 -1.0797
13687TIP3    H262553   0.919   3.677   6.044  0.1497 -0.0724 -0.1299
13688TIP3   OH262554   4.556   2.799  12.130  0.2266 -0.2599  0.3272
13688TIP3    H162555   4.553   2.708  12.099  0.5532 -0.2668  0.3207
13688TIP3    H262556   4.564   2.852  12.051  1.0839 -0.2795  0.3987
13689TIP3   OH262557   1.628   4.000   2.818 -0.3261  0.6085 -0.4592
13689TIP3    H162558   1.559   4.042   2.869  0.4689  2.0320 -0.5228
13689TIP3    H262559   1.618   3.906   2.837 -0.1488  1.0574  2.2001
13690TIP3   OH262560   3.276   2.679  10.280  0.0127 -0.1979  0.0936
13690TIP3    H162561   3.304   2.622  10.209 -1.4763 -1.0535  0.1475
13690TIP3    H262562   3.282   2.625  10.359 -0.3240  0.0865  0.3193
13691TIP3   OH262563   4.457   2.936   0.127  0.3105  0.4017  0.4760
13691TIP3    H162564   4.512   2.981   0.063  0.7887 -0.2402  0.4360
13691TIP3    H262565   4.447   3.000   0.199  0.8924  0.6155  0.3724
13692TIP3   OH262566   0.599   6.123  12.986  0.0576  0.1966 -0.5030
13692TIP3    H162567   0.587   6.033  12.954 -0.3308  0.1808 -0.3130
13692TIP3    H262568   0.513   6.164  12.977  0.3960  0.7724 -1.2605
13693TIP3   OH262569   4.859   2.148  13.431 -0.1529 -0.1112 -0.6630
13693TIP3    H162570   4.904   2.231  13.447  1.9640 -1.1001 -1.1860
13693TIP3    H262571   4.879   2.127  13.340  0.4636 -1.8121 -0.1700
13694TIP3   OH262572   5.282   5.410   4.062 -0.4846 -0.2878  0.5884
13694TIP3    H162573   5.367   5.368   4.073  0.5523  0.8485 -2.1453
13694TIP3    H262574   5.296   5.500   4.090 -0.0298  0.5074 -1.9107
13695TIP3   OH262575   4.776   1.730  12.015 -0.1219  0.0373  0.4298
13695TIP3    H162576   4.689   1.699  12.038 -0.7870  1.6121  0.1782
13695TIP3    H262577   4.831   1.707  12.090 -0.7196 -1.0554  0.5432
13696TIP3   OH262578   3.228   6.395  15.462  0.1248  0.2258 -0.3982
13696TIP3    H162579   3.270   6.434  15.539 -0.7923 -0.5732  0.5409
13696TIP3    H262580   3.203   6.307  15.491  0.7472 -0.4951 -1.9760
13697TIP3   OH262581   3.807   4.608  14.783  0.0673  0.4661  0.5145
13697TIP3    H162582   3.715   4.586  14.768  0.5355 -2.0641  0.9910
13697TIP3    H262583   3.808   4.643  14.873 -0.0798 -2.5067  1.7974
13698TIP3   OH262584   6.496   6.006  16.829 -0.4269  0.4466 -0.0153
13698TIP3    H162585   6.467   5.989  16.740 -0.2086  1.5649 -0.3115
13698TIP3    H262586   6.428   6.063  16.866 -0.7913 -0.4305  0.7276
13699TIP3   OH262587   5.069   2.036   3.732 -0.1112  0.1046  0.3849
13699TIP3    H162588   5.094   2.128   3.729  0.0451  0.0460 -0.5737
13699TIP3    H262589   5.100   2.001   3.648  0.2065 -0.9120  0.9172
13700TIP3   OH262590   6.740   0.534   0.074 -0.5065 -0.0245  0.3071
13700TIP3    H162591   6.784   0.522   0.159 -0.9783  2.0333  0.8949
13700TIP3    H262592   6.810   0.526   0.009  0.2368  0.4253  1.0351
13701TIP3   OH262593   4.021   2.174  11.248 -0.4053  0.3466  0.3527
13701TIP3    H162594   4.096   2.127  11.283 -0.6537  0.4458  1.0474
13701TIP3    H262595   4.036   2.179  11.154  0.1598 -0.1545  0.4156
13702TIP3   OH262596   2.276   2.105   6.200  0.1167  0.3847  0.5360
13702TIP3    H162597   2.287   2.063   6.286  0.0412 -0.8671 -0.0416
13702TIP3    H262598   2.208   2.054   6.157 -0.5217  1.5893  0.0700
13703TIP3   OH262599   6.286   0.854   0.273  0.4043  0.0739  0.4197
13703TIP3    H162600   6.295   0.798   0.196 -0.1179 -2.1502  1.8533
13703TIP3    H262601   6.196   0.886   0.270  0.7169  0.9108 -0.4307
13704TIP3   OH262602   4.539   3.293   4.367 -0.3137 -0.0057  0.2700
13704TIP3    H162603   4.586   3.311   4.286 -1.1898 -0.3590 -0.3278
13704TIP3    H262604   4.608   3.287   4.433  0.2986  1.8844 -0.1260
13705TIP3   OH262605   0.909   3.438  15.591  0.4840  0.0403 -0.1264
13705TIP3    H162606   0.893   3.531  15.579  0.8694  0.2439  0.8871
13705TIP3    H262607   1.003   3.428  15.577  0.4153 -0.2397 -0.4242
13706TIP3   OH262608   5.512   3.489   1.882  0.4427 -0.2656  0.3737
13706TIP3    H162609   5.448   3.520   1.946  1.2629 -1.4068  1.8147
13706TIP3    H262610   5.543   3.405   1.917 -0.2731 -1.8213 -2.3636
13707TIP3   OH262611   3.430   4.440  10.530  0.0653 -0.4978  0.2079
13707TIP3    H162612   3.404   4.525  10.565  1.2005 -0.3071  0.6098
13707TIP3    H262613   3.509   4.458  10.480  0.6063 -1.3859  0.7193
13708TIP3   OH262614   1.264   3.201  14.464 -0.8261  0.0573 -0.1454
13708TIP3    H162615   1.192   3.214  14.403 -1.0157  1.7372  0.4045
13708TIP3    H262616   1.223   3.162  14.541 -1.0811  0.6152  0.0027
13709TIP3   OH262617   5.092   1.072  14.887 -0.4115  0.2503  0.1066
13709TIP3    H162618   4.997   1.064  14.893 -0.5012  0.9781 -0.1594
13709TIP3    H262619   5.106   1.148  14.830  0.3335 -0.6878 -0.9982
13710TIP3   OH262620   1.555   0.665  12.947  0.5665  0.3671 -0.0667
13710TIP3    H162621   1.483   0.727  12.935  0.4716  0.1596 -0.5748
13710TIP3    H262622   1.512   0.579  12.949  1.0072 -0.0092 -3.0151
13711TIP3   OH262623   0.002   3.674  13.112  0.3503  0.6637  0.2552
13711TIP3    H162624  -0.091   3.656  13.099  0.6462 -0.7138 -0.0665
13711TIP3    H262625   0.041   3.664  13.025  0.8158  1.2319  0.3883
13712TIP3   OH262626   2.474   2.038   4.576 -0.1400  0.0807 -0.1978
13712TIP3    H162627   2.400   2.080   4.533  1.6680  0.1862 -3.4733
13712TIP3    H262628   2.542   2.104   4.578  0.8785 -0.9431 -0.0838
13713TIP3   OH262629   6.153   5.150   3.026  0.4564 -0.1888 -0.4114
13713TIP3    H162630   6.140   5.117   3.115  1.2382 -0.9242 -0.5567
13713TIP3    H262631   6.236   5.198   3.030 -0.4474  1.4324 -0.3078
13714TIP3   OH262632   3.863   0.289  14.622  0.0660 -0.1708 -0.0078
13714TIP3    H162633   3.820   0.203  14.617  0.1769 -0.2020 -0.4290
13714TIP3    H262634   3.839   0.332  14.540 -1.1890  0.7673  0.8037
13715TIP3   OH262635   6.137   5.021  14.373 -0.8230  0.6521  0.0038
13715TIP3    H162636   6.061   5.067  14.409 -0.2590  0.8402  1.0125
13715TIP3    H262637   6.213   5.064  14.414 -0.2584 -0.8151  0.5732
13716TIP3   OH262638   5.968   6.799   4.729 -0.0130 -0.1919  0.2347
13716TIP3    H162639   6.018   6.858   4.673 -0.3563  0.1012  0.2303
13716TIP3    H262640   5.881   6.796   4.688  0.2200 -1.3325 -0.2289
13717TIP3   OH262641   0.558   3.867   1.503  0.0110  0.4263 -0.3088
13717TIP3    H162642   0.574   3.886   1.410  0.9037 -1.3415 -0.5494
13717TIP3    H262643   0.562   3.953   1.545  0.7914  1.1365 -1.7445
13718TIP3   OH262644   0.762   4.773  11.491 -0.3360  0.4736 -0.1769
13718TIP3    H162645   0.809   4.736  11.417  2.6004  3.2242  0.0673
13718TIP3    H262646   0.771   4.707  11.561 -0.0198 -0.6053 -1.2119
13719TIP3   OH262647   1.321   5.410   3.112  0.2674  0.0989 -0.3115
13719TIP3    H162648   1.390   5.466   3.148  0.3721 -0.0692 -0.2483
13719TIP3    H262649   1.249   5.418   3.174  0.7325 -0.8208  0.3876
13720TIP3   OH262650   5.383   0.480  14.645 -0.2719  0.8458 -0.2128
13720TIP3    H162651   5.426   0.402  14.609  0.4295  1.4994 -0.8229
13720TIP3    H262652   5.454   0.530  14.686 -0.9426  0.4556  1.5254
13721TIP3   OH262653   2.495   1.567   2.222  0.1907  0.2069 -0.1016
13721TIP3    H162654   2.566   1.632   2.217  0.2005  0.2828  0.8887
13721TIP3    H262655   2.448   1.588   2.302  0.1101 -0.9289  0.1722
13722TIP3   OH262656   2.632   1.867  10.561  0.3578  0.0168 -0.1740
13722TIP3    H162657   2.617   1.902  10.473 -0.8872 -0.1687 -0.0509
13722TIP3    H262658   2.716   1.820  10.554 -0.2711 -0.9694 -1.5616
13723TIP3   OH262659   6.808   5.338   4.603  0.2614 -0.0704 -0.4615
13723TIP3    H162660   6.806   5.421   4.649 -1.2300  0.0729 -0.7317
13723TIP3    H262661   6.721   5.329   4.566  0.3649 -1.8018 -0.3678
13724TIP3   OH262662   2.499   1.760  12.409 -0.0117  0.4710 -0.3444
13724TIP3    H162663   2.588   1.785  12.434 -0.6586  2.2905  0.2990
13724TIP3    H262664   2.485   1.676  12.451  0.5765  1.2953  1.6060
13725TIP3   OH262665   3.834   5.045  12.193 -0.8560  0.1297  0.6177
13725TIP3    H162666   3.869   5.059  12.105 -1.3301 -2.2790 -0.0244
13725TIP3    H262667   3.907   5.006  12.242 -1.2715 -0.7343  0.5723
13726TIP3   OH262668   1.202   3.238   0.292  0.0399  0.6430  0.1707
13726TIP3    H162669   1.295   3.238   0.269 -0.1698  1.4739 -0.7702
13726TIP3    H262670   1.171   3.324   0.263 -1.2536 -0.0208 -0.4884
13727TIP3   OH262671   5.160   5.445  12.202  0.2110 -0.6362  0.2321
13727TIP3    H162672   5.087   5.487  12.248  0.2341 -2.0361  1.6564
13727TIP3    H262673   5.128   5.358  12.180  1.1185 -0.9191 -0.0325
13728TIP3   OH262674   4.411   2.126   1.037  0.1546 -0.5046  0.1516
13728TIP3    H162675   4.382   2.055   1.094  0.2631  0.0816  0.9620
13728TIP3    H262676   4.350   2.197   1.053  0.9700  0.1309  0.5529
13729TIP3   OH262677   1.209   4.668  16.066  0.5157 -0.5672  0.4174
13729TIP3    H162678   1.118   4.646  16.045  0.4572  0.6706 -0.7931
13729TIP3    H262679   1.259   4.592  16.038  0.0534 -0.3662 -1.0369
13730TIP3   OH262680   6.345   4.038   4.168  0.2747 -0.4943 -0.3129
13730TIP3    H162681   6.293   3.959   4.187 -1.6054  0.3955 -1.4699
13730TIP3    H262682   6.391   4.057   4.250 -2.4172 -0.4906  1.3274
13731TIP3   OH262683   2.046   1.812   0.113  0.4535 -0.0197  0.0213
13731TIP3    H162684   2.062   1.804   0.207 -1.2021 -1.0921  0.2569
13731TIP3    H262685   1.955   1.785   0.102  0.9431 -1.0590 -2.0359
13732TIP3   OH262686   1.949   3.556   1.895 -0.2529 -0.0838 -0.2801
13732TIP3    H162687   1.977   3.643   1.868 -1.1041  0.6557  1.0726
13732TIP3    H262688   1.957   3.556   1.991  0.1939 -1.6708 -0.2814
13733TIP3   OH262689   4.315   2.163  16.912  0.6815 -0.2789  0.1470
13733TIP3    H162690   4.222   2.166  16.891  0.4523 -2.2213  0.6213
13733TIP3    H262691   4.349   2.249  16.888 -1.2000  0.4152 -0.1649
13734TIP3   OH262692   4.248   3.060  16.125  0.6203  0.1909  0.3374
13734TIP3    H162693   4.226   2.970  16.148 -1.0050  0.3083 -0.6530
13734TIP3    H262694   4.341   3.068  16.146  1.3116 -2.3145 -1.3244
13735TIP3   OH262695   0.153   5.360   0.036 -0.6138 -0.1014  0.3325
13735TIP3    H162696   0.174   5.303  -0.038  0.1172  0.5440  0.0256
13735TIP3    H262697   0.232   5.357   0.091 -1.1341 -0.5459  1.0708
13736TIP3   OH262698   0.382   5.460  11.133  0.4025 -0.4677  0.1879
13736TIP3    H162699   0.397   5.483  11.041 -1.8204  1.5617  0.2369
13736TIP3    H262700   0.461   5.412  11.159  1.8004  0.2919 -2.3264
13737TIP3   OH262701   4.699   6.397  14.180 -0.3659  0.5901 -0.4377
13737TIP3    H162702   4.645   6.438  14.247 -0.6894  1.2960 -1.1084
13737TIP3    H262703   4.636   6.365  14.115 -0.0006  1.6831 -1.3784
13738TIP3   OH262704   1.979   0.345  17.176 -0.6681 -0.3492 -0.2532
13738TIP3    H162705   2.042   0.401  17.222 -0.0170 -0.0144 -1.5265
13738TIP3    H262706   2.017   0.257  17.182  0.7174  0.0634 -2.2857
13739TIP3   OH262707   5.116   4.665   4.662 -0.1890  1.0070  0.0774
13739TIP3    H162708   5.034   4.712   4.645 -0.9793  0.2510  1.6263
13739TIP3    H262709   5.111   4.642   4.754 -0.2782 -2.9221 -0.7539
13740TIP3   OH262710   2.795   5.361  14.586  0.3654 -0.3323 -0.0206
13740TIP3    H162711   2.756   5.447  14.598  0.1322 -0.3596 -0.5599
13740TIP3    H262712   2.889   5.378  14.574  0.5436 -0.2741  1.3493
13741TIP3   OH262713   6.210   0.834  16.968  0.2040  0.2456  0.2802
13741TIP3    H162714   6.232   0.758  17.022  4.4032  0.8010 -0.2978
13741TIP3    H262715   6.192   0.798  16.881  0.0486 -0.1858  0.4890
13742TIP3   OH262716   3.105   0.776  13.510 -0.6239 -0.1382 -0.3786
13742TIP3    H162717   3.018   0.785  13.473 -0.7743 -0.0269 -0.0071
13742TIP3    H262718   3.130   0.685  13.495 -1.6584 -0.7519  1.3421
13743TIP3   OH262719   1.065   0.727   0.908  0.1100  0.5911  0.2667
13743TIP3    H162720   1.034   0.642   0.878 -1.9778  0.9466  1.1908
13743TIP3    H262721   1.076   0.779   0.828  1.0142 -0.3993 -0.2712
13744TIP3   OH262722   5.807   6.709   2.790 -0.4799  0.1853  0.1165
13744TIP3    H162723   5.747   6.778   2.763 -1.4500 -0.7080 -0.0609
13744TIP3    H262724   5.756   6.655   2.850  0.1663 -0.5511  0.0165
13745TIP3   OH262725   2.571   2.952   4.580 -0.1651  0.1401  0.9237
13745TIP3    H162726   2.609   3.039   4.586  0.4876  0.0607 -1.4086
13745TIP3    H262727   2.646   2.894   4.563 -0.9936 -0.2990 -1.6100
13746TIP3   OH262728   2.434   4.108  12.556  0.1769 -0.3131 -0.7409
13746TIP3    H162729   2.527   4.124  12.573  0.1684 -0.2658 -0.7408
13746TIP3    H262730   2.415   4.161  12.478 -0.3375  1.2579  0.4028
13747TIP3   OH262731   1.081   1.361   3.946  0.3048 -0.1056  0.2221
13747TIP3    H162732   1.017   1.291   3.932  0.7292 -0.2683 -1.0913
13747TIP3    H262733   1.044   1.436   3.901  0.6034  0.0558  0.2448
13748TIP3   OH262734   4.991   0.887  11.295 -0.0342  0.0070 -0.3991
13748TIP3    H162735   5.064   0.946  11.278 -0.4445  0.2975 -1.1694
13748TIP3    H262736   5.032   0.802  11.311  0.5162  0.3453  0.0322
13749TIP3   OH262737   5.390   3.821  13.134  0.5925  0.0605 -0.1554
13749TIP3    H162738   5.462   3.867  13.091 -1.1654  2.3003 -0.9196
13749TIP3    H262739   5.429   3.781  13.211  3.1057 -0.8701 -1.7671
13750TIP3   OH262740   5.715   3.366  15.707  0.1048  0.1203 -0.4782
13750TIP3    H162741   5.800   3.372  15.663 -0.3773 -1.3909 -1.7270
13750TIP3    H262742   5.731   3.312  15.784  0.4179  0.4374 -0.3217
13751TIP3   OH262743   2.787   6.238  16.746 -0.5193 -0.3202  0.1907
13751TIP3    H162744   2.706   6.204  16.708 -0.2654  1.5607 -2.2520
13751TIP3    H262745   2.766   6.327  16.774  0.7122  0.3087 -0.7489
13752TIP3   OH262746   0.591   0.256   3.941  0.0924  0.2529 -0.5941
13752TIP3    H162747   0.588   0.244   4.036  2.5605  0.8251 -0.3716
13752TIP3    H262748   0.613   0.349   3.930 -1.0037  0.3995 -1.7763
13753TIP3   OH262749   1.022   3.954   6.638 -0.5403 -0.1745 -0.2288
13753TIP3    H162750   0.965   4.030   6.647  1.8508  1.5552  1.6376
13753TIP3    H262751   1.095   3.985   6.584 -0.2583 -1.6180 -0.7110
13754TIP3   OH262752   4.894   3.125   6.343 -0.0970 -0.9215  0.4749
13754TIP3    H162753   4.875   3.127   6.250  1.0275  0.5903  0.2460
13754TIP3    H262754   4.988   3.144   6.349 -0.3745  0.1722  1.9648
13755TIP3   OH262755   6.339   4.923  15.587  0.0895  0.5156  0.2703
13755TIP3    H162756   6.413   4.972  15.623  0.6793 -0.4567  0.4544
13755TIP3    H262757   6.368   4.831  15.590 -1.1816  0.0978  0.4643
13756TIP3   OH262758   5.159   0.643  12.358 -0.1365  0.1718 -0.5679
13756TIP3    H162759   5.082   0.638  12.415 -1.2860 -2.9200 -2.1327
13756TIP3    H262760   5.127   0.685  12.278  0.0981 -0.0940 -0.8019
13757TIP3   OH262761   3.587   4.573  11.328  0.3156  0.7411  0.2225
13757TIP3    H162762   3.562   4.535  11.244 -1.2837  0.3829  0.8163
13757TIP3    H262763   3.552   4.512  11.393  1.4819  1.0268  1.1627
13758TIP3   OH262764   3.528   5.580   5.722  0.0139 -0.4982  0.3295
13758TIP3    H162765   3.524   5.485   5.717 -0.7366 -0.4469 -0.1750
13758TIP3    H262766   3.611   5.598   5.766  0.4163 -1.3677 -0.0484
13759TIP3   OH262767   6.667   2.265   2.468 -0.2467 -0.0552  0.0144
13759TIP3    H162768   6.678   2.335   2.403 -3.8396  0.8779  0.2078
13759TIP3    H262769   6.698   2.303   2.550 -1.8505  1.3120  0.0501
13760TIP3   OH262770   3.668   4.084   4.006 -0.2444 -0.0435 -0.1985
13760TIP3    H162771   3.735   4.092   4.074  0.9274  1.3547 -1.4489
13760TIP3    H262772   3.586   4.077   4.054  0.7286 -1.3411  1.3793
13761TIP3   OH262773   4.651   4.730   5.204  0.0290  0.4741  0.1732
13761TIP3    H162774   4.692   4.713   5.119  0.0743 -0.2000  0.3280
13761TIP3    H262775   4.589   4.801   5.186 -0.0496  0.2564 -0.4549
13762TIP3   OH262776   6.149   4.638  14.186 -0.0751 -0.1887  0.0882
13762TIP3    H162777   6.120   4.727  14.166 -0.0245 -0.3785 -0.8634
13762TIP3    H262778   6.242   4.637  14.163 -0.3951 -0.8759 -1.3142
13763TIP3   OH262779   4.749   6.080   1.944  0.1596 -0.4076  0.0655
13763TIP3    H162780   4.747   6.008   2.007  2.3357  0.0363  0.7053
13763TIP3    H262781   4.727   6.158   1.996 -2.7354 -0.5547 -0.7240
13764TIP3   OH262782   2.810   3.680   1.725 -0.1273 -0.0081 -0.0148
13764TIP3    H162783   2.727   3.673   1.770  0.1888  0.5078  0.6635
13764TIP3    H262784   2.825   3.774   1.715  0.5047 -0.0860  0.1296
13765TIP3   OH262785   5.868   3.680  11.672  0.2450 -0.7586 -0.3234
13765TIP3    H162786   5.880   3.650  11.582 -0.8987  0.4563 -0.9100
13765TIP3    H262787   5.933   3.750  11.683 -1.2704  0.8336 -1.0863
13766TIP3   OH262788   1.850   3.960  13.128  0.0570 -0.4915  0.0187
13766TIP3    H162789   1.831   4.051  13.152 -0.1105 -0.8681  1.3586
13766TIP3    H262790   1.911   3.930  13.194 -0.0840 -1.4406 -0.2707
13767TIP3   OH262791   0.897   3.241  16.300 -0.0878  0.2347  0.0170
13767TIP3    H162792   0.807   3.273  16.310 -0.5997 -1.1363 -0.0125
13767TIP3    H262793   0.952   3.319  16.313 -1.2249  0.8637  1.2041
13768TIP3   OH262794   6.058   5.905   2.003  0.1210  0.8593  0.0927
13768TIP3    H162795   6.077   5.841   2.071 -0.4406  0.0433 -0.5008
13768TIP3    H262796   6.134   5.902   1.945 -0.8132 -0.8711 -1.1216
13769TIP3   OH262797   2.806   5.853  10.754  0.4776 -0.4390  0.4286
13769TIP3    H162798   2.718   5.891  10.764  0.2813 -0.2470 -1.5905
13769TIP3    H262799   2.858   5.925  10.718  1.1824 -0.8962  0.5245
13770TIP3   OH262800   6.064   2.573  12.107  0.2219  0.6022 -0.2998
13770TIP3    H162801   6.050   2.630  12.183  0.5066  2.9024 -1.8759
13770TIP3    H262802   5.995   2.599  12.045  0.4171 -0.7298 -1.1055
13771TIP3   OH262803   3.455   6.024  15.451  0.5245  0.0850 -0.6026
13771TIP3    H162804   3.426   6.098  15.397 -0.9003 -0.0430 -0.0629
13771TIP3    H262805   3.468   6.062  15.538 -1.5314 -0.4880  0.0143
13772TIP3   OH262806   1.750   5.468  15.012 -0.1513 -0.1762 -0.1592
13772TIP3    H162807   1.771   5.400  15.076  0.9248 -0.7058 -1.0270
13772TIP3    H262808   1.721   5.420  14.935 -1.7563  0.4676  0.0140
13773TIP3   OH262809   4.814   6.468  13.302  0.0317  0.7413 -1.5068
13773TIP3    H162810   4.739   6.408  13.298 -0.5745  1.1840  1.2009
13773TIP3    H262811   4.775   6.554  13.318  1.0307  1.4431 -2.6613
13774TIP3   OH262812   0.456   6.229  14.428 -0.1698 -0.1230  0.5254
13774TIP3    H162813   0.543   6.215  14.465 -0.5001 -0.2948  1.2512
13774TIP3    H262814   0.397   6.179  14.484 -0.7798  0.2682  0.2499
13775TIP3   OH262815   5.412   2.831  16.053 -0.2639  0.3582 -0.0887
13775TIP3    H162816   5.500   2.793  16.061 -0.0195  0.8918 -0.1783
13775TIP3    H262817   5.360   2.763  16.012 -0.5078 -0.9113  2.1403
13776TIP3   OH262818   0.191   1.712  16.159  0.4559 -0.0362  0.3340
13776TIP3    H162819   0.100   1.685  16.168  0.8347 -0.9301  1.7074
13776TIP3    H262820   0.216   1.744  16.245  0.9375  1.9096 -0.4838
13777TIP3   OH262821   4.311   0.836  15.044  0.5218 -0.2021 -0.6771
13777TIP3    H162822   4.355   0.916  15.070  0.2210 -0.6235  1.2902
13777TIP3    H262823   4.351   0.768  15.098 -2.3285 -0.6321  1.1170
13778TIP3   OH262824   3.281   0.727  15.450 -0.4290  0.5960 -0.2603
13778TIP3    H162825   3.264   0.800  15.389 -0.3238  1.5512  0.8169
13778TIP3    H262826   3.325   0.769  15.524  1.5055 -0.8875 -0.4874
13779TIP3   OH262827   0.210   2.342   5.292  0.2445  0.5884  0.2456
13779TIP3    H162828   0.158   2.262   5.289  0.4740  0.3022  2.4117
13779TIP3    H262829   0.288   2.321   5.240 -0.9227  0.4083 -1.5110
13780TIP3   OH262830   5.961   3.354  16.550 -0.5524 -0.0866  0.3561
13780TIP3    H162831   6.009   3.430  16.585  1.6016  0.2664 -2.9659
13780TIP3    H262832   6.011   3.278  16.580  0.1114  0.0908 -0.2980
13781TIP3   OH262833   6.683   1.575  14.329 -0.3894 -0.1863 -0.5124
13781TIP3    H162834   6.664   1.553  14.238  1.8360 -1.9559 -0.6221
13781TIP3    H262835   6.772   1.608  14.328 -0.5483  0.4006  0.9768
13782TIP3   OH262836   0.094   2.043   4.448 -0.4808  0.4125 -0.0839
13782TIP3    H162837   0.139   2.127   4.439 -0.9521  0.6768 -0.0103
13782TIP3    H262838   0.025   2.059   4.512 -0.8718  0.0895 -0.4162
13783TIP3   OH262839   4.088   5.376   2.394 -0.0073 -0.4876 -0.0448
13783TIP3    H162840   3.994   5.373   2.375  0.3759  0.8256 -2.5499
13783TIP3    H262841   4.125   5.302   2.346  0.2895 -0.8256  0.6919
13784TIP3   OH262842   3.437   5.285  12.907  0.1136 -0.2859  0.1236
13784TIP3    H162843   3.360   5.316  12.956  0.8007 -0.9832  1.7487
13784TIP3    H262844   3.400   5.229  12.838 -0.8596 -0.6689  0.9168
13785TIP3   OH262845   1.237   6.257   5.138  0.2788  0.2619  0.2636
13785TIP3    H162846   1.246   6.343   5.179  2.0580 -0.0344  0.5944
13785TIP3    H262847   1.229   6.196   5.211 -1.4015  0.1579  0.0197
13786TIP3   OH262848   6.351   0.085  12.570  0.5335 -0.2963  0.2255
13786TIP3    H162849   6.364  -0.009  12.557  2.6121 -0.1192  0.6997
13786TIP3    H262850   6.408   0.107  12.643 -0.0174  1.3251  0.2035
13787TIP3   OH262851   0.113   6.586  13.157 -0.7053  0.3793 -0.1696
13787TIP3    H162852   0.057   6.509  13.149 -0.5713  0.3282 -0.5893
13787TIP3    H262853   0.190   6.555  13.205  0.6354 -0.4366 -2.6819
13788TIP3   OH262854   0.302   6.409   1.939  0.1623  0.1877  0.8110
13788TIP3    H162855   0.259   6.325   1.954  0.5681  0.0393  1.1549
13788TIP3    H262856   0.395   6.392   1.954  0.2473  0.6957  0.8820
13789TIP3   OH262857   0.233   1.901  15.255 -0.4871  0.1093 -0.1741
13789TIP3    H162858   0.312   1.913  15.309 -0.7648 -0.6972  0.4357
13789TIP3    H262859   0.264   1.911  15.165 -0.0881  1.8731  0.1165
13790TIP3   OH262860   6.172   1.180  10.983  0.7732  0.7263 -0.1037
13790TIP3    H162861   6.172   1.253  10.922 -2.8313  0.5883 -0.4328
13790TIP3    H262862   6.164   1.102  10.927  0.6171  0.3561  0.4253
13791TIP3   OH262863   1.489   6.744   2.558  0.4698  0.2555 -0.0337
13791TIP3    H162864   1.396   6.731   2.578  0.8167 -2.2524  0.2679
13791TIP3    H262865   1.534   6.718   2.638  1.4849  0.2500 -0.6017
13792TIP3   OH262866   4.040   6.131   3.285 -0.2002  0.2295  0.0587
13792TIP3    H162867   3.976   6.069   3.250  1.4912 -0.0869 -2.8810
13792TIP3    H262868   4.090   6.080   3.349 -0.3583 -0.7707 -0.5765
13793TIP3   OH262869   0.794   4.922   2.170  0.4354  1.3829 -0.1018
13793TIP3    H162870   0.750   4.892   2.090  0.4459  0.3926  0.2506
13793TIP3    H262871   0.808   5.016   2.156 -2.0895  1.8351 -0.0851
13794TIP3   OH262872   2.470   1.299   2.526 -0.3481 -0.6395  0.0884
13794TIP3    H162873   2.514   1.259   2.601  0.6991 -0.3819 -0.3701
13794TIP3    H262874   2.520   1.270   2.450  0.0825  1.0132 -0.3126
13795TIP3   OH262875   5.008   5.565  15.621  0.9841 -0.1494  0.1284
13795TIP3    H162876   5.041   5.500  15.559 -0.9177 -2.4782  1.3982
13795TIP3    H262877   5.085   5.592  15.671  1.8091 -1.6010 -0.3092
13796TIP3   OH262878   2.247   5.393  13.034 -0.5332 -0.5629 -0.4323
13796TIP3    H162879   2.185   5.353  12.972 -1.4574 -1.4648  1.0017
13796TIP3    H262880   2.250   5.485  13.007 -0.9578 -0.9019 -1.7621
13797TIP3   OH262881   0.806   4.854  15.075  0.2100  0.7584 -0.7692
13797TIP3    H162882   0.721   4.873  15.036  0.6396  1.6114 -1.3338
13797TIP3    H262883   0.823   4.929  15.132  0.1546  0.1225  0.0999
13798TIP3   OH262884   5.915   3.631  11.385 -0.2249 -0.1616 -0.4529
13798TIP3    H162885   5.847   3.574  11.422  0.3040  1.4094  3.5051
13798TIP3    H262886   5.986   3.571  11.362 -0.8923 -1.4013  0.5325
13799TIP3   OH262887   2.820   5.716  13.127 -0.2424  0.1505 -0.2466
13799TIP3    H162888   2.797   5.669  13.047  0.2234  0.4610 -0.5668
13799TIP3    H262889   2.824   5.808  13.101  1.6140  0.0998 -0.2814
13800TIP3   OH262890   2.816   4.896  13.392 -0.4862  0.1551 -0.2769
13800TIP3    H162891   2.858   4.854  13.467  0.4690  0.9562 -0.3352
13800TIP3    H262892   2.811   4.989  13.417  0.8418  0.6324 -1.5904
13801TIP3   OH262893   4.793   0.110  17.220 -0.1893  0.0260  0.6715
13801TIP3    H162894   4.733   0.184  17.213  0.5598  0.6912  1.0734
13801TIP3    H262895   4.736   0.035  17.240 -0.9716  0.4547  0.1069
13802TIP3   OH262896   3.497   5.466  11.515  0.7509 -0.0242  0.1845
13802TIP3    H162897   3.429   5.419  11.563 -1.0706  2.4943  0.2592
13802TIP3    H262898   3.488   5.435  11.424 -0.2009 -0.0441  0.2783
13803TIP3   OH262899   4.617   0.982   1.819 -0.1213 -0.4927  0.1259
13803TIP3    H162900   4.668   1.008   1.742 -0.5388  0.4003  0.1443
13803TIP3    H262901   4.660   1.026   1.893 -1.2301  0.7354  0.0706
13804TIP3   OH262902   4.313   0.990  12.154 -0.2028 -0.4397 -0.0612
13804TIP3    H162903   4.391   1.043  12.171 -0.3712 -0.2776  0.2103
13804TIP3    H262904   4.241   1.041  12.190 -0.6791  0.2814 -1.9313
13805TIP3   OH262905   5.389   5.808  12.199 -0.1840 -0.2507 -0.3747
13805TIP3    H162906   5.432   5.891  12.174 -0.5653  0.8334  2.2542
13805TIP3    H262907   5.364   5.768  12.116  0.8834  1.8076 -1.7718
13806TIP3   OH262908   4.036   3.565  14.490 -0.2772 -1.2632 -0.3998
13806TIP3    H162909   3.972   3.636  14.489  1.8643  0.9228  2.2538
13806TIP3    H262910   4.107   3.596  14.434  0.2407 -1.8065 -0.0548
13807TIP3   OH262911   5.565   4.146  11.213  0.2162 -0.1429 -0.0444
13807TIP3    H162912   5.510   4.129  11.136  1.2458  1.5926 -1.2392
13807TIP3    H262913   5.506   4.135  11.287 -1.8911  1.8482 -1.2742
13808TIP3   OH262914   6.140   4.464   3.319  0.5101 -0.3740 -0.4483
13808TIP3    H162915   6.189   4.386   3.344 -0.7600 -1.3303 -0.8354
13808TIP3    H262916   6.069   4.431   3.264  0.3265  1.1317 -1.1586
13809TIP3   OH262917   6.688   1.084  13.225 -0.4972 -0.2916  0.3808
13809TIP3    H162918   6.599   1.101  13.193 -0.0516 -1.7107 -1.8630
13809TIP3    H262919   6.732   1.169  13.217 -1.2982  0.1296  0.2995
13810TIP3   OH262920   3.587   2.650  16.734  0.0351 -0.0257 -0.1461
13810TIP3    H162921   3.590   2.559  16.763 -0.6177 -0.3794 -1.1410
13810TIP3    H262922   3.678   2.670  16.710  0.6418  0.3513  2.2392
13811TIP3   OH262923   5.165   4.557  12.842  0.4591  0.0968  0.4372
13811TIP3    H162924   5.214   4.637  12.827  0.1647  0.0808 -0.6686
13811TIP3    H262925   5.131   4.566  12.931  2.0781  0.2999  1.0733
13812TIP3   OH262926   2.569   1.048   2.680  0.2489  0.6126  0.5061
13812TIP3    H162927   2.589   0.980   2.615  0.9774  0.3097  1.0227
13812TIP3    H262928   2.655   1.071   2.717 -0.1841  0.3883  1.7197
13813TIP3   OH262929   5.017   2.709  12.802 -0.3987 -0.2438 -0.5944
13813TIP3    H162930   5.041   2.785  12.855 -0.3351 -1.0330  0.5329
13813TIP3    H262931   4.921   2.712  12.798 -0.6019 -1.5403  1.7076
13814TIP3   OH262932   4.245   4.797  15.708 -0.2436 -0.0244 -1.3044
13814TIP3    H162933   4.203   4.850  15.776 -0.3865  0.6450 -1.9071
13814TIP3    H262934   4.338   4.818  15.716 -0.2180 -0.1998 -1.1068
13815TIP3   OH262935   0.738   0.231   1.363  0.0512  0.1668 -0.7838
13815TIP3    H162936   0.765   0.193   1.280  1.9763 -0.2480 -0.0372
13815TIP3    H262937   0.750   0.161   1.427 -0.5098  0.7488 -0.0189
13816TIP3   OH262938   6.555   2.084  13.045  0.6778 -0.3728 -0.2951
13816TIP3    H162939   6.484   2.028  13.011  0.1580  0.1537 -0.1019
13816TIP3    H262940   6.592   2.125  12.967  2.2110 -2.2402 -0.6505
13817TIP3   OH262941   4.874   0.573  16.020 -0.7352  0.2296 -0.0892
13817TIP3    H162942   4.822   0.639  16.066 -1.7233  0.9590 -2.1409
13817TIP3    H262943   4.815   0.498  16.010 -1.3398  0.9137 -2.0784
13818TIP3   OH262944   4.132   6.678  12.402  0.1801 -0.1095  0.3201
13818TIP3    H162945   4.165   6.637  12.482  0.8886 -0.5008 -0.1542
13818TIP3    H262946   4.211   6.694  12.350  0.2450  3.7635  1.2962
13819TIP3   OH262947   3.087   2.163  12.416 -0.0816 -0.2921  0.3712
13819TIP3    H162948   3.116   2.116  12.337 -2.4163 -1.1529 -0.0781
13819TIP3    H262949   3.094   2.256  12.392 -4.6358 -0.3886 -2.7060
13820TIP3   OH262950   4.156   5.248  14.056 -0.7938  0.0111  0.2974
13820TIP3    H162951   4.246   5.236  14.029 -1.3720 -0.8864 -1.3725
13820TIP3    H262952   4.144   5.187  14.130 -0.4729 -1.1517 -0.5760
13821TIP3   OH262953   5.423   4.861  12.576 -0.1915 -0.0376  0.6147
13821TIP3    H162954   5.360   4.930  12.553 -1.2157 -1.4537 -1.0399
13821TIP3    H262955   5.509   4.901  12.560 -0.7523  1.0151  0.1413
13822TIP3   OH262956   5.104   4.050  15.678  0.1926 -0.6132  0.2577
13822TIP3    H162957   5.085   3.989  15.607 -0.5363 -2.3221  1.8107
13822TIP3    H262958   5.191   4.024  15.709  0.1985 -0.3743  0.4460
13823TIP3   OH262959   3.807   3.218   4.141 -0.1315  0.1062 -0.5351
13823TIP3    H162960   3.718   3.194   4.115  0.3600 -0.0562 -2.2056
13823TIP3    H262961   3.808   3.314   4.135 -0.3289  0.1373 -0.0536
13824TIP3   OH262962   1.707   2.883   5.823 -1.0362  0.1669  0.0125
13824TIP3    H162963   1.663   2.821   5.881 -2.0963  1.7333  0.9530
13824TIP3    H262964   1.685   2.853   5.735  2.4249 -3.6179  0.1026
13825TIP3   OH262965   6.676   1.169  15.559 -0.6820 -0.4017 -0.1460
13825TIP3    H162966   6.611   1.100  15.554 -0.0222 -0.9965 -0.6950
13825TIP3    H262967   6.721   1.154  15.642 -0.2577 -0.8965 -0.4609
13826TIP3   OH262968   3.473   0.196  14.715 -0.5118 -0.5352  0.3641
13826TIP3    H162969   3.470   0.110  14.674 -1.4112 -1.5699  2.4443
13826TIP3    H262970   3.416   0.251  14.661  0.2392 -1.1676 -1.1054
13827TIP3   OH262971   2.880   2.622  16.485 -0.6036  0.1602  0.0270
13827TIP3    H162972   2.823   2.676  16.539  0.9653  1.2085  0.6985
13827TIP3    H262973   2.968   2.642  16.515  0.2121 -0.5399 -1.7487
13828TIP3   OH262974   3.034   1.747  17.145  0.0860  0.2277  0.3990
13828TIP3    H162975   3.100   1.816  17.134 -1.3050  1.7613  1.3312
13828TIP3    H262976   2.954   1.783  17.107 -0.9183 -0.4693  1.7662
13829TIP3   OH262977   1.112   2.873  12.891 -0.0655 -0.5679 -0.8898
13829TIP3    H162978   1.035   2.928  12.898 -0.0060 -0.6133  0.4156
13829TIP3    H262979   1.078   2.784  12.887 -0.0903 -0.6928  1.0952
13830TIP3   OH262980   4.661   4.497  10.812 -0.1205 -0.0549  0.1318
13830TIP3    H162981   4.682   4.404  10.823  0.0362 -0.1882 -1.1667
13830TIP3    H262982   4.713   4.524  10.737 -1.3410  0.6993 -0.4639
13831TIP3   OH262983   6.229   4.957   1.837  0.1354  0.0865 -1.1323
13831TIP3    H162984   6.135   4.941   1.850  0.5065 -1.0677  0.4189
13831TIP3    H262985   6.234   5.046   1.802 -1.3610  1.9478  2.7952
13832TIP3   OH262986   4.409   1.540  15.987 -0.1687  0.0332  0.6654
13832TIP3    H162987   4.337   1.494  15.943  0.3330  0.5198 -0.7149
13832TIP3    H262988   4.472   1.471  16.009  0.6608  0.0005 -1.5388
13833TIP3   OH262989   4.281   2.098  15.807  0.0780  0.1108 -0.4594
13833TIP3    H162990   4.327   2.020  15.840  1.7497  1.2282 -0.0235
13833TIP3    H262991   4.351   2.155  15.775 -1.2157  0.7987 -2.2461
13834TIP3   OH262992   6.540   2.431  15.302  0.7144  0.0230 -0.1617
13834TIP3    H162993   6.574   2.342  15.314  0.4772 -0.0922 -0.3516
13834TIP3    H262994   6.544   2.446  15.208 -1.9304 -0.8588 -0.4897
13835TIP3   OH262995   3.502   2.122  13.412 -0.5981 -0.5017 -0.5386
13835TIP3    H162996   3.447   2.054  13.373  0.1210 -1.4658  0.0893
13835TIP3    H262997   3.584   2.118  13.362 -0.2036 -0.7547  0.1264
13836TIP3   OH262998   2.776   1.209  15.013 -0.2233 -0.6211  0.5285
13836TIP3    H162999   2.758   1.153  14.937 -0.1764  1.3131 -0.9778
13836TIP3    H263000   2.741   1.294  14.989  1.8416  0.6586  1.7161
13837TIP3   OH263001   6.745   5.562  17.225 -0.5379 -0.0310 -0.6601
13837TIP3    H163002   6.817   5.511  17.262 -0.7281 -1.0750 -1.6697
13837TIP3    H263003   6.786   5.620  17.161 -0.2525  1.5324  0.8668
13838TIP3   OH263004   1.327   1.207  14.028  0.3166 -0.0418 -0.2098
13838TIP3    H163005   1.404   1.201  13.972 -0.6169  0.0869 -1.5372
13838TIP3    H263006   1.255   1.172  13.975 -0.3512 -1.2517  1.4088
13839TIP3   OH263007   5.584   5.006   3.503  0.2370  0.4116 -0.3364
13839TIP3    H163008   5.495   5.016   3.535  1.0600  0.4816  2.1625
13839TIP3    H263009   5.631   5.082   3.537  1.4866 -0.1776 -0.6765
13840TIP3   OH263010   0.855   6.414   2.134  0.8463 -0.4144 -0.8864
13840TIP3    H163011   0.868   6.335   2.186 -0.7598 -0.3432 -0.3124
13840TIP3    H263012   0.806   6.385   2.057 -0.8508  0.1378 -0.0855
13841TIP3   OH263013   0.035   5.957   5.213 -0.0943 -0.2403  0.0393
13841TIP3    H163014   0.040   6.043   5.256  1.3055  0.2224 -0.9710
13841TIP3    H263015   0.101   5.961   5.143 -0.1615 -2.0626 -0.1826
13842TIP3   OH263016   5.848   3.098   0.711  0.5625  0.2203 -0.0606
13842TIP3    H163017   5.860   3.003   0.710  1.6933  0.3445  0.3394
13842TIP3    H263018   5.853   3.124   0.619  0.8136 -0.0417 -0.1224
13843TIP3   OH263019   1.338   2.983  16.280  0.1246 -0.7638  0.0174
13843TIP3    H163020   1.260   3.019  16.321 -0.5473 -1.0815 -0.9362
13843TIP3    H263021   1.328   3.004  16.187  1.3568 -0.4942 -0.0800
13844TIP3   OH263022   5.002   2.739  13.362  0.0367 -0.3593  0.9454
13844TIP3    H163023   4.911   2.720  13.339  0.4610 -2.3707  0.7173
13844TIP3    H263024   5.020   2.823  13.321 -1.6506 -0.0056  0.8384
13845TIP3   OH263025   1.046   6.637  13.774  0.1059  0.4801  0.3594
13845TIP3    H163026   1.012   6.719  13.738 -0.9662  0.5145  1.4222
13845TIP3    H263027   1.037   6.574  13.702  0.4315  1.1466 -0.2835
13846TIP3   OH263028   1.516   5.979  16.691  0.1806 -0.2802  0.4047
13846TIP3    H163029   1.507   5.977  16.786 -0.6362 -1.3276  0.3238
13846TIP3    H263030   1.585   6.044  16.675  0.1462  0.1044  1.6863
13847TIP3   OH263031   2.035   5.881   3.110 -0.1123  0.7752  0.0791
13847TIP3    H163032   1.985   5.805   3.142  0.6325  0.7919  1.3417
13847TIP3    H263033   2.006   5.892   3.019 -0.4274 -0.8691 -0.0555
13848TIP3   OH263034   0.802   3.978   4.975  0.2840  0.3513  0.1875
13848TIP3    H163035   0.780   4.070   4.986  0.2961  0.2233  1.4275
13848TIP3    H263036   0.888   3.978   4.933 -0.2654  0.8774 -0.9855
13849TIP3   OH263037   6.202   4.973  11.445  0.0476 -0.3535 -0.8982
13849TIP3    H163038   6.271   4.955  11.383  0.0158 -6.1927  0.2527
13849TIP3    H263039   6.248   4.998  11.526  0.3183  1.9299 -1.6847
13850TIP3   OH263040   4.805   2.344   0.161 -0.0843 -0.7509  0.0225
13850TIP3    H163041   4.817   2.416   0.224  0.8830  0.2711 -1.2772
13850TIP3    H263042   4.760   2.276   0.211 -1.9513  1.1239  1.0592
13851TIP3   OH263043   5.718   5.219  16.500  0.2922  0.3651  0.2351
13851TIP3    H163044   5.774   5.203  16.576 -0.9278 -1.7321  0.7507
13851TIP3    H263045   5.771   5.192  16.425 -0.0983 -1.9916  0.7479
13852TIP3   OH263046   5.596   1.788   2.258 -0.1919  0.4700 -0.4272
13852TIP3    H163047   5.655   1.838   2.313  1.5725 -1.5119 -0.3980
13852TIP3    H263048   5.642   1.780   2.174  0.7533 -2.9757  0.2768
13853TIP3   OH263049   5.638   6.616   5.015  0.3309  0.8756  0.3191
13853TIP3    H163050   5.620   6.548   4.950  1.6785 -0.6027  1.4243
13853TIP3    H263051   5.722   6.653   4.988  0.1933  1.2663  0.4170
13854TIP3   OH263052   0.781   6.089   3.707  0.2206  0.7309 -0.1521
13854TIP3    H163053   0.748   6.041   3.783 -1.6011  2.1132 -0.0145
13854TIP3    H263054   0.778   6.181   3.733 -0.0865  1.2074 -1.7592
13855TIP3   OH263055   6.461   2.074   3.576  0.0105  0.2074  0.1454
13855TIP3    H163056   6.512   2.140   3.625  0.1064  0.0491  0.2611
13855TIP3    H263057   6.472   2.099   3.484  0.6201 -0.0500  0.1419
13856TIP3   OH263058   6.404   4.206  15.457  0.5794  0.1560 -0.5175
13856TIP3    H163059   6.488   4.216  15.412  1.2574 -2.4118  0.0086
13856TIP3    H263060   6.409   4.119  15.497 -3.5044 -1.4028 -2.9095
13857TIP3   OH263061   1.283   5.202   4.423 -0.1033 -0.1196  0.1065
13857TIP3    H163062   1.266   5.244   4.507  0.3521  1.3575 -0.5102
13857TIP3    H263063   1.362   5.149   4.439 -1.1236 -1.3946  1.0894
13858TIP3   OH263064   0.879   4.277  12.358 -0.6671  0.4490  0.1087
13858TIP3    H163065   0.872   4.199  12.413 -0.3700  1.0985  1.0957
13858TIP3    H263066   0.849   4.349  12.413  0.5112  1.2572 -0.2602
13859TIP3   OH263067   5.214   2.266  11.293 -0.0760 -0.2067 -0.6330
13859TIP3    H163068   5.136   2.284  11.345 -0.5001 -1.1118 -0.9445
13859TIP3    H263069   5.262   2.201  11.344 -0.4379 -1.0148 -1.3059
13860TIP3   OH263070   6.237   1.793   5.683  0.8384 -0.3982  0.3152
13860TIP3    H163071   6.165   1.840   5.640  0.2400 -1.3690  0.2303
13860TIP3    H263072   6.206   1.779   5.773  1.0784 -0.5043  0.3808
13861TIP3   OH263073   0.716   1.952  11.652 -0.1162 -0.3280 -0.2641
13861TIP3    H163074   0.708   1.859  11.631 -0.5928 -0.5626  0.8605
13861TIP3    H263075   0.794   1.981  11.605 -0.7089 -0.9666 -1.6913
13862TIP3   OH263076   1.499   2.785   6.042  0.3632  0.2676 -0.3549
13862TIP3    H163077   1.461   2.809   5.957  0.6559 -1.6957 -1.0972
13862TIP3    H263078   1.473   2.694   6.055  2.3875 -0.2560  0.4766
13863TIP3   OH263079   2.536   6.513   5.549 -0.0182 -0.3017  0.9343
13863TIP3    H163080   2.493   6.598   5.544  0.3747 -0.1488 -0.0712
13863TIP3    H263081   2.473   6.452   5.511  0.2675 -0.2200  0.3084
13864TIP3   OH263082   5.712   5.907   3.219  0.5257  0.0881 -0.1288
13864TIP3    H163083   5.791   5.960   3.208  0.7610 -0.0951  0.6399
13864TIP3    H263084   5.648   5.948   3.161  0.9450  0.7329 -0.1461
13865TIP3   OH263085   0.268   1.362  16.041  0.0666 -0.5186 -0.6153
13865TIP3    H163086   0.309   1.276  16.051  1.0819  0.1280  1.1817
13865TIP3    H263087   0.339   1.424  16.058 -0.6022  0.7055 -2.0904
13866TIP3   OH263088   6.027   0.261   3.692  0.5734 -0.0214  0.4697
13866TIP3    H163089   6.043   0.260   3.598  2.1923 -2.2618  0.6872
13866TIP3    H263090   5.981   0.344   3.708 -1.0941 -0.2266 -2.4684
13867TIP3   OH263091   3.465   0.068   4.249 -0.3607 -0.1407  0.2103
13867TIP3    H163092   3.507   0.004   4.192 -2.9054 -0.2093 -1.7531
13867TIP3    H263093   3.426   0.016   4.319  1.5198 -0.2008  1.2659
13868TIP3   OH263094   1.584   4.439  12.022 -0.1777  0.1304  0.4067
13868TIP3    H163095   1.656   4.489  12.061 -2.0079  2.7277  0.7612
13868TIP3    H263096   1.546   4.392  12.096  0.2599 -0.1071  0.4867
13869TIP3   OH263097   0.285   6.070   5.005  0.4263  0.0765 -0.2290
13869TIP3    H163098   0.309   5.978   5.000 -1.5858 -0.4295 -1.7012
13869TIP3    H263099   0.295   6.092   5.097 -1.7488 -2.4328  0.7339
13870TIP3   OH263100   1.214   2.291  14.862 -0.5525  0.5179  0.1665
13870TIP3    H163101   1.123   2.264  14.878 -0.9026  1.6533  0.2041
13870TIP3    H263102   1.254   2.293  14.950 -0.0084 -1.5171  0.0100
13871TIP3   OH263103   2.930   2.128   0.473 -0.3884 -0.1139 -0.0776
13871TIP3    H163104   2.865   2.078   0.424 -1.0613  1.3574 -0.7308
13871TIP3    H263105   3.002   2.141   0.411  0.4331 -1.4339  0.5345
13872TIP3   OH263106   5.437   6.310  16.781  0.1398 -0.5027  0.3668
13872TIP3    H163107   5.477   6.245  16.723  0.2208 -0.3666  0.2698
13872TIP3    H263108   5.348   6.321  16.746  0.5180  0.3511 -0.3801
13873TIP3   OH263109   4.788   6.330  16.447  1.2581 -0.4289  0.2354
13873TIP3    H163110   4.758   6.398  16.508  2.5957  0.0567  0.3802
13873TIP3    H263111   4.779   6.369  16.360 -1.2743 -1.3519 -0.0186
13874TIP3   OH263112   0.189   6.256   1.671 -0.1066  0.6930  0.0102
13874TIP3    H163113   0.123   6.315   1.706  0.0076  1.6488 -1.2894
13874TIP3    H263114   0.272   6.291   1.704 -0.2272 -0.6588  1.8539
13875TIP3   OH263115   1.897   5.848  11.632 -1.0305 -0.1491  0.2051
13875TIP3    H163116   1.846   5.783  11.583 -0.4298 -1.1301  0.8558
13875TIP3    H263117   1.934   5.905  11.564 -0.4846 -1.2838 -0.4782
13876TIP3   OH263118   2.995   4.110   6.430  0.2937  0.1287 -0.1229
13876TIP3    H163119   3.005   4.149   6.343  1.1140  0.5906  0.1618
13876TIP3    H263120   2.909   4.141   6.460  0.1352  0.2084 -0.6485
13877TIP3   OH263121   2.709   5.487  12.150  0.5915  0.2639  0.6757
13877TIP3    H163122   2.618   5.457  12.141  1.3527 -1.9366 -0.4078
13877TIP3    H263123   2.709   5.538  12.231 -1.2474 -1.1790  1.6846
13878TIP3   OH263124   5.153   1.398   2.463 -0.4474 -0.6143 -0.3028
13878TIP3    H163125   5.191   1.464   2.521 -2.4856  2.4240 -2.1209
13878TIP3    H263126   5.225   1.337   2.445  1.7751  1.4368  1.0543
13879TIP3   OH263127   3.754   5.279  13.484  0.6007  0.2270  0.3501
13879TIP3    H163128   3.696   5.346  13.447  0.8424  0.9174  1.1879
13879TIP3    H263129   3.767   5.216  13.413 -1.6202 -0.2512  0.2787
13880TIP3   OH263130   5.127   5.301  14.830  0.1497 -0.0768 -0.7054
13880TIP3    H163131   5.046   5.251  14.840  0.6021 -0.7923 -0.5154
13880TIP3    H263132   5.106   5.389  14.861  0.0532 -0.8304  1.5690
13881TIP3   OH263133   5.472   4.760  14.301 -0.5332 -0.2408 -0.2104
13881TIP3    H163134   5.441   4.829  14.242 -1.1690 -0.5884 -0.2903
13881TIP3    H263135   5.550   4.725  14.257 -0.0959  0.5381 -0.0827
13882TIP3   OH263136   0.120   6.259  14.133 -0.1467  0.1460 -0.6292
13882TIP3    H163137   0.043   6.216  14.097 -0.2647  0.5778 -0.8936
13882TIP3    H263138   0.097   6.277  14.224 -0.7455  1.1639 -0.9617
13883TIP3   OH263139   5.895   4.638  13.986  0.1439  0.1550 -0.1738
13883TIP3    H163140   5.931   4.551  13.966  0.4179 -0.3628  2.2511
13883TIP3    H263141   5.973   4.694  13.994  0.0143  0.4526 -0.9555
13884TIP3   OH263142   2.538   2.361  10.815  0.0332  0.0284 -0.0724
13884TIP3    H163143   2.601   2.410  10.762 -2.0400  1.6728 -1.2108
13884TIP3    H263144   2.498   2.299  10.753 -1.3544  0.9300 -0.1320
13885TIP3   OH263145   5.883   5.166  16.260  0.5778 -0.0226  0.1788
13885TIP3    H163146   5.915   5.076  16.267 -0.8679 -0.5981 -0.1971
13885TIP3    H263147   5.927   5.200  16.182  0.9755 -0.4670  0.1964
13886TIP3   OH263148   4.843   3.021  13.562  0.1294 -0.2359 -0.4934
13886TIP3    H163149   4.771   2.974  13.519  0.3107  0.5163 -1.6678
13886TIP3    H263150   4.804   3.054  13.643 -0.1103 -2.0159  0.1465
13887TIP3   OH263151   1.712   2.137   6.529  0.7579 -0.4906 -0.0379
13887TIP3    H163152   1.656   2.141   6.607 -0.9422  2.1392 -1.2482
13887TIP3    H263153   1.766   2.216   6.534 -0.0168  0.2243 -1.8772
13888TIP3   OH263154   4.380   1.986  11.586 -0.3967  0.3988  0.6131
13888TIP3    H163155   4.303   1.931  11.568 -0.4632  0.0842  1.7506
13888TIP3    H263156   4.357   2.072  11.551 -0.9327  0.0892  0.1948
13889TIP3   OH263157   4.472   3.724  16.723 -0.1138  0.4613 -0.6345
13889TIP3    H163158   4.382   3.744  16.746  0.2008 -0.5884  1.8901
13889TIP3    H263159   4.524   3.792  16.765  0.3327  0.6485 -1.4642
13890TIP3   OH263160   6.615   2.352   3.027 -0.0480 -0.9126 -0.1990
13890TIP3    H163161   6.561   2.343   2.949 -0.7811  0.1818  0.1489
13890TIP3    H263162   6.655   2.266   3.039  1.2927 -0.7064 -2.6312
13891TIP3   OH263163   0.288   1.752  16.406  0.1300  0.5010 -0.1753
13891TIP3    H163164   0.260   1.685  16.468  0.7930 -1.3754 -1.7985
13891TIP3    H263165   0.368   1.788  16.444 -0.4624  0.7104  0.9199
13892TIP3   OH263166   5.169   6.202  13.398 -0.1234 -0.1215 -0.0044
13892TIP3    H163167   5.098   6.189  13.461 -0.0071 -0.1279  0.1240
13892TIP3    H263168   5.188   6.114  13.365 -1.4702  0.0896 -1.4467
13893TIP3   OH263169   1.877   6.712   2.265 -0.8183 -0.0890 -0.2848
13893TIP3    H163170   1.782   6.725   2.266 -0.8502  0.1481 -2.5232
13893TIP3    H263171   1.911   6.789   2.220  0.4878 -0.0691  0.6713
13894TIP3   OH263172   6.108   5.133   2.381  0.3383 -0.1205  0.1575
13894TIP3    H163173   6.015   5.152   2.394  0.4470  0.1163  0.6262
13894TIP3    H263174   6.144   5.216   2.349  0.1480 -0.5853 -1.3120
13895TIP3   OH263175   0.361   6.656   1.747  0.7386  0.7270  0.4842
13895TIP3    H163176   0.430   6.615   1.695 -0.3829 -1.3763  0.5393
13895TIP3    H263177   0.329   6.587   1.804 -1.3919  1.6108  0.4745
13896TIP3   OH263178   2.983   0.280  14.604 -0.4811 -0.3123 -0.1528
13896TIP3    H163179   3.009   0.277  14.696 -3.4299 -1.4615  0.7576
13896TIP3    H263180   3.004   0.193  14.570 -1.4038 -0.6427  0.0921
13897TIP3   OH263181   1.613   6.300   0.469  0.0631 -0.1759  0.3070
13897TIP3    H163182   1.608   6.269   0.379  0.1452  1.0799 -0.1602
13897TIP3    H263183   1.662   6.233   0.516  0.3913 -0.6369 -0.6798
13898TIP3   OH263184   4.492   5.363   5.271  0.0823 -0.0679 -0.1163
13898TIP3    H163185   4.516   5.333   5.183 -0.7543  0.0534 -0.3986
13898TIP3    H263186   4.420   5.305   5.296  1.0975 -0.8949  1.0000
13899TIP3   OH263187   4.238   0.535   2.433 -0.1823 -0.7437 -0.8482
13899TIP3    H163188   4.315   0.546   2.490 -0.6365  0.6720 -0.4770
13899TIP3    H263189   4.168   0.509   2.493 -0.1666 -1.3830 -1.0945
13900TIP3   OH263190   1.737   3.919  15.687  0.6231  0.0391  0.1613
13900TIP3    H163191   1.738   3.903  15.593  0.6117 -1.2202  0.3566
13900TIP3    H263192   1.679   3.994  15.698 -0.6540 -0.7960 -0.6927
13901TIP3   OH263193   1.539   5.893  13.614 -0.1455  0.1254 -0.3426
13901TIP3    H163194   1.505   5.982  13.613  1.2333  0.6832 -0.1567
13901TIP3    H263195   1.621   5.898  13.564  1.3272 -0.4377  1.8936
13902TIP3   OH263196   2.512   3.261   3.321 -0.0763  0.6211  0.2263
13902TIP3    H163197   2.504   3.174   3.281  1.8490  1.4891 -2.3805
13902TIP3    H263198   2.445   3.313   3.277 -0.4287  0.7601  0.9134
13903TIP3   OH263199   6.524   0.368  13.445 -0.1048 -0.0109 -0.0853
13903TIP3    H163200   6.587   0.436  13.421  1.1141 -0.9599  0.3337
13903TIP3    H263201   6.441   0.399  13.410  0.2329  2.1384  0.8694
13904TIP3   OH263202   0.800   5.656  17.240  0.1483  0.2680 -0.2294
13904TIP3    H163203   0.811   5.685  17.149  0.4184 -0.4730 -0.4386
13904TIP3    H263204   0.708   5.628  17.245  0.6957 -1.8462 -0.9312
13905TIP3   OH263205   0.675   3.313  13.229  0.2925 -0.6165  0.7825
13905TIP3    H163206   0.695   3.266  13.148 -0.4523 -1.2260  0.9489
13905TIP3    H263207   0.699   3.404  13.210  0.5409 -0.8319  0.0335
13906TIP3   OH263208   4.404   2.568   1.703 -0.3879 -0.3664  0.2819
13906TIP3    H163209   4.369   2.479   1.697  0.0277 -0.5189  0.0693
13906TIP3    H263210   4.374   2.611   1.623 -1.7095  0.1001  1.0028
13907TIP3   OH263211   3.766   1.165  15.047 -0.4356  0.4044 -0.9383
13907TIP3    H163212   3.853   1.138  15.017 -0.2393 -2.8217  1.8910
13907TIP3    H263213   3.709   1.091  15.027 -1.7360  1.0078  0.3315
13908TIP3   OH263214   5.199   4.733  13.626  0.2900  0.5832 -0.3065
13908TIP3    H163215   5.286   4.751  13.662  1.2309  0.2771 -2.2723
13908TIP3    H263216   5.145   4.714  13.702  2.0830  0.2003  0.9450
13909TIP3   OH263217   5.422   4.597   0.814  0.0733 -0.1051 -0.9190
13909TIP3    H163218   5.473   4.579   0.892  1.6709 -1.2224 -2.1530
13909TIP3    H263219   5.337   4.555   0.831 -0.8829  2.5464  1.5255
13910TIP3   OH263220   3.597   6.427  12.335  0.1612 -0.0754 -0.1398
13910TIP3    H163221   3.646   6.499  12.297 -2.8323  2.5544  0.5907
13910TIP3    H263222   3.547   6.390  12.262  1.1606 -1.0169 -0.3747
13911TIP3   OH263223   3.557   2.480   2.621  0.3398  0.1767  0.0692
13911TIP3    H163224   3.570   2.440   2.707  0.1043  0.7009  0.3509
13911TIP3    H263225   3.479   2.437   2.586  0.2311  0.2090  0.2690
13912TIP3   OH263226   1.086   6.719  16.736 -0.3363 -0.3965  0.3625
13912TIP3    H163227   1.075   6.757  16.823 -1.3343  2.3148 -0.8479
13912TIP3    H263228   1.178   6.690  16.734  0.0776  0.7110  1.8476
13913TIP3   OH263229   1.621   2.801  12.015  0.4833 -1.3637  0.1000
13913TIP3    H163230   1.611   2.888  11.977 -0.7639 -1.5081  0.0815
13913TIP3    H263231   1.693   2.761  11.966  0.2716 -0.7835 -0.6873
13914TIP3   OH263232   5.210   1.989  15.950  0.3485 -0.0386 -0.3290
13914TIP3    H163233   5.187   1.902  15.917  1.6781 -0.1644 -1.0289
13914TIP3    H263234   5.134   2.044  15.929 -1.2822 -1.3567  1.7456
13915TIP3   OH263235   5.060   3.085   5.526 -0.0860  0.3363 -0.0488
13915TIP3    H163236   5.119   3.152   5.560  0.4812 -0.4536  0.5614
13915TIP3    H263237   5.098   3.002   5.554 -0.6895 -0.2625 -0.9166
13916TIP3   OH263238   4.308   4.828  13.639 -0.9035  0.0437  0.1406
13916TIP3    H163239   4.232   4.872  13.675 -0.4474  0.1219  1.0511
13916TIP3    H263240   4.301   4.738  13.671 -0.7938 -0.0374 -0.0575
13917TIP3   OH263241   1.511   2.264  16.625 -0.2405  0.2390  0.6062
13917TIP3    H163242   1.462   2.251  16.707 -0.7646 -1.3245  0.0770
13917TIP3    H263243   1.563   2.343  16.641 -0.3993  0.0302  2.4191
13918TIP3   OH263244   1.141   0.273  14.694  0.5734 -0.3083 -0.3104
13918TIP3    H163245   1.133   0.246  14.785 -1.4736 -0.5290 -0.4881
13918TIP3    H263246   1.148   0.368  14.697  0.1548 -0.2824  0.0905
13919TIP3   OH263247   3.725   5.465   5.946 -0.5183  0.1234 -0.1790
13919TIP3    H163248   3.741   5.453   5.853 -1.0400 -0.7376 -0.1721
13919TIP3    H263249   3.781   5.401   5.989 -0.4397  0.3675  0.0855
13920TIP3   OH263250   6.337   6.795  16.766 -0.0355  0.3410 -0.7144
13920TIP3    H163251   6.245   6.820  16.759 -0.7105 -2.2438 -2.6317
13920TIP3    H263252   6.338   6.721  16.827  0.9428  0.8580 -0.0593
13921TIP3   OH263253   6.364   4.222  12.135  0.0800  0.3078 -0.1101
13921TIP3    H163254   6.390   4.308  12.103  0.8208  0.2188  0.2278
13921TIP3    H263255   6.331   4.176  12.058  2.5965 -0.1996 -0.9632
13922TIP3   OH263256   4.829   4.755   5.890  0.1195 -0.0336 -0.1955
13922TIP3    H163257   4.883   4.786   5.963  0.7386 -0.6806 -0.3624
13922TIP3    H263258   4.891   4.748   5.816 -0.3996  0.1609 -0.6546
13923TIP3   OH263259   2.730   1.726   2.187 -0.3486  0.1152 -0.2511
13923TIP3    H163260   2.727   1.798   2.123 -1.1744 -0.0820 -0.4549
13923TIP3    H263261   2.755   1.649   2.135  2.3004  0.5238  0.2677
13924TIP3   OH263262   3.516   4.410   1.373  0.0790 -0.3202 -0.1178
13924TIP3    H163263   3.576   4.339   1.395  0.3099 -0.5925 -1.5379
13924TIP3    H263264   3.566   4.490   1.387  0.1953 -0.4758  0.3727
13925TIP3   OH263265   5.586   5.798   4.689 -0.5494 -0.2154 -0.4909
13925TIP3    H163266   5.598   5.810   4.783 -0.4661  0.9939 -0.6484
13925TIP3    H263267   5.670   5.821   4.651 -0.3795 -1.3259 -0.8278
13926TIP3   OH263268   6.715   0.463  13.242  1.0519  0.8132  0.0713
13926TIP3    H163269   6.694   0.401  13.172 -1.7461 -0.4151  1.8205
13926TIP3    H263270   6.705   0.549  13.201  1.0684  0.1336 -1.4345
13927TIP3   OH263271   2.844   0.802  13.339  0.2856  0.1509  0.2725
13927TIP3    H163272   2.845   0.862  13.264  0.7811 -0.7158 -0.4454
13927TIP3    H263273   2.841   0.715  13.299 -0.0529 -0.3162  1.2805
13928TIP3   OH263274   1.041   0.557   3.379  0.5807  0.0445  0.0388
13928TIP3    H163275   1.003   0.591   3.460  0.5486  1.0327 -0.3681
13928TIP3    H263276   0.971   0.504   3.340  1.2908 -2.2043  1.6501
13929TIP3   OH263277   0.616   3.581   6.640 -1.0930 -0.4826 -0.3325
13929TIP3    H163278   0.690   3.618   6.689 -0.8854 -0.5669 -0.5801
13929TIP3    H263279   0.561   3.540   6.707 -0.4488 -1.2157 -0.2411
13930TIP3   OH263280   4.784   0.857   3.799 -0.0563 -0.4894 -0.0712
13930TIP3    H163281   4.865   0.889   3.759 -0.6907 -0.8179 -1.6940
13930TIP3    H263282   4.789   0.886   3.890  0.9498  1.2908 -0.6427
13931TIP3   OH263283   6.039   3.461   1.028 -0.2001 -0.1906 -0.4559
13931TIP3    H163284   6.128   3.478   0.996 -0.0314  1.0733  0.5737
13931TIP3    H263285   5.986   3.453   0.949  0.6202  0.3008 -1.0703
13932TIP3   OH263286   5.249   5.918  11.330  1.1044 -0.3219  0.1763
13932TIP3    H163287   5.318   5.854  11.350  0.1806 -1.8428 -1.2055
13932TIP3    H263288   5.184   5.867  11.281 -2.3141  0.3652  3.5563
13933TIP3   OH263289   0.007   1.015   0.623  0.3216 -0.6021  0.3939
13933TIP3    H163290  -0.000   1.068   0.543 -1.9191  0.4160  1.1935
13933TIP3    H263291  -0.064   0.951   0.615 -0.0898 -0.3183  1.6668
13934TIP3   OH263292   4.412   5.049  16.286 -0.1037 -0.1848 -0.0817
13934TIP3    H163293   4.445   4.959  16.293  1.1242  0.3400  1.2455
13934TIP3    H263294   4.352   5.058  16.360 -0.1992  0.1037 -0.1953
13935TIP3   OH263295   0.853   4.015  15.771 -0.2818  0.3528 -0.2536
13935TIP3    H163296   0.890   3.970  15.848 -2.0231 -1.0318 -0.1551
13935TIP3    H263297   0.759   4.014  15.787 -0.6104  0.7841 -2.0330
13936TIP3   OH263298   2.895   4.087  12.959  1.0153 -0.1182  0.0201
13936TIP3    H163299   2.860   4.136  12.884 -0.1795 -0.5594  0.2764
13936TIP3    H263300   2.970   4.139  12.988  1.6153 -0.0177 -1.5708
13937TIP3   OH263301   1.346   1.372  15.652 -0.1909  0.3692  0.1303
13937TIP3    H163302   1.425   1.352  15.703 -0.8486 -0.3994  0.8538
13937TIP3    H263303   1.310   1.451  15.693 -0.8765 -0.4119  1.0467
13938TIP3   OH263304   0.361   4.298   1.937 -0.4426 -0.6972 -0.2384
13938TIP3    H163305   0.364   4.261   2.025 -2.0757 -1.8999 -0.6565
13938TIP3    H263306   0.439   4.263   1.894  0.0866 -0.5192  0.5522
13939TIP3   OH263307   6.665   0.511  14.199  0.3294 -0.4985  0.1185
13939TIP3    H163308   6.640   0.569  14.271 -0.9227 -0.9304  0.0584
13939TIP3    H263309   6.638   0.424  14.229  1.8811 -1.0376  0.0754
13940TIP3   OH263310   6.679   5.668   6.087 -0.6323  0.4336 -0.2124
13940TIP3    H163311   6.651   5.605   6.154 -0.2981 -0.4060 -0.8318
13940TIP3    H263312   6.744   5.723   6.132 -0.7252  0.1617  0.2695
13941TIP3   OH263313   0.916   1.879  13.182 -0.6499 -0.3666 -0.2243
13941TIP3    H163314   0.823   1.889  13.163 -1.1116 -1.0313  1.4697
13941TIP3    H263315   0.923   1.900  13.275  0.9276 -0.1618 -0.3665
13942TIP3   OH263316   0.438   4.994  17.203  0.2000  0.0063  0.1081
13942TIP3    H163317   0.419   5.005  17.110 -0.1993 -0.6560  0.1043
13942TIP3    H263318   0.382   5.058  17.247  0.7117  0.6251 -0.1297
13943TIP3   OH263319   0.295   0.369   0.588  0.2645 -0.2087 -0.1051
13943TIP3    H163320   0.368   0.381   0.648  0.2425 -2.4516  0.4383
13943TIP3    H263321   0.336   0.366   0.501  0.4734  1.3458 -0.0849
13944TIP3   OH263322   1.519   6.168  13.975 -0.1970  0.0315  0.1547
13944TIP3    H163323   1.579   6.093  13.975 -1.8211 -1.3442 -0.4078
13944TIP3    H263324   1.473   6.161  14.059  0.7232  1.3687  0.8047
13945TIP3   OH263325   4.552   6.286  11.933  0.1957 -0.0714 -0.2364
13945TIP3    H163326   4.510   6.307  11.850 -0.4612 -0.2471  0.0444
13945TIP3    H263327   4.600   6.366  11.956 -0.0870  0.1765 -0.5009
13946TIP3   OH263328   3.559   6.248   0.046 -0.0807 -0.3507 -0.0926
13946TIP3    H163329   3.496   6.314   0.017  0.0848  0.0218  0.3877
13946TIP3    H263330   3.505   6.179   0.084 -0.3374 -1.0477 -1.6200
13947TIP3   OH263331   6.426   4.551  15.006  0.5256 -0.2492 -0.0523
13947TIP3    H163332   6.398   4.638  15.035  0.4625 -0.4116  0.3750
13947TIP3    H263333   6.370   4.532  14.930 -0.0954 -0.3055  0.4094
13948TIP3   OH263334   2.524   3.898  16.341 -0.6323 -0.5396 -0.3407
13948TIP3    H163335   2.525   3.966  16.408  1.7988 -0.0445 -0.7679
13948TIP3    H263336   2.453   3.839  16.367 -1.0041  0.6735  1.5744
13949TIP3   OH263337   2.628   5.835   6.622  0.4235 -0.4511 -0.7074
13949TIP3    H163338   2.690   5.762   6.625 -0.3400 -1.1564  3.1490
13949TIP3    H263339   2.661   5.896   6.688 -1.9916 -0.0620  0.2187
13950TIP3   OH263340   4.030   4.367  16.648  0.4652 -0.1388 -0.5032
13950TIP3    H163341   4.091   4.327  16.710  0.0063 -1.3284 -0.7721
13950TIP3    H263342   4.004   4.449  16.688  0.4488 -0.7212  0.7206
13951TIP3   OH263343   6.807   0.393  12.159  0.0519  0.2631 -0.2355
13951TIP3    H163344   6.839   0.479  12.186 -0.0965 -0.1425  1.3131
13951TIP3    H263345   6.886   0.340  12.151  0.0344  0.1389  0.3545
13952TIP3   OH263346   6.484   6.000   5.278  0.1290  0.1198  0.5654
13952TIP3    H163347   6.469   6.065   5.346 -0.8242 -0.1071  0.5852
13952TIP3    H263348   6.496   6.051   5.198  2.2332  0.4418  1.0223
13953TIP3   OH263349   3.553   4.372  15.237 -0.3938 -0.5486 -0.0883
13953TIP3    H163350   3.521   4.330  15.157  0.0276 -0.8695 -0.0967
13953TIP3    H263351   3.593   4.454  15.207  0.2610 -0.9272 -0.2863
13954TIP3   OH263352   5.523   6.675  13.711 -0.0117  0.0529 -0.3765
13954TIP3    H163353   5.469   6.647  13.785 -0.6196 -0.6868 -1.0933
13954TIP3    H263354   5.466   6.731  13.659 -0.0337 -0.5464 -1.0137
13955TIP3   OH263355   1.928   1.049   0.093 -0.2220 -0.1187  0.1382
13955TIP3    H163356   1.980   1.091   0.162  1.1170 -1.8715  0.2570
13955TIP3    H263357   1.958   1.091   0.012  0.3863 -0.1327  0.3477
13956TIP3   OH263358   1.865   6.254  11.490 -0.4273  0.0876 -0.0478
13956TIP3    H163359   1.852   6.232  11.582  0.4099  0.1982  0.1092
13956TIP3    H263360   1.913   6.337  11.492 -0.3981  0.0875 -0.5819
13957TIP3   OH263361   5.943   6.491   5.244  0.1364 -0.3901 -0.1377
13957TIP3    H163362   5.954   6.460   5.154 -2.8811 -0.0348 -0.7090
13957TIP3    H263363   5.884   6.427   5.284 -2.6438  2.0725 -0.0090
13958TIP3   OH263364   5.705   6.158   1.893  0.0213  0.1279  0.4563
13958TIP3    H163365   5.714   6.174   1.987  1.9930 -2.3007  0.7639
13958TIP3    H263366   5.772   6.213   1.852  0.1506  0.0886  0.6144
13959TIP3   OH263367   0.303   2.500   3.493 -0.2677 -0.3033  0.2150
13959TIP3    H163368   0.346   2.421   3.459 -1.6798 -0.3346 -1.6300
13959TIP3    H263369   0.268   2.472   3.578 -0.1274 -1.4638 -0.0839
13960TIP3   OH263370   1.558   6.224  16.044 -0.0656 -0.9486  0.7115
13960TIP3    H163371   1.578   6.179  15.962 -0.9355 -1.2627  0.6674
13960TIP3    H263372   1.601   6.309  16.035  2.3756 -2.0351  1.1654
13961TIP3   OH263373   4.673   3.213   5.401  0.0354  0.2392 -0.0664
13961TIP3    H163374   4.656   3.169   5.317  2.3007 -1.0073  0.0658
13961TIP3    H263375   4.639   3.301   5.388 -0.9650 -0.3333 -1.7777
13962TIP3   OH263376   4.064   0.855   5.583  0.1088  0.1766 -0.1274
13962TIP3    H163377   4.100   0.933   5.624  0.4168 -0.5770  1.0978
13962TIP3    H263378   3.976   0.847   5.620 -0.2532  0.4017 -0.9068
13963TIP3   OH263379   0.271   2.151   2.414 -0.8192 -0.6846  0.3425
13963TIP3    H163380   0.340   2.160   2.479 -0.1835 -2.6895  0.0045
13963TIP3    H263381   0.306   2.194   2.336 -0.4138 -0.7065  0.5094
13964TIP3   OH263382   0.163   3.039  11.447 -0.4320 -0.1275  0.2844
13964TIP3    H163383   0.086   3.013  11.497 -0.9803  0.7993 -0.0538
13964TIP3    H263384   0.237   3.005  11.497 -1.0004  0.1558  1.3545
13965TIP3   OH263385   6.128   1.581   1.621  0.5097 -0.1475 -0.0280
13965TIP3    H163386   6.108   1.663   1.666  1.9113  1.2396 -1.8080
13965TIP3    H263387   6.042   1.548   1.593 -0.1274  0.3347  1.2475
13966TIP3   OH263388   3.752   1.683  13.337  0.3916  0.0380  0.2268
13966TIP3    H163389   3.838   1.658  13.304  0.2287 -0.9760  0.5371
13966TIP3    H263390   3.704   1.600  13.343 -0.2301  0.4543  1.1096
13967TIP3   OH263391   2.740   3.489  15.971 -0.4974 -0.6508  0.3412
13967TIP3    H163392   2.659   3.517  15.928 -0.4670 -0.8472  0.1561
13967TIP3    H263393   2.753   3.554  16.040 -0.8502 -0.6566  0.4189
13968TIP3   OH263394   1.316   6.670  13.736 -0.1683 -0.0552 -0.3755
13968TIP3    H163395   1.315   6.762  13.707  1.1621  0.0260 -0.2152
13968TIP3    H263396   1.226   6.653  13.764 -0.5997  0.9886 -1.0625
13969TIP3   OH263397   5.145   4.546   0.315 -0.3763  0.1905  0.3108
13969TIP3    H163398   5.063   4.504   0.342  0.1103 -0.1675  1.2767
13969TIP3    H263399   5.206   4.473   0.303 -0.3572  0.4013 -1.0597
13970TIP3   OH263400   5.120   0.233   4.127  0.3124  0.3771  0.9317
13970TIP3    H163401   5.114   0.297   4.056 -2.6582  0.4085  1.0771
13970TIP3    H263402   5.213   0.227   4.147  1.1579  1.1504 -2.2404
13971TIP3   OH263403   4.997   2.660  11.938  0.1315  0.6278  0.3367
13971TIP3    H163404   5.069   2.598  11.949 -0.3017  0.0554 -0.0133
13971TIP3    H263405   5.039   2.739  11.905  0.7814  0.7538  1.4234
13972TIP3   OH263406   3.316   1.180  10.557 -0.4607  0.6596  0.1065
13972TIP3    H163407   3.286   1.089  10.560  2.7377 -0.5102  2.4223
13972TIP3    H263408   3.254   1.227  10.613 -2.0798 -0.0434 -1.0020
13973TIP3   OH263409   4.821   0.801   2.647  0.0189  0.2534  0.5940
13973TIP3    H163410   4.909   0.808   2.682  1.3951 -2.5371 -1.8578
13973TIP3    H263411   4.766   0.782   2.723  1.8412  0.0949  1.9237
13974TIP3   OH263412   0.235   0.069  16.122  0.2488  0.3212 -0.2397
13974TIP3    H163413   0.240   0.024  16.207  0.1301  1.0419  0.1502
13974TIP3    H263414   0.252  -0.000  16.058 -1.8408 -0.7324  0.2364
13975TIP3   OH263415   5.407   3.430  14.163 -0.2201  0.9812 -0.0475
13975TIP3    H163416   5.466   3.388  14.102 -0.4714  0.9769 -0.2879
13975TIP3    H263417   5.320   3.418  14.125 -0.3738  0.9998  0.2960
13976TIP3   OH263418   6.428   2.380  12.809 -0.0887 -0.0393 -0.0540
13976TIP3    H163419   6.463   2.336  12.731 -0.6869 -0.9297  0.1704
13976TIP3    H263420   6.364   2.319  12.845  0.7793 -0.0116  1.6265
13977TIP3   OH263421   1.794   0.672   3.886  0.0839 -0.0454 -0.1293
13977TIP3    H163422   1.758   0.726   3.957  0.2723 -0.5697  0.3638
13977TIP3    H263423   1.868   0.626   3.925  0.4658 -0.0001 -0.7870
13978TIP3   OH263424   5.210   3.549  13.610 -0.2361 -0.1831  0.1335
13978TIP3    H163425   5.294   3.511  13.583  0.4252  2.1643 -1.3690
13978TIP3    H263426   5.217   3.557  13.705  2.8279  3.1742 -0.1780
13979TIP3   OH263427   2.204   0.035  16.816 -0.3184 -0.2923 -0.3717
13979TIP3    H163428   2.129   0.077  16.858  0.0673  0.6732 -0.6236
13979TIP3    H263429   2.225  -0.039  16.874 -0.1756  0.6525  0.8304
13980TIP3   OH263430   5.630   3.530   3.836  0.1702  0.0238  0.5693
13980TIP3    H163431   5.545   3.490   3.856 -0.3494  0.1853 -1.1177
13980TIP3    H263432   5.621   3.622   3.861 -0.2677  0.1043  0.1269
13981TIP3   OH263433   1.745   1.134  12.558 -0.2853  0.3038  0.5262
13981TIP3    H163434   1.709   1.056  12.516 -1.0002  0.4692  0.8089
13981TIP3    H263435   1.721   1.206  12.499 -0.5929  0.4372  0.8077
13982TIP3   OH263436   3.468   4.344  14.675  0.2365 -0.1177  0.0927
13982TIP3    H163437   3.561   4.323  14.671  0.6297  1.6909 -1.8715
13982TIP3    H263438   3.432   4.309  14.593 -0.4662  0.6527  0.0579
13983TIP3   OH263439   6.656   1.083   2.967 -0.3157  0.8089  0.4932
13983TIP3    H163440   6.572   1.112   2.932 -0.2111 -0.9502 -1.3265
13983TIP3    H263441   6.721   1.119   2.907 -0.2089 -3.6075 -2.5028
13984TIP3   OH263442   0.342   6.671  13.992 -0.2556  0.3459 -0.3551
13984TIP3    H163443   0.304   6.586  13.970  0.5153 -0.1048  0.0036
13984TIP3    H263444   0.328   6.680  14.087 -0.3400  0.6210 -0.3929
13985TIP3   OH263445   3.607   6.039   2.975 -0.0601  0.6831 -0.1109
13985TIP3    H163446   3.541   6.107   2.994 -0.5368  0.3313 -0.5080
13985TIP3    H263447   3.591   6.015   2.884 -0.8464 -0.9881  0.4259
13986TIP3   OH263448   5.271   3.888  16.886  0.4952  0.2781  0.0777
13986TIP3    H163449   5.287   3.826  16.957  2.0728  1.3219  0.7032
13986TIP3    H263450   5.358   3.919  16.862 -0.0867  0.5108 -1.8256
13987TIP3   OH263451   5.632   5.018  13.080 -0.2424 -0.1775  0.4809
13987TIP3    H163452   5.697   5.087  13.091 -1.0252  0.6526  0.0007
13987TIP3    H263453   5.573   5.051  13.012 -2.2662 -0.0445  2.1926
13988TIP3   OH263454   2.017   5.648   2.361  0.1427  0.5223  0.0725
13988TIP3    H163455   1.976   5.715   2.416  0.5662  1.3893 -0.6386
13988TIP3    H263456   1.995   5.565   2.403  1.0384  1.1784  1.9695
13989TIP3   OH263457   2.699   5.786   0.131 -0.2677 -0.4582  0.0544
13989TIP3    H163458   2.688   5.691   0.124 -0.6417 -0.3580 -0.8487
13989TIP3    H263459   2.614   5.822   0.106 -0.5239  0.0980  1.6280
13990TIP3   OH263460   0.160   3.430  16.314 -0.1934 -0.4040  0.0037
13990TIP3    H163461   0.216   3.507  16.324  0.6836 -1.2034  1.6216
13990TIP3    H263462   0.106   3.430  16.393  0.7404 -2.1483  0.6951
13991TIP3   OH263463   5.152   3.373  14.096  0.5100  0.0965  0.4068
13991TIP3    H163464   5.062   3.402  14.111  0.7954  0.6912  0.9870
13991TIP3    H263465   5.148   3.324  14.013 -0.1739  0.8964 -0.0409
13992TIP3   OH263466   3.343   1.032   0.354  0.2200  0.5415 -0.3966
13992TIP3    H163467   3.272   0.984   0.312 -1.5899  1.4837  1.4132
13992TIP3    H263468   3.368   0.978   0.428  1.4090  0.2474 -0.9829
13993TIP3   OH263469   6.305   6.122  15.970 -0.9535 -0.2620 -0.3975
13993TIP3    H163470   6.334   6.051  15.913 -1.3329  1.6953 -3.2403
13993TIP3    H263471   6.357   6.111  16.050  1.4611 -1.7536 -2.0150
13994TIP3   OH263472   5.606   1.534  15.531 -0.0594  0.2375 -0.0426
13994TIP3    H163473   5.540   1.506  15.595 -0.2334 -0.5679 -0.5693
13994TIP3    H263474   5.616   1.459  15.472  2.4594 -0.2773  0.9211
13995TIP3   OH263475   5.895   4.196  17.066  0.1908 -0.0720 -0.4601
13995TIP3    H163476   5.953   4.148  17.007  1.5885  1.1125 -0.0952
13995TIP3    H263477   5.907   4.288  17.042  1.6938  0.5743  2.3473
13996TIP3   OH263478   0.557   4.897   3.870 -0.0488 -0.8439  0.1063
13996TIP3    H163479   0.508   4.966   3.915 -0.4616 -1.8169  1.1825
13996TIP3    H263480   0.532   4.906   3.778  2.6670  2.7763 -0.5160
13997TIP3   OH263481   6.494   5.976   3.225 -1.1347  0.2210 -0.4362
13997TIP3    H163482   6.505   5.955   3.132  1.8637 -1.8581  0.2380
13997TIP3    H263483   6.551   5.913   3.271 -2.6722  1.0012  2.8514
13998TIP3   OH263484   2.205   0.366   1.173 -0.4714 -1.1109 -0.1701
13998TIP3    H163485   2.151   0.314   1.233 -1.9079  1.4542  0.9221
13998TIP3    H263486   2.189   0.457   1.198  2.6662 -0.0891 -1.3200
13999TIP3   OH263487   5.707   4.998   2.527  0.6493 -0.4442  0.0384
13999TIP3    H163488   5.624   5.005   2.574  2.0971 -2.2140  3.2178
13999TIP3    H263489   5.691   4.933   2.459 -0.1026 -2.3363  1.9398
14000TIP3   OH263490   3.112   1.479  16.915  0.3324 -0.1996 -0.7653
14000TIP3    H163491   3.094   1.474  17.009  0.9891  0.4710 -0.5955
14000TIP3    H263492   3.051   1.546  16.882  0.7191  0.2118 -0.6518
14001TIP3   OH263493   2.954   2.874  14.430 -0.0012  0.2906  0.1948
14001TIP3    H163494   2.859   2.878  14.420  0.0969 -0.5851 -1.5708
14001TIP3    H263495   2.982   2.965  14.424 -0.6376  0.4428 -0.8404
14002TIP3   OH263496   3.823   3.264  10.925  0.5671  0.1833  0.0664
14002TIP3    H163497   3.899   3.267  10.983  0.1062 -1.8782  0.8510
14002TIP3    H263498   3.854   3.299  10.842  2.3014 -0.4186  0.4352
14003TIP3   OH263499   2.417   3.255  16.823  0.1738  0.1411 -0.3780
14003TIP3    H163500   2.494   3.312  16.812  0.3328 -0.3793 -2.3519
14003TIP3    H263501   2.351   3.293  16.764 -0.9287  0.2535  0.8763
14004TIP3   OH263502   4.686   0.879  16.843 -0.6372  0.1552  0.2028
14004TIP3    H163503   4.612   0.823  16.866 -0.8050 -0.5349 -1.8162
14004TIP3    H263504   4.654   0.932  16.770  0.6716  0.2369 -0.3419
14005TIP3   OH263505   3.706   1.676   1.061 -0.2476  0.1711 -0.1355
14005TIP3    H163506   3.763   1.625   1.118 -0.7421 -0.7116 -0.4056
14005TIP3    H263507   3.758   1.690   0.982  0.2418  0.9318  0.3113
14006TIP3   OH263508   0.564   4.510  14.072 -0.0252  0.7485  0.8435
14006TIP3    H163509   0.528   4.588  14.030  0.6432  0.8577  0.4615
14006TIP3    H263510   0.613   4.466  14.002  0.2914  0.4240  1.2655
14007TIP3   OH263511   1.378   6.401   4.485  0.8331 -0.2468 -0.0141
14007TIP3    H163512   1.354   6.314   4.516 -2.5324  0.8834  0.9398
14007TIP3    H263513   1.352   6.403   4.393 -0.4096  0.1571  0.3335
14008TIP3   OH263514   4.402   2.922  11.079  0.0523  0.3923  0.4834
14008TIP3    H163515   4.496   2.908  11.094 -0.5265 -1.6561  2.6855
14008TIP3    H263516   4.365   2.835  11.079 -1.8961  1.1692 -0.4274
14009TIP3   OH263517   0.222   5.107   4.387  0.2215 -0.0642  0.3187
14009TIP3    H163518   0.143   5.071   4.348 -0.1031  0.9645 -0.0236
14009TIP3    H263519   0.293   5.055   4.350 -0.3059 -1.2125  0.8842
14010TIP3   OH263520   0.567   1.577  16.917 -0.2475 -0.1750 -0.2867
14010TIP3    H163521   0.478   1.611  16.911 -0.3387 -0.3615 -0.0029
14010TIP3    H263522   0.566   1.522  16.995  0.2831  0.3098  0.0639
14011TIP3   OH263523   2.579   1.855  13.111  0.1229 -0.3160  0.4276
14011TIP3    H163524   2.544   1.781  13.062  0.1078  0.1242 -0.2379
14011TIP3    H263525   2.600   1.819  13.197 -0.3488 -0.9763  0.2745
14012TIP3   OH263526   2.940   0.743  16.893  0.2383 -0.3699  0.3488
14012TIP3    H163527   2.968   0.790  16.972  0.2181  0.2311  0.0054
14012TIP3    H263528   2.857   0.784  16.869  1.6910  1.6110 -1.7233
14013TIP3   OH263529   6.795   2.837  15.046 -0.0471 -0.3757 -0.6115
14013TIP3    H163530   6.752   2.803  15.124  0.4787  0.3729  0.0203
14013TIP3    H263531   6.830   2.759  15.002  1.2594 -0.6861  0.8798
14014TIP3   OH263532   2.375   1.345   5.421  0.1988  0.6368 -0.2416
14014TIP3    H163533   2.426   1.348   5.502 -0.2107  2.7668  0.0135
14014TIP3    H263534   2.440   1.354   5.351  0.4303  0.2384 -0.0805
14015TIP3   OH263535   1.376   0.285   0.155  0.4283  0.1772  0.5561
14015TIP3    H163536   1.296   0.331   0.181 -0.0016 -1.6256  2.8487
14015TIP3    H263537   1.447   0.345   0.176 -0.1444  0.1382  2.9305
14016TIP3   OH263538   4.314   1.658  15.363 -0.2696  0.3863  0.2638
14016TIP3    H163539   4.331   1.737  15.414 -1.0050  1.8123 -1.6053
14016TIP3    H263540   4.316   1.687  15.272  1.6090 -2.1862 -0.6161
14017TIP3   OH263541   0.671   4.313   2.841  0.5951  0.2471 -0.7784
14017TIP3    H163542   0.604   4.351   2.784 -0.8297 -0.5102  0.3386
14017TIP3    H263543   0.743   4.293   2.782 -1.1504 -1.3159 -2.5075
14018TIP3   OH263544   5.237   1.415  15.189 -0.0849 -0.4151  0.3602
14018TIP3    H163545   5.317   1.456  15.155  0.4952 -0.7499  1.2839
14018TIP3    H263546   5.241   1.325  15.156  0.4015 -0.6967  1.1641
14019TIP3   OH263547   6.062   4.467   0.743  0.6037  0.0471  0.0532
14019TIP3    H163548   6.032   4.521   0.669 -1.8993 -1.1849  0.0589
14019TIP3    H263549   6.122   4.404   0.704 -2.5764 -2.2516 -1.6533
14020TIP3   OH263550   1.326   2.579  16.768 -0.1055 -0.2456 -0.8190
14020TIP3    H163551   1.234   2.598  16.788 -0.2971 -1.0224 -0.9491
14020TIP3    H263552   1.332   2.592  16.673 -0.4485 -1.6347 -1.0510
14021TIP3   OH263553   4.982   3.221   0.232  0.4337 -0.2353  0.2302
14021TIP3    H163554   4.911   3.273   0.268  0.7171  0.0830  0.3346
14021TIP3    H263555   5.044   3.285   0.197  0.9012 -0.4895  0.5755
14022TIP3   OH263556   0.951   3.452   5.840  0.4182 -0.6123 -0.1923
14022TIP3    H163557   1.018   3.458   5.772  0.6200 -2.0015 -0.1408
14022TIP3    H263558   0.999   3.446   5.922  0.1865  0.0392  0.0020
14023TIP3   OH263559   4.855   6.312   3.937 -0.3492  0.1532  0.2952
14023TIP3    H163560   4.815   6.237   3.981 -0.2225 -0.2750 -0.3091
14023TIP3    H263561   4.851   6.383   4.002  2.4838 -1.1930  2.1481
14024TIP3   OH263562   2.057   2.476  12.163  0.5990  0.4412  0.1404
14024TIP3    H163563   1.989   2.411  12.147  0.5183  0.5107  0.1987
14024TIP3    H263564   2.027   2.554  12.116  0.3034  0.6826  0.7163
14025TIP3   OH263565   5.925   2.351  17.228 -0.5816 -0.0290 -0.0104
14025TIP3    H163566   5.925   2.374  17.135  0.4411 -0.9300 -0.2543
14025TIP3    H263567   5.879   2.267  17.232 -1.7510  0.6180  0.4791
14026TIP3   OH263568   0.897   1.511   4.118 -0.2851  0.5552 -0.2182
14026TIP3    H163569   0.919   1.570   4.047  1.6978 -0.2364 -0.3203
14026TIP3    H263570   0.933   1.553   4.196  0.7064 -0.2444 -0.2249
14027TIP3   OH263571   1.086   4.875   0.133  0.5655  0.5964 -0.2583
14027TIP3    H163572   1.124   4.951   0.176 -0.4226  0.5902  0.6583
14027TIP3    H263573   1.023   4.840   0.196 -0.6820  0.3879 -1.5658
14028TIP3   OH263574   0.772   6.057  15.737  0.2407 -0.2190  0.1071
14028TIP3    H163575   0.863   6.074  15.712  0.4477 -1.0466  0.2845
14028TIP3    H263576   0.778   6.020  15.825 -0.4173  1.7390  1.0471
14029TIP3   OH263577   3.500   3.120   0.672 -0.2173  0.0183 -1.2606
14029TIP3    H163578   3.520   3.075   0.755  1.1182  0.8256 -1.1128
14029TIP3    H263579   3.421   3.171   0.690 -1.2943 -1.6004 -1.1945
14030TIP3   OH263580   3.592   0.248  12.538 -0.2420 -0.6979  0.0749
14030TIP3    H163581   3.513   0.303  12.537 -1.6482 -2.5161  2.2054
14030TIP3    H263582   3.566   0.169  12.490  0.2998 -1.2508  0.6730
14031TIP3   OH263583   5.835   6.805   5.570 -0.1372 -0.2532 -0.5960
14031TIP3    H163584   5.783   6.771   5.497  0.6038 -1.8694 -0.4360
14031TIP3    H263585   5.833   6.900   5.560 -1.6125 -0.3646 -1.6112
14032TIP3   OH263586   0.601   5.855   2.860 -0.8272  0.4317  0.2816
14032TIP3    H163587   0.647   5.775   2.884  1.5508  0.2835 -3.7404
14032TIP3    H263588   0.553   5.832   2.780  0.0278  2.9148 -1.0745
14033TIP3   OH263589   4.004   4.286   4.393  0.3047 -0.2757 -0.4533
14033TIP3    H163590   4.079   4.344   4.406 -1.1707  1.6012  0.1268
14033TIP3    H263591   3.994   4.241   4.477  0.8901 -0.7102 -0.6061
14034TIP3   OH263592   5.783   6.795  15.940  0.0769 -0.5895  0.3306
14034TIP3    H163593   5.820   6.762  16.022  3.0548  0.7145 -0.3293
14034TIP3    H263594   5.689   6.805  15.958  0.4759 -1.1526  3.2803
14035TIP3   OH263595   0.914   6.269  12.263  0.2213 -0.4274 -0.2190
14035TIP3    H163596   0.963   6.335  12.312  0.0419  0.8266 -1.6565
14035TIP3    H263597   0.892   6.201  12.328 -0.8199  1.5845  1.6539
14036TIP3   OH263598   3.037   5.763   1.520 -0.5855 -0.2391 -0.0065
14036TIP3    H163599   3.125   5.746   1.554 -0.5895  0.5043  0.4122
14036TIP3    H263600   2.981   5.766   1.597 -0.8034  0.2821 -0.1777
14037TIP3   OH263601   5.620   4.169   4.838  0.5261 -0.2705 -1.0597
14037TIP3    H163602   5.586   4.184   4.926  2.2044 -0.7194 -0.2837
14037TIP3    H263603   5.557   4.111   4.797 -0.8535  0.8228 -0.5675
14038TIP3   OH263604   5.441   2.750   0.019 -0.0532 -0.5478  0.4863
14038TIP3    H163605   5.524   2.791   0.044  0.2521 -1.3656  0.8707
14038TIP3    H263606   5.391   2.819  -0.024  1.2019 -0.2712 -0.5788
14039TIP3   OH263607   0.871   2.065   2.557 -0.1348 -0.4147 -0.0584
14039TIP3    H163608   0.901   2.048   2.467  0.1625 -1.1730  0.1780
14039TIP3    H263609   0.822   1.987   2.581  0.9689 -0.8334  0.9335
14040TIP3   OH263610   4.669   3.574  14.537  0.5948 -0.2400  0.1484
14040TIP3    H163611   4.622   3.495  14.566  1.0848 -0.7032 -0.2915
14040TIP3    H263612   4.631   3.594  14.452 -2.3525  2.3574  1.8276
14041TIP3   OH263613   1.494   1.997  12.765  0.1449 -0.0343 -0.1131
14041TIP3    H163614   1.478   2.089  12.744  1.3309 -0.0534 -1.2216
14041TIP3    H263615   1.587   1.984  12.744  0.0006 -1.4794  0.0725
14042TIP3   OH263616   6.694   4.066   2.054 -0.1718 -0.3060 -0.4864
14042TIP3    H163617   6.708   4.091   1.963  2.4530  0.2026 -0.0192
14042TIP3    H263618   6.678   3.972   2.052 -0.3876 -0.2532 -1.4752
14043TIP3   OH263619   4.898   6.776   4.478  0.1105  0.5006  0.1717
14043TIP3    H163620   4.907   6.731   4.394  0.8578  0.6608  0.1578
14043TIP3    H263621   4.945   6.719   4.540 -1.8848 -0.5049  0.8215
14044TIP3   OH263622   5.916   6.708   6.087  0.4470 -0.1883 -0.0856
14044TIP3    H163623   5.902   6.740   5.998 -1.0502  2.0733  0.8918
14044TIP3    H263624   5.851   6.754   6.140  0.0344 -2.8795  1.9291
14045TIP3   OH263625   5.387   4.540  11.317 -0.3104 -0.0542 -1.2465
14045TIP3    H163626   5.447   4.509  11.386 -0.4510 -0.0871 -1.1371
14045TIP3    H263627   5.440   4.540  11.237 -0.1000  0.1313 -1.1107
14046TIP3   OH263628   4.671   1.526   2.587  0.3387 -0.1711  0.2641
14046TIP3    H163629   4.750   1.529   2.532  0.2216 -0.8887  0.0481
14046TIP3    H263630   4.701   1.485   2.668  0.4131  0.4937  0.5776
14047TIP3   OH263631   3.225   1.720   4.255 -0.1398  0.7434 -0.0436
14047TIP3    H163632   3.319   1.708   4.272  0.0164  0.4186 -1.1127
14047TIP3    H263633   3.182   1.671   4.325  0.4824 -0.1234 -0.2599
14048TIP3   OH263634   4.714   0.274   5.401 -0.0418  0.5277  0.0826
14048TIP3    H163635   4.675   0.277   5.488  0.0744 -1.7579  0.2655
14048TIP3    H263636   4.649   0.227   5.347  1.6913 -2.0060  0.0445
14049TIP3   OH263637   3.603   3.444  15.963 -0.7118 -0.5965  0.0649
14049TIP3    H163638   3.534   3.508  15.975 -2.3249 -2.3318  0.5806
14049TIP3    H263639   3.581   3.399  15.881  1.4278  0.6767 -1.2828
14050TIP3   OH263640   1.000   4.865   0.441 -0.5203 -0.4487 -0.1506
14050TIP3    H163641   1.043   4.785   0.468 -0.8573 -0.5823 -0.0072
14050TIP3    H263642   1.047   4.935   0.488 -0.2863 -0.5668 -0.2073
14051TIP3   OH263643   3.174   2.611   3.119 -0.2151 -0.0513 -0.1359
14051TIP3    H163644   3.161   2.517   3.107 -1.1275 -0.0281  0.5568
14051TIP3    H263645   3.134   2.630   3.204 -0.5564  1.0671 -0.5293
14052TIP3   OH263646   1.142   2.944   6.054  0.4704 -0.1008  0.0737
14052TIP3    H163647   1.199   2.875   6.090  0.0217 -0.0696  0.8778
14052TIP3    H263648   1.095   2.901   5.983  3.3171  0.5368 -2.3974
14053TIP3   OH263649   2.227   2.041   0.147  0.6038 -0.4846  0.6794
14053TIP3    H163650   2.135   2.036   0.171  0.8010  0.4472  1.7112
14053TIP3    H263651   2.237   2.127   0.106  0.8214 -0.9875 -0.3574
14054TIP3   OH263652   1.922   3.753   0.261 -0.3289 -0.0116 -0.6864
14054TIP3    H163653   2.011   3.734   0.290  0.1829  0.2964 -1.9701
14054TIP3    H263654   1.872   3.761   0.342  1.0511  1.0065  0.1161
14055TIP3   OH263655   1.725   4.942  16.507  0.4279 -0.5069 -0.3008
14055TIP3    H163656   1.761   4.897  16.431  0.2134  0.8611 -1.2362
14055TIP3    H263657   1.678   5.017  16.471  0.8182  0.5148  1.2083
14056TIP3   OH263658   1.255   1.938   2.709  0.1789  0.0239  0.4499
14056TIP3    H163659   1.204   1.864   2.740 -0.2966 -0.1574 -0.7015
14056TIP3    H263660   1.313   1.901   2.643 -1.1844  0.8805 -1.3244
14057TIP3   OH263661   2.277   1.954  13.145  0.4458 -0.3562  0.1553
14057TIP3    H163662   2.346   1.937  13.210 -0.2218  0.0967  1.0088
14057TIP3    H263663   2.279   1.878  13.088  1.6954 -0.3229  0.1187
14058TIP3   OH263664   4.628   3.161  12.041  0.0614  0.6682  0.0221
14058TIP3    H163665   4.553   3.216  12.018 -0.8277 -0.2678  0.5492
14058TIP3    H263666   4.608   3.076  12.001  1.5258  0.7733 -0.9982
14059TIP3   OH263667   0.577   0.093  11.228 -0.1500 -0.0605  0.3073
14059TIP3    H163668   0.656   0.052  11.192 -1.5600 -2.3890 -0.3662
14059TIP3    H263669   0.553   0.038  11.302 -1.3393  0.3729  0.2643
14060TIP3   OH263670   5.175   2.530  13.746  0.4582 -0.4568  1.1112
14060TIP3    H163671   5.190   2.562  13.835  2.7382  0.7084  0.3982
14060TIP3    H263672   5.263   2.516  13.710 -0.3555 -0.2245 -1.1785
14061TIP3   OH263673   6.812   0.643  16.478  0.4844 -0.0777 -0.3033
14061TIP3    H163674   6.811   0.629  16.572  0.6631  0.6760 -0.1796
14061TIP3    H263675   6.758   0.721  16.464  2.3865  1.3013 -0.5296
14062TIP3   OH263676   4.648   0.568   0.003 -0.5792 -0.3084 -0.7587
14062TIP3    H163677   4.619   0.517   0.079 -2.0600  0.8546 -0.5045
14062TIP3    H263678   4.716   0.625   0.038  1.0454 -1.9747 -1.0301
14063TIP3   OH263679   0.948   3.966  12.372  0.5982 -0.0684 -0.0201
14063TIP3    H163680   0.905   4.000  12.451 -3.5987 -0.8626 -1.6806
14063TIP3    H263681   0.937   3.871  12.378 -2.0774 -0.0540 -2.5075
14064TIP3   OH263682   6.686   0.854  14.692  0.0051  0.4379 -0.1208
14064TIP3    H163683   6.687   0.931  14.636  0.8101  0.0810 -0.6193
14064TIP3    H263684   6.624   0.794  14.650  1.2358 -0.1701 -1.1399
14065TIP3   OH263685   2.185   6.002  17.026 -1.0373  0.0374  0.5315
14065TIP3    H163686   2.277   5.987  17.048 -1.2351 -2.8736 -0.1902
14065TIP3    H263687   2.183   6.092  16.995  2.0197 -0.4259 -1.4748
14066TIP3   OH263688   2.238   6.202   6.431 -0.6676 -0.1937 -0.6098
14066TIP3    H163689   2.322   6.234   6.397 -1.3052 -0.6292 -2.7799
14066TIP3    H263690   2.182   6.279   6.432 -0.1592  0.2097  1.3421
14067TIP3   OH263691   6.805   0.486  16.706  0.1038 -0.3466 -0.2865
14067TIP3    H163692   6.820   0.412  16.648  1.3770 -0.0463 -0.3680
14067TIP3    H263693   6.835   0.457  16.792 -0.0867 -0.1778 -0.1612
14068TIP3   OH263694   2.961   0.323   4.283 -0.2559 -0.8005  0.1888
14068TIP3    H163695   2.914   0.319   4.200 -1.1795  1.3185  0.5425
14068TIP3    H263696   2.950   0.414   4.312  2.4417 -0.7315  1.2647
14069TIP3   OH263697   0.714   2.903   3.551 -0.1868  0.4669  0.1465
14069TIP3    H163698   0.701   2.812   3.577 -0.0315  0.5075  0.3655
14069TIP3    H263699   0.632   2.947   3.573 -0.2085  0.4110  0.1772
14070TIP3   OH263700   0.223   5.024   6.631 -0.0790  0.6780 -0.4940
14070TIP3    H163701   0.155   5.090   6.639  0.5916  1.5139 -1.4548
14070TIP3    H263702   0.175   4.943   6.613 -0.8267  1.4087 -2.0593
14071TIP3   OH263703   0.581   0.918  13.117 -0.4610 -0.4543 -0.1381
14071TIP3    H163704   0.671   0.940  13.094 -0.4899 -0.2674 -0.0719
14071TIP3    H263705   0.563   0.971  13.195 -0.4287 -0.9275  0.1981
14072TIP3   OH263706   3.329   2.470   5.642  0.1434  0.0890 -0.5380
14072TIP3    H163707   3.411   2.508   5.672  0.6158 -0.7705 -0.6984
14072TIP3    H263708   3.310   2.399   5.704 -0.1779 -0.0821 -0.8231
14073TIP3   OH263709   0.387   4.257  10.757  0.3417 -0.1028  0.3170
14073TIP3    H163710   0.383   4.325  10.825 -0.9639  1.7612 -1.5213
14073TIP3    H263711   0.462   4.281  10.704  0.4751 -0.7049  0.2277
14074TIP3   OH263712   3.120   1.680   1.460 -0.0776  1.4039 -0.1515
14074TIP3    H163713   3.170   1.639   1.390 -1.8367  2.3131 -2.0233
14074TIP3    H263714   3.084   1.607   1.511  1.4633  0.7406  0.0504
14075TIP3   OH263715   3.070   5.893  12.919  0.4667 -0.1707 -0.4338
14075TIP3    H163716   3.039   5.979  12.890 -0.7384 -0.6983 -0.7699
14075TIP3    H263717   3.076   5.902  13.014 -3.0274 -0.6763 -0.0300
14076TIP3   OH263718   1.543   1.937   1.315 -0.6241  0.4410  0.2138
14076TIP3    H163719   1.498   1.979   1.388 -0.0852  0.1950  0.6919
14076TIP3    H263720   1.522   1.844   1.323 -0.2402  0.3582  0.2912
14077TIP3   OH263721   1.198   5.433  16.950 -0.1567  0.3449  0.1783
14077TIP3    H163722   1.178   5.512  16.899 -0.5684 -0.7991 -1.4902
14077TIP3    H263723   1.278   5.456  16.998  0.8409  1.1531 -1.7585
14078TIP3   OH263724   3.612   5.015   6.188  0.2775  0.0427  0.4745
14078TIP3    H163725   3.627   4.999   6.281  2.8640 -1.7057 -0.1133
14078TIP3    H263726   3.555   4.943   6.160 -1.0673  0.9500  0.7720
14079TIP3   OH263727   0.838   4.123   0.124  0.4529 -1.2851  0.4006
14079TIP3    H163728   0.787   4.140   0.204 -0.4378 -0.8068 -0.2589
14079TIP3    H263729   0.773   4.098   0.059  0.8194  0.9323 -0.9280
14080TIP3   OH263730   5.226   5.444  15.487  0.5555 -0.7031 -0.8429
14080TIP3    H163731   5.227   5.396  15.404  2.1569 -1.2256 -0.5634
14080TIP3    H263732   5.316   5.473  15.499  0.2595 -0.2620  0.5118
14081TIP3   OH263733   5.539   1.647  13.856 -0.2062 -0.7382 -0.1979
14081TIP3    H163734   5.482   1.612  13.787 -0.3128  0.2198 -0.6236
14081TIP3    H263735   5.521   1.741  13.855 -2.0914 -0.9426  2.8541
14082TIP3   OH263736   4.678   5.054   1.364  0.4663 -0.1268  0.5932
14082TIP3    H163737   4.668   5.149   1.373 -0.5489 -0.2882  1.4377
14082TIP3    H263738   4.772   5.040   1.364  0.6412  0.9130  0.0356
14083TIP3   OH263739   0.790   1.416   6.313  0.0866  0.5464 -0.4785
14083TIP3    H163740   0.824   1.442   6.399 -1.6422  1.0908  0.0980
14083TIP3    H263741   0.860   1.366   6.273  2.3323  3.2692 -0.2376
14084TIP3   OH263742   1.744   0.999   5.894  0.1937  0.2149  0.1053
14084TIP3    H163743   1.798   0.986   5.972  0.1208  0.1336  0.1441
14084TIP3    H263744   1.804   0.990   5.820  0.4620  1.3007  0.1716
14085TIP3   OH263745   4.789   5.672  13.420 -0.5467  0.5559 -0.6196
14085TIP3    H163746   4.754   5.595  13.465  2.2332  0.7130  2.1532
14085TIP3    H263747   4.870   5.641  13.379  1.3781  2.1254  1.7275
14086TIP3   OH263748   5.920   0.648  16.777  0.2777  0.4850  0.1094
14086TIP3    H163749   6.005   0.682  16.747  0.3837 -0.8576 -1.2121
14086TIP3    H263750   5.862   0.657  16.702 -0.7901  1.3995  1.0072
14087TIP3   OH263751   6.063   6.425  15.539 -0.3054  0.8323  0.0818
14087TIP3    H163752   6.115   6.370  15.598 -0.0733  1.8970  0.9025
14087TIP3    H263753   5.973   6.394  15.549  0.0320 -0.5276 -0.7834
14088TIP3   OH263754   2.650   2.949  12.074 -0.0023  0.0146 -0.3735
14088TIP3    H163755   2.566   2.986  12.046  0.3094  1.5897  0.6382
14088TIP3    H263756   2.657   2.975  12.166  0.5034 -2.1599  0.2584
14089TIP3   OH263757   1.464   1.602  13.898 -0.4597  0.2761 -0.3765
14089TIP3    H163758   1.495   1.687  13.930  0.3632  0.0333 -0.4815
14089TIP3    H263759   1.386   1.583  13.951 -0.1130  0.6714  0.2985
14090TIP3   OH263760   0.655   0.494   1.200 -0.0868  0.0588  0.1950
14090TIP3    H163761   0.562   0.487   1.179 -0.7819  3.7724  1.3078
14090TIP3    H263762   0.661   0.467   1.292 -0.3965  1.1888  0.5676
14091TIP3   OH263763   0.263   5.093  14.502  0.1721  0.1131 -0.0563
14091TIP3    H163764   0.316   5.164  14.539  0.7675  0.0057 -0.6963
14091TIP3    H263765   0.193   5.138  14.455 -0.0735  0.2613  0.4419
14092TIP3   OH263766   2.592   1.502   5.854 -0.3561 -0.6219  0.8640
14092TIP3    H163767   2.559   1.533   5.938  0.3146 -0.3447  1.0368
14092TIP3    H263768   2.590   1.579   5.797  0.4676 -0.4638  1.0313
14093TIP3   OH263769   6.405   1.617  11.651  0.1865  0.3637  0.2490
14093TIP3    H163770   6.372   1.577  11.731  0.1648  0.2516  0.1848
14093TIP3    H263771   6.331   1.665  11.616 -0.8101 -2.1608 -1.3883
14094TIP3   OH263772   1.313   2.639   2.242 -0.1633 -0.2368 -0.1579
14094TIP3    H163773   1.264   2.627   2.323  0.9427  1.1872  0.7795
14094TIP3    H263774   1.405   2.628   2.268  0.1556 -0.7599 -1.4309
14095TIP3   OH263775   2.405   2.935   5.883 -0.5220 -0.6557  0.0614
14095TIP3    H163776   2.423   2.945   5.976 -1.0970 -1.0255  0.2128
14095TIP3    H263777   2.448   3.010   5.842 -1.9540  0.6292  0.8322
14096TIP3   OH263778   4.844   3.846  14.777  0.0687  0.3673 -0.5443
14096TIP3    H163779   4.839   3.926  14.829  0.7417  0.0944 -0.0503
14096TIP3    H263780   4.764   3.847  14.724 -1.0729  0.2238  1.0932
14097TIP3   OH263781   0.190   3.328  13.182  0.3973  0.3442 -0.2567
14097TIP3    H163782   0.137   3.396  13.224 -0.3972 -0.1120 -0.4954
14097TIP3    H263783   0.269   3.323  13.236 -0.1885  0.4229  0.6365
14098TIP3   OH263784   5.467   6.199  12.348  0.0924 -0.1293 -0.2292
14098TIP3    H163785   5.525   6.178  12.421  0.5113 -1.2004 -0.8610
14098TIP3    H263786   5.485   6.133  12.282  1.6554  2.3004 -2.4315
14099TIP3   OH263787   3.147   0.002  11.082  0.2213  0.3907  0.0526
14099TIP3    H163788   3.073  -0.021  11.025  0.6881 -1.1166  0.0181
14099TIP3    H263789   3.152   0.097  11.076 -2.6487  0.7224  1.1983
14100TIP3   OH263790   0.453   1.856   2.952  0.5548 -0.0262  0.0124
14100TIP3    H163791   0.394   1.797   2.999  0.8772 -0.8987 -0.6532
14100TIP3    H263792   0.541   1.826   2.977  0.7236  0.0544 -0.4747
14101TIP3   OH263793   1.338   5.648  13.544  0.0926 -0.1955 -0.4269
14101TIP3    H163794   1.277   5.629  13.616  1.1476 -0.1362  0.4989
14101TIP3    H263795   1.391   5.721  13.576 -0.3540  0.8018 -1.8396
14102TIP3   OH263796   1.536   3.463  11.328  0.2866  0.0640  0.4102
14102TIP3    H163797   1.585   3.471  11.246  0.5960 -1.2755  0.4326
14102TIP3    H263798   1.464   3.525  11.320  0.4202  0.0850 -0.8017
14103TIP3   OH263799   6.231   4.499  16.275  0.1396  0.0128  0.7616
14103TIP3    H163800   6.257   4.586  16.245  1.5237 -0.7575 -0.3560
14103TIP3    H263801   6.177   4.464  16.204  0.6076 -0.5053  0.6545
14104TIP3   OH263802   1.384   6.553  14.958 -0.0154 -0.2849  0.2633
14104TIP3    H163803   1.447   6.625  14.967 -1.1106  1.0222 -1.7630
14104TIP3    H263804   1.342   6.548  15.044  2.8672 -1.3346  1.7724
14105TIP3   OH263805   6.168   5.951  11.670 -0.5322  0.1844  0.5244
14105TIP3    H163806   6.257   5.956  11.705  0.7093 -3.0465 -1.7397
14105TIP3    H263807   6.164   6.021  11.605 -0.0337  0.9823  1.3279
14106TIP3   OH263808   3.087   5.963   4.681  0.2074  0.4291 -0.3152
14106TIP3    H163809   3.111   5.932   4.593 -0.0919  0.7473 -0.5088
14106TIP3    H263810   3.068   5.882   4.729  0.3615  0.2525 -0.5438
14107TIP3   OH263811   6.459   5.320   2.051 -0.3770 -0.1325  0.0151
14107TIP3    H163812   6.374   5.303   2.093 -0.1345 -0.6724  0.2883
14107TIP3    H263813   6.503   5.235   2.050 -0.2417 -0.0697 -1.0374
14108TIP3   OH263814   0.059   3.662  12.866  0.4260 -0.0307 -0.1707
14108TIP3    H163815   0.071   3.579  12.820  0.4572  1.0231 -2.1726
14108TIP3    H263816   0.008   3.716  12.805 -1.1941  0.8345  1.8221
14109TIP3   OH263817   4.317   2.265  13.405  0.2528 -0.2280  0.3706
14109TIP3    H163818   4.393   2.251  13.461  1.6103 -0.2553 -1.3966
14109TIP3    H263819   4.296   2.178  13.372 -0.4413 -0.1884  0.6954
14110TIP3   OH263820   2.772   4.172   2.295  0.4542  0.0963  0.4206
14110TIP3    H163821   2.847   4.119   2.318  0.9468  0.8706  0.6434
14110TIP3    H263822   2.791   4.259   2.331 -0.3633  0.4074  0.1452
14111TIP3   OH263823   5.629   3.142   5.913  0.1605 -0.0309  0.2001
14111TIP3    H163824   5.679   3.118   5.834  0.0890  0.4428  0.0101
14111TIP3    H263825   5.688   3.119   5.986  0.8225  0.8870 -0.0337
14112TIP3   OH263826   1.214   5.650   4.666 -0.6354 -0.2088 -0.4527
14112TIP3    H163827   1.262   5.711   4.611 -0.8989  0.9005  0.5141
14112TIP3    H263828   1.273   5.576   4.678  0.7251  0.9775  0.4402
14113TIP3   OH263829   3.189   1.849  11.963  0.3884  0.2184  0.3081
14113TIP3    H163830   3.231   1.904  11.897 -0.0680 -0.8194 -0.8830
14113TIP3    H263831   3.100   1.836  11.931 -0.1854  0.5574  1.6759
14114TIP3   OH263832   3.530   2.081  13.908 -0.3311 -0.0465 -0.3051
14114TIP3    H163833   3.474   2.083  13.831  0.8560  0.2153 -1.1847
14114TIP3    H263834   3.619   2.077  13.874  0.2110 -0.4768  1.0561
14115TIP3   OH263835   6.657   4.114  15.676 -0.2102 -0.7056  0.1510
14115TIP3    H163836   6.694   4.065  15.749  0.8481  0.7879  0.6624
14115TIP3    H263837   6.579   4.155  15.711  0.5343  0.3617  0.5869
14116TIP3   OH263838   6.790   5.295  15.892  0.5753  0.5322  0.2386
14116TIP3    H163839   6.794   5.308  15.798 -2.4545  3.4733  0.3300
14116TIP3    H263840   6.739   5.216  15.904 -2.5400  2.2459 -0.7594
14117TIP3   OH263841   3.225   4.539  11.670  0.4364  0.4397 -0.0903
14117TIP3    H163842   3.277   4.566  11.746  2.1604  1.5662 -1.5650
14117TIP3    H263843   3.209   4.620  11.622  0.4670 -0.3941 -1.5578
14118TIP3   OH263844   6.033   0.983  13.224  0.2120 -0.4128 -0.2086
14118TIP3    H163845   6.074   0.997  13.139  0.3494 -2.0587 -0.4390
14118TIP3    H263846   6.106   0.965  13.283  0.1225  0.7750  0.3076
14119TIP3   OH263847   3.739   2.396   0.828 -0.1297  0.2075  0.0868
14119TIP3    H163848   3.759   2.385   0.735  2.0885  0.0080  0.5386
14119TIP3    H263849   3.685   2.475   0.832  0.1681  0.5072 -1.3151
14120TIP3   OH263850   1.573   6.278  12.924 -0.3018  0.0649  0.3462
14120TIP3    H163851   1.513   6.330  12.977  0.4622  0.9008  0.4111
14120TIP3    H263852   1.527   6.196  12.909 -1.8331  0.9983 -0.3293
14121TIP3   OH263853   3.432   6.613  14.170 -0.1789 -0.0310  0.7342
14121TIP3    H163854   3.397   6.564  14.245 -1.7299 -0.4410 -0.2178
14121TIP3    H263855   3.464   6.545  14.111  1.5255  0.3125  1.2201
14122TIP3   OH263856   2.907   4.331  16.110 -0.5913 -0.4131  0.3814
14122TIP3    H163857   2.952   4.277  16.045 -1.1441 -0.6963  0.2348
14122TIP3    H263858   2.834   4.278  16.140 -1.2636  0.3252  0.0863
14123TIP3   OH263859   6.199   0.816  13.894 -0.6227 -0.5316  0.2395
14123TIP3    H163860   6.287   0.791  13.865 -0.8485 -1.2571  0.1624
14123TIP3    H263861   6.184   0.766  13.974 -1.7458 -1.9870 -0.8366
14124TIP3   OH263862   2.069   6.406  15.510  0.0202  0.5604 -0.0306
14124TIP3    H163863   2.034   6.493  15.490  0.7275  1.3132  1.8752
14124TIP3    H263864   2.102   6.375  15.426 -0.2065  2.1354 -0.7467
14125TIP3   OH263865   5.677   2.751   4.875 -0.1669  0.1236 -0.3150
14125TIP3    H163866   5.682   2.821   4.940 -0.5005  0.0857 -0.2456
14125TIP3    H263867   5.768   2.726   4.860 -0.1391 -2.0620  2.5220
14126TIP3   OH263868   3.462   6.188  11.169 -0.2334 -0.0842  0.1479
14126TIP3    H163869   3.515   6.149  11.240  0.6540  1.8175  0.5934
14126TIP3    H263870   3.438   6.113  11.114 -1.8359 -1.8193  2.9575
14127TIP3   OH263871   5.305   0.575   5.250 -0.7237 -0.2114 -0.0093
14127TIP3    H163872   5.218   0.567   5.290 -1.2701 -0.2021 -1.1616
14127TIP3    H263873   5.329   0.485   5.228 -1.3882 -0.0241 -1.6093
14128TIP3   OH263874   6.096   3.555   0.199  0.2712 -0.4659 -0.3843
14128TIP3    H163875   6.115   3.509   0.281 -0.4208  0.7996  0.5321
14128TIP3    H263876   6.140   3.640   0.208 -1.0895  0.2989 -0.6212
14129TIP3   OH263877   6.306   1.678  10.480 -0.7369  0.1242 -0.0582
14129TIP3    H163878   6.311   1.748  10.544  0.2353 -0.5294  0.6194
14129TIP3    H263879   6.288   1.599  10.532 -2.9359 -0.0190 -0.9032
14130TIP3   OH263880   1.958   6.072   5.173  0.2465  0.4490  0.0794
14130TIP3    H163881   1.864   6.083   5.186  0.4208  1.3681  0.6331
14130TIP3    H263882   1.991   6.036   5.255  0.4624  0.6639  0.0897
14131TIP3   OH263883   0.265   1.399   2.756  1.1103  0.0016  0.5807
14131TIP3    H163884   0.356   1.401   2.724  0.5403 -3.4437 -1.9206
14131TIP3    H263885   0.244   1.305   2.761 -2.3260  0.6694  0.9617
14132TIP3   OH263886   5.052   0.428  12.226  0.0847 -0.0890  0.2570
14132TIP3    H163887   5.042   0.336  12.253 -1.2640  0.7386  2.9886
14132TIP3    H263888   5.140   0.451  12.255  0.6773 -0.6502 -1.0220
14133TIP3   OH263889   3.820   2.986  12.958  0.3119  0.5024  0.3146
14133TIP3    H163890   3.758   2.915  12.975 -1.2472  1.8475  0.5265
14133TIP3    H263891   3.903   2.955  12.994 -0.1937 -1.3967 -0.0492
14134TIP3   OH263892   4.092   2.129  14.506  0.2272 -0.4972  0.4768
14134TIP3    H163893   4.122   2.039  14.517 -1.1435 -0.9697  0.5193
14134TIP3    H263894   3.998   2.122  14.490  0.2671  0.8645 -0.5675
14135TIP3   OH263895   0.525   6.730   3.425  0.2271  0.0128 -0.0455
14135TIP3    H163896   0.491   6.722   3.514  0.6164 -0.6428  0.0478
14135TIP3    H263897   0.448   6.740   3.370 -0.0452 -0.1458  0.3071
14136TIP3   OH263898   5.609   3.430   4.191 -0.4010 -0.0101 -0.4302
14136TIP3    H163899   5.690   3.383   4.207 -0.1093  0.7313  0.3945
14136TIP3    H263900   5.633   3.523   4.196 -1.2770  0.2239 -0.2425
14137TIP3   OH263901   1.083   3.071   2.693 -0.0213 -0.0002  0.1109
14137TIP3    H163902   1.002   3.104   2.733 -0.9252 -1.6079 -0.2705
14137TIP3    H263903   1.150   3.135   2.716 -1.2463  0.9582  1.1374
14138TIP3   OH263904   2.523   1.838  12.036 -0.3218  0.1312  0.1060
14138TIP3    H163905   2.534   1.923  11.993  0.4375 -0.4289 -0.8490
14138TIP3    H263906   2.430   1.835  12.059 -0.6042  0.7536 -0.8794
14139TIP3   OH263907   0.913   4.777   6.377 -0.5525 -0.1298 -0.1168
14139TIP3    H163908   0.983   4.740   6.323 -0.3420 -2.2403  1.4885
14139TIP3    H263909   0.943   4.767   6.467 -1.8512  1.2676  0.5259
14140TIP3   OH263910   1.363   0.883  12.945  0.0514  0.1440 -0.3262
14140TIP3    H163911   1.287   0.892  13.003  0.7841 -1.0814  0.8977
14140TIP3    H263912   1.417   0.959  12.964 -1.4387  1.7848 -2.2079
14141TIP3   OH263913   4.471   5.990   4.853 -0.0758  0.1098 -0.3155
14141TIP3    H163914   4.388   6.018   4.890 -1.6447 -0.8914 -2.8456
14141TIP3    H263915   4.520   6.071   4.841 -0.0451  0.5987  2.4175
14142TIP3   OH263916   4.814   6.369   5.171 -0.2649 -0.2317  0.1067
14142TIP3    H163917   4.869   6.353   5.247  0.9899  0.4033 -0.6334
14142TIP3    H263918   4.777   6.283   5.149  0.0759 -0.5824  0.8776
14143TIP3   OH263919   0.191   5.699  10.902 -0.2497 -0.2715  0.1896
14143TIP3    H163920   0.180   5.752  10.823 -0.7238  0.6675  0.8756
14143TIP3    H263921   0.282   5.668  10.897 -0.1557  0.0946 -0.5211
14144TIP3   OH263922   1.700   4.388   2.080 -0.4534  0.1150 -0.2926
14144TIP3    H163923   1.714   4.427   1.994  1.3284  0.1545 -0.0182
14144TIP3    H263924   1.652   4.307   2.063  0.4352 -0.1973 -1.3822
14145TIP3   OH263925   6.314   3.177   0.354 -0.4307 -0.1857  0.1187
14145TIP3    H163926   6.254   3.249   0.374  0.3723  0.1180  1.6646
14145TIP3    H263927   6.287   3.145   0.268 -1.6499  1.0937 -0.0042
14146TIP3   OH263928   5.358   0.002  14.609 -0.4672  0.2875 -0.8618
14146TIP3    H163929   5.353  -0.014  14.704  0.3276  0.5033 -0.7761
14146TIP3    H263930   5.267  -0.004  14.579 -0.8702  1.2551  0.0802
14147TIP3   OH263931   2.712   5.971  12.524  0.0055  0.5446 -0.0024
14147TIP3    H163932   2.728   5.898  12.584  0.8079  0.6690 -0.0513
14147TIP3    H263933   2.700   6.046  12.581  1.4171  0.7879  0.0151
14148TIP3   OH263934   2.046   5.887   0.686  0.2585 -0.0880 -0.0320
14148TIP3    H163935   2.125   5.927   0.723  0.6210  0.6953 -1.5718
14148TIP3    H263936   1.978   5.903   0.752  1.7977 -2.8896  2.4856
14149TIP3   OH263937   4.609   1.327  16.034  0.0115 -0.3945 -0.4456
14149TIP3    H163938   4.593   1.236  16.057 -0.1144  0.1545  1.9082
14149TIP3    H263939   4.703   1.332  16.017  0.1122 -0.8373 -0.0168
14150TIP3   OH263940   2.562   0.139   6.521  0.0641  0.1424 -0.3995
14150TIP3    H163941   2.657   0.154   6.526  0.0885 -0.4215  1.1712
14150TIP3    H263942   2.528   0.219   6.481  0.9597  1.3600  1.1567
14151TIP3   OH263943   2.775   1.890  11.482 -0.3691  0.5115  0.1766
14151TIP3    H163944   2.854   1.904  11.535  0.4293 -1.4271 -0.4278
14151TIP3    H263945   2.761   1.974  11.438  2.9307  0.2755 -1.7055
14152TIP3   OH263946   0.963   4.132  14.084 -0.4826 -0.4712 -0.2295
14152TIP3    H163947   1.037   4.105  14.138 -1.4634 -1.0894  0.8555
14152TIP3    H263948   0.924   4.205  14.131 -0.1700  0.3111 -1.1545
14153TIP3   OH263949   6.511   3.373   4.033  0.6847 -0.0168  0.3334
14153TIP3    H163950   6.427   3.359   3.990  0.6388  1.1519 -0.0112
14153TIP3    H263951   6.490   3.389   4.125  0.1051  3.7074 -0.2892
14154TIP3   OH263952   4.451   6.149  16.535 -0.0269 -0.0698  0.3819
14154TIP3    H163953   4.436   6.064  16.577 -1.3772  0.1734  0.4296
14154TIP3    H263954   4.444   6.213  16.606  1.4284  0.0805  0.4309
14155TIP3   OH263955   3.908   4.923   2.354 -0.3577 -0.0111  0.2155
14155TIP3    H163956   3.856   4.873   2.417 -0.1066  0.6566  0.9643
14155TIP3    H263957   3.999   4.911   2.382 -0.1371 -0.6611 -0.7175
14156TIP3   OH263958   1.645   3.532   4.446  0.2521 -0.3043  0.2855
14156TIP3    H163959   1.620   3.602   4.386 -1.0400  0.3443  1.5163
14156TIP3    H263960   1.714   3.571   4.500 -0.8609  0.2598  1.3467
14157TIP3   OH263961   2.611   6.659   4.660 -0.1176 -0.0056 -0.1448
14157TIP3    H163962   2.590   6.595   4.728 -0.6227 -0.1591 -0.4377
14157TIP3    H263963   2.529   6.707   4.647 -0.3693 -0.7438 -1.4617
14158TIP3   OH263964   1.422   0.095   1.157 -0.5959 -0.2202 -0.0350
14158TIP3    H163965   1.328   0.093   1.142 -0.7293 -1.1600  0.8012
14158TIP3    H263966   1.451   0.177   1.117 -1.9419  0.6545  0.6686
14159TIP3   OH263967   3.877   0.492  14.794 -0.2633 -0.5311  0.0461
14159TIP3    H163968   3.876   0.412  14.743 -0.2097 -0.1769 -0.5254
14159TIP3    H263969   3.794   0.493  14.842 -1.7461  0.5967 -2.3786
14160TIP3   OH263970   4.595   5.487   0.448  0.5894  0.0588  0.3901
14160TIP3    H163971   4.605   5.556   0.513 -0.6079 -0.2254  0.9066
14160TIP3    H263972   4.660   5.421   0.473  1.3600  0.7308  0.2143
14161TIP3   OH263973   1.871   5.023   5.384  0.2687 -0.1101 -0.6392
14161TIP3    H163974   1.800   5.087   5.392  0.7597  0.4399 -0.7160
14161TIP3    H263975   1.836   4.945   5.427  0.0640  0.5330  0.4039
14162TIP3   OH263976   0.640   4.242  11.916 -0.8520  0.5726  0.4951
14162TIP3    H163977   0.661   4.254  11.823 -0.1130  0.5109  0.6477
14162TIP3    H263978   0.718   4.272  11.962 -1.1563  0.4543  1.0970
14163TIP3   OH263979   3.023   5.401  15.763 -0.3714 -0.1189 -0.6882
14163TIP3    H163980   3.040   5.311  15.735 -1.5587 -0.4146 -0.5204
14163TIP3    H263981   3.013   5.395  15.858 -0.9675  0.1004 -0.7350
14164TIP3   OH263982   3.745   5.781  10.558  0.1026 -0.2219 -0.2370
14164TIP3    H163983   3.727   5.734  10.640 -0.9991 -0.1528 -0.4191
14164TIP3    H263984   3.825   5.742  10.525  0.0612 -0.8878  0.4156
14165TIP3   OH263985   4.427   6.355  11.274  0.2723 -0.5731 -0.3248
14165TIP3    H163986   4.471   6.414  11.335  0.3767 -0.6858 -0.2900
14165TIP3    H263987   4.341   6.394  11.261  0.2464 -0.5527 -0.1005
14166TIP3   OH263988   0.747   2.869   5.637 -0.0579 -0.1616  0.0144
14166TIP3    H163989   0.808   2.913   5.578 -0.4372  0.0501 -0.2190
14166TIP3    H263990   0.703   2.803   5.583  0.1798 -0.5247  0.2540
14167TIP3   OH263991   2.939   2.300   4.577 -0.4862 -0.0234  0.2062
14167TIP3    H163992   2.858   2.350   4.581 -0.1248  0.5374  0.4915
14167TIP3    H263993   2.911   2.209   4.591 -0.9284  0.2893  1.4309
14168TIP3   OH263994   1.975   3.281  15.408  0.4277 -0.1291  0.0475
14168TIP3    H163995   2.020   3.217  15.354  0.9091 -1.2701  1.7052
14168TIP3    H263996   1.960   3.236  15.491  0.3575  1.7449  1.1249
14169TIP3   OH263997   1.420   2.249  15.881  0.1307  0.6811  0.2777
14169TIP3    H163998   1.500   2.212  15.845  0.9322  1.2917  1.3755
14169TIP3    H263999   1.390   2.186  15.946  0.9661  1.4578  1.4558
14170TIP3   OH264000   5.438   4.596   0.346 -0.2601 -0.6126  0.3194
14170TIP3    H164001   5.343   4.603   0.350 -0.2174  1.1529 -0.6372
14170TIP3    H264002   5.461   4.632   0.260  1.2466 -1.4420  0.3396
14171TIP3   OH264003   5.161   1.691  13.144 -0.2621 -0.1874  0.2804
14171TIP3    H164004   5.119   1.721  13.225 -0.0147 -0.8592  0.6694
14171TIP3    H264005   5.253   1.716  13.154 -0.2159 -0.3410  0.2508
14172TIP3   OH264006   6.154   1.843  12.703 -0.5770  0.0706  0.0499
14172TIP3    H164007   6.150   1.923  12.651  0.9707  0.4915  0.5048
14172TIP3    H264008   6.064   1.826  12.729 -0.9205  1.7366  0.0454
14173TIP3   OH264009   6.326   2.611   2.819  0.1452  0.7490 -0.1229
14173TIP3    H164010   6.302   2.704   2.818  0.0893  0.7359 -0.0367
14173TIP3    H264011   6.244   2.565   2.803  0.0878  0.7004  0.2937
14174TIP3   OH264012   4.862   3.997   2.745  0.0346 -0.3042  0.3045
14174TIP3    H164013   4.956   3.996   2.764 -0.2977 -1.6634  2.1855
14174TIP3    H264014   4.854   3.951   2.661  0.9300 -2.0307  1.1110
14175TIP3   OH264015   4.109   6.466  13.240 -0.1148  0.1420  0.0216
14175TIP3    H164016   4.146   6.448  13.327  0.7536 -0.8464 -0.5332
14175TIP3    H264017   4.115   6.562  13.231 -0.8347  0.3309  1.3080
14176TIP3   OH264018   0.161   0.477   6.463  0.2688 -0.1304  0.7868
14176TIP3    H164019   0.069   0.479   6.491  0.6219  0.3227  1.9756
14176TIP3    H264020   0.158   0.494   6.369 -1.0395 -2.6371  0.2846
14177TIP3   OH264021   1.365   4.961   6.357 -0.4428 -0.6416  0.2573
14177TIP3    H164022   1.336   4.972   6.266 -0.4526  2.7020  0.5512
14177TIP3    H264023   1.363   4.866   6.371  0.8656 -1.4409 -3.6208
14178TIP3   OH264024   3.101   0.625   1.998 -0.5695  0.0005  0.0195
14178TIP3    H164025   3.138   0.549   2.043 -1.9253 -0.2867  0.7008
14178TIP3    H264026   3.054   0.589   1.923 -0.7542  0.2197  0.0294
14179TIP3   OH264027   4.452   1.143  16.990  0.8033  0.2234  0.5212
14179TIP3    H164028   4.389   1.184  17.050  0.5648 -0.6002  0.8518
14179TIP3    H264029   4.475   1.212  16.928 -0.8624  0.3939  0.0382
14180TIP3   OH264030   6.112   3.819  17.232 -0.6992 -0.0714  0.0238
14180TIP3    H164031   6.167   3.811  17.310  0.1055  0.6992 -0.4412
14180TIP3    H264032   6.111   3.913  17.214 -1.4634 -0.1699 -0.4879
14181TIP3   OH264033   3.650   4.403  14.328 -0.1917 -0.0427  0.1412
14181TIP3    H164034   3.598   4.328  14.358 -0.9513 -0.4327 -2.0082
14181TIP3    H264035   3.738   4.385  14.360 -0.6946 -1.0210  1.0499
14182TIP3   OH264036   1.555   0.540  13.540  0.0397 -0.6277  0.1669
14182TIP3    H164037   1.557   0.588  13.457  1.2203 -2.0139 -0.6616
14182TIP3    H264038   1.507   0.460  13.520 -0.4838 -0.5527  1.0833
14183TIP3   OH264039   3.368   1.372  15.290  0.4267 -0.2085 -0.0843
14183TIP3    H164040   3.340   1.459  15.318 -0.3031 -0.5707  0.3311
14183TIP3    H264041   3.294   1.316  15.309  0.8535 -0.9063 -0.4587
14184TIP3   OH264042   1.329   3.757  16.922  0.2659  0.6117 -0.6115
14184TIP3    H164043   1.285   3.744  16.838 -0.3829 -0.3706 -0.1415
14184TIP3    H264044   1.258   3.774  16.984  0.0889 -3.7217  0.7247
14185TIP3   OH264045   5.016   0.607   5.941  0.6349  0.1482 -0.1838
14185TIP3    H164046   5.009   0.511   5.942  0.3737  0.1583 -0.7067
14185TIP3    H264047   4.986   0.634   6.028 -0.9066 -0.1468 -0.6035
14186TIP3   OH264048   3.826   6.514   3.422  0.4138 -0.0477 -0.2745
14186TIP3    H164049   3.759   6.535   3.358 -1.7453 -1.9972  1.1679
14186TIP3    H264050   3.825   6.587   3.484  1.3640  1.0587 -1.5214
14187TIP3   OH264051   2.793   0.930   3.180  0.1557  0.1786  0.4391
14187TIP3    H164052   2.885   0.935   3.207  0.4892 -2.7808  0.2228
14187TIP3    H264053   2.786   0.989   3.105  2.7040 -1.6941 -1.4495
14188TIP3   OH264054   0.382   3.895  12.508 -0.4382 -0.5168  0.3027
14188TIP3    H164055   0.349   3.820  12.459  0.6824 -0.4057 -0.6616
14188TIP3    H264056   0.353   3.971  12.457  0.2333 -0.3810  0.1102
14189TIP3   OH264057   0.966   2.414   5.961 -0.2167 -0.2568 -0.0415
14189TIP3    H164058   0.928   2.479   6.020  0.7886  0.1909  0.1404
14189TIP3    H264059   0.916   2.334   5.977 -0.8812  0.2346  0.3852
14190TIP3   OH264060   2.293   1.614   5.762  0.7541 -0.2316 -0.1282
14190TIP3    H164061   2.381   1.649   5.778  0.2640  1.4873 -0.9350
14190TIP3    H264062   2.253   1.607   5.848  1.4785 -0.4918  0.1952
14191TIP3   OH264063   4.679   5.758   3.814  0.3200  0.3716 -0.5928
14191TIP3    H164064   4.673   5.683   3.872 -1.9308  0.6009 -0.4548
14191TIP3    H264065   4.773   5.774   3.805  0.7700 -0.5773  1.7775
14192TIP3   OH264066   1.854   1.922  11.006  0.3336 -0.2310 -0.4010
14192TIP3    H164067   1.930   1.979  11.022 -0.4807  0.5332  0.9542
14192TIP3    H264068   1.787   1.982  10.973 -0.2116 -0.5910  0.0475
14193TIP3   OH264069   5.496   4.164   1.443 -0.4677 -0.1357 -0.5753
14193TIP3    H164070   5.564   4.128   1.385  0.8782  0.2751  0.6769
14193TIP3    H264071   5.465   4.242   1.396 -0.6758 -0.7781 -1.5401
14194TIP3   OH264072   3.054   5.243  12.607 -0.0814 -0.0959  0.3420
14194TIP3    H164073   3.035   5.306  12.537  0.0391 -1.2214 -0.7333
14194TIP3    H264074   3.037   5.157  12.568  1.3895 -0.8374  1.2375
14195TIP3   OH264075   0.792   3.733  14.994 -0.3138 -0.3563 -0.3674
14195TIP3    H164076   0.861   3.792  15.025 -0.0199 -1.9682  2.3253
14195TIP3    H264077   0.770   3.767  14.907  0.7713  2.8578  0.4428
14196TIP3   OH264078   2.432   0.972   0.566 -0.1935 -0.0382  0.5813
14196TIP3    H164079   2.369   0.903   0.548 -0.8264  1.0239 -1.7213
14196TIP3    H264080   2.511   0.926   0.595 -1.4690 -1.4903  1.8844
14197TIP3   OH264081   0.930   0.991  11.269  0.0106  0.0628  0.5001
14197TIP3    H164082   1.014   0.946  11.269 -0.7476 -1.4382  0.9798
14197TIP3    H264083   0.936   1.053  11.341  0.2031 -1.0835  1.5040
14198TIP3   OH264084   0.113   3.619   0.979 -0.5296  0.2378 -0.0719
14198TIP3    H164085   0.147   3.567   1.052  2.0449  2.0239  0.1553
14198TIP3    H264086   0.126   3.710   1.007  1.0355  1.0037 -2.8755
14199TIP3   OH264087   3.489   4.132  11.647 -0.3192  0.0225  0.1690
14199TIP3    H164088   3.473   4.164  11.558  0.5523 -0.2611 -0.1001
14199TIP3    H264089   3.572   4.173  11.673  1.2838 -2.5883 -0.4993
14200TIP3   OH264090   3.569   2.154   1.423  0.1687 -0.4672 -0.0858
14200TIP3    H164091   3.479   2.138   1.450 -0.0711  1.4104  0.3671
14200TIP3    H264092   3.563   2.168   1.328  0.1460 -1.3008 -0.2151
14201TIP3   OH264093   1.873   0.160  12.388  0.3928 -0.2759  0.1163
14201TIP3    H164094   1.954   0.202  12.418  1.5019 -1.3208 -1.2708
14201TIP3    H264095   1.829   0.227  12.336  0.2398  0.3668  1.0439
14202TIP3   OH264096   2.509   2.432  13.717 -0.1317  0.8008 -0.4786
14202TIP3    H164097   2.510   2.469  13.629  1.4691  0.3708 -0.6618
14202TIP3    H264098   2.592   2.459  13.756 -0.6681  0.7106  0.8005
14203TIP3   OH264099   2.975   3.387  14.951 -0.2038 -0.2278  0.2652
14203TIP3    H164100   2.917   3.420  15.020 -1.4213  0.7268 -1.1421
14203TIP3    H264101   2.926   3.317  14.909  0.7203 -1.1252  0.6559
14204TIP3   OH264102   3.885   1.389   4.633  0.3975  0.9493 -0.5492
14204TIP3    H164103   3.825   1.433   4.573  0.2488  1.8952  0.2782
14204TIP3    H264104   3.945   1.341   4.575 -1.4025 -0.4183 -1.4001
14205TIP3   OH264105   3.490   2.790  13.338  0.1354  0.2489 -0.4955
14205TIP3    H164106   3.495   2.702  13.302  0.4052  0.1780 -0.2925
14205TIP3    H264107   3.476   2.777  13.432  0.1583  0.4204 -0.4673
14206TIP3   OH264108   3.554   5.907   5.161 -0.1211 -0.1775  0.5229
14206TIP3    H164109   3.520   5.992   5.188  0.9540  0.2120  0.6942
14206TIP3    H264110   3.481   5.847   5.174 -1.8039  1.1192 -2.0818
14207TIP3   OH264111   6.279   1.335  12.603 -0.0583 -0.1889  0.0234
14207TIP3    H164112   6.206   1.380  12.561 -2.4057 -1.9568  1.9260
14207TIP3    H264113   6.254   1.243  12.602  1.7949 -0.7639  1.4676
14208TIP3   OH264114   0.576   4.532  15.109 -0.2781 -0.0707  0.1367
14208TIP3    H164115   0.600   4.461  15.049  0.6499  0.7351 -0.4622
14208TIP3    H264116   0.658   4.558  15.150 -0.7877 -0.1030  1.2242
14209TIP3   OH264117   2.212   0.026   1.446  0.1051 -0.2649  0.0113
14209TIP3    H164118   2.251  -0.027   1.376  0.8925  0.3641 -0.0428
14209TIP3    H264119   2.286   0.052   1.500 -0.3349  0.3733  0.3145
14210TIP3   OH264120   3.675   2.886   1.263 -0.3972  0.4621 -0.2673
14210TIP3    H164121   3.673   2.884   1.358  0.8728  2.8502 -0.1054
14210TIP3    H264122   3.594   2.931   1.239 -0.4870  0.2967 -0.2702
14211TIP3   OH264123   2.191   2.208   5.883 -0.2208 -0.5825  0.2532
14211TIP3    H164124   2.199   2.291   5.931 -0.7654 -0.1509 -0.3787
14211TIP3    H264125   2.115   2.165   5.924  1.0955 -1.5990  1.7529
14212TIP3   OH264126   2.412   3.577  15.400  0.2294  0.0890  0.1774
14212TIP3    H164127   2.431   3.670  15.392  0.0959  0.1687  0.7175
14212TIP3    H264128   2.318   3.572  15.418  0.4815 -0.0448  1.6250
14213TIP3   OH264129   3.862   2.067   2.858  0.4094 -0.2751 -0.8688
14213TIP3    H164130   3.824   2.069   2.771  0.0052  2.9604 -0.7222
14213TIP3    H264131   3.952   2.094   2.846  0.4817 -0.2503 -0.3133
14214TIP3   OH264132   4.818   1.110  14.898  0.0719 -0.7175  0.2224
14214TIP3    H164133   4.775   1.194  14.884  0.2597 -0.3695  1.5738
14214TIP3    H264134   4.795   1.057  14.821 -2.1899 -0.3306  0.5822
14215TIP3   OH264135   3.982   6.468  12.666  0.0795 -0.8425 -0.1099
14215TIP3    H164136   3.893   6.465  12.632 -0.0609 -1.3581  0.3021
14215TIP3    H264137   4.037   6.457  12.588 -0.1758  0.4066 -0.5042
14216TIP3   OH264138   6.254   0.628  12.139 -0.5584  0.0987 -0.0761
14216TIP3    H164139   6.215   0.550  12.178 -0.2875 -0.4110 -0.7918
14216TIP3    H264140   6.182   0.691  12.133 -0.7316 -0.0176  0.6937
14217TIP3   OH264141   3.821   6.415   6.423 -0.0378 -0.4352 -0.0324
14217TIP3    H164142   3.856   6.484   6.478 -1.0993  0.0881  0.0130
14217TIP3    H264143   3.890   6.349   6.420  1.8418  1.4703 -1.7076
14218TIP3   OH264144   5.206   2.884  15.389  0.1625 -0.7902  0.8324
14218TIP3    H164145   5.256   2.952  15.344  1.8957 -2.0582  0.7598
14218TIP3    H264146   5.123   2.927  15.411  0.8517  1.0764  0.0408
14219TIP3   OH264147   0.426   0.946  16.413 -0.0569  0.1943  0.2368
14219TIP3    H164148   0.413   0.851  16.409 -0.6914  0.1223  2.6496
14219TIP3    H264149   0.341   0.983  16.391 -0.2298  0.1505  0.8225
14220TIP3   OH264150   3.537   1.838  12.966  0.7957 -0.4834 -0.5193
14220TIP3    H164151   3.567   1.922  12.929  1.2135 -0.2489  0.3195
14220TIP3    H264152   3.589   1.772  12.920  0.8932 -0.2340 -0.7695
14221TIP3   OH264153   4.508   1.020  15.002  0.1009 -0.3158 -0.2371
14221TIP3    H164154   4.508   1.073  15.082  1.0130  1.3512 -1.3138
14221TIP3    H264155   4.526   1.081  14.932  4.4867 -2.4221 -1.2616
14222TIP3   OH264156   0.891   3.012  12.353 -0.4580 -0.5197 -0.6691
14222TIP3    H164157   0.952   2.970  12.414 -0.0351 -0.1686 -0.8385
14222TIP3    H264158   0.826   3.054  12.410 -2.3640 -3.4427 -0.5105
14223TIP3   OH264159   1.786   5.132  12.332 -0.4734  0.1198  0.7498
14223TIP3    H164160   1.799   5.070  12.404 -0.1717  0.2828  0.8376
14223TIP3    H264161   1.737   5.082  12.266  0.6223 -0.5334  0.4018
14224TIP3   OH264162   2.400   3.798   0.168  0.4351 -0.1865  0.0291
14224TIP3    H164163   2.402   3.736   0.241 -1.1937  0.1560  0.3959
14224TIP3    H264164   2.409   3.743   0.090 -1.8255 -1.0571  0.3011
14225TIP3   OH264165   2.538   0.495   0.661  0.2948  0.0789 -0.0085
14225TIP3    H164166   2.624   0.491   0.619  0.2925 -1.7495  0.0533
14225TIP3    H264167   2.488   0.425   0.619 -1.7312  2.1052 -1.1641
14226TIP3   OH264168   2.229   4.003   1.032  0.4705  0.1772 -0.0026
14226TIP3    H164169   2.279   4.079   0.999 -0.7564  2.3800  2.7789
14226TIP3    H264170   2.266   3.986   1.118 -1.1445 -0.5299  0.5846
14227TIP3   OH264171   3.880   5.852  16.248 -0.2464 -0.0865  0.2900
14227TIP3    H164172   3.884   5.802  16.329 -0.7250 -1.5713 -0.5732
14227TIP3    H264173   3.954   5.913  16.253  0.1784 -0.6898  1.4898
14228TIP3   OH264174   0.712   3.373  16.760 -0.3572  0.6610  0.1993
14228TIP3    H164175   0.738   3.282  16.744 -0.6919  0.3541  1.3102
14228TIP3    H264176   0.652   3.368  16.835 -0.5924  1.7699  0.1019
14229TIP3   OH264177   2.585   5.143  14.933  0.9029  0.2176  0.0527
14229TIP3    H164178   2.499   5.176  14.907  0.8530  1.0752  1.2120
14229TIP3    H264179   2.627   5.218  14.975  2.0382 -0.3300 -0.0716
14230TIP3   OH264180   3.048   6.663  16.508 -0.1286  0.2705  0.4791
14230TIP3    H164181   3.116   6.726  16.531 -0.4634  1.8005 -2.2887
14230TIP3    H264182   2.967   6.715  16.505 -0.6083 -0.5082 -0.7621
14231TIP3   OH264183   2.702   0.866   0.915 -0.4721  0.1656  0.1330
14231TIP3    H164184   2.656   0.804   0.972  0.2900 -0.5280  0.0085
14231TIP3    H264185   2.692   0.951   0.958 -1.6639 -0.0081  0.2243
14232TIP3   OH264186   1.574   5.391  13.020  0.1248 -0.0262 -0.0078
14232TIP3    H164187   1.606   5.320  12.964  0.0953 -0.6928  0.7988
14232TIP3    H264188   1.484   5.368  13.040 -0.2858  0.8889 -0.7436
14233TIP3   OH264189   0.737   6.258  13.748 -0.2362 -0.4622  0.4206
14233TIP3    H164190   0.692   6.180  13.714 -2.2960  0.9331 -0.2728
14233TIP3    H264191   0.706   6.265  13.838  0.1657 -0.6004  0.5684
14234TIP3   OH264192   0.678   1.705   5.207  0.3685 -0.1087 -0.0498
14234TIP3    H164193   0.656   1.682   5.117  0.3930  0.7981 -0.2895
14234TIP3    H264194   0.616   1.655   5.260  0.1257 -0.3761 -0.5762
14235TIP3   OH264195   5.288   4.897  13.172  0.1870 -0.0963  0.2304
14235TIP3    H164196   5.362   4.926  13.119 -0.4499 -1.2119 -1.3447
14235TIP3    H264197   5.312   4.808  13.199  0.2843  0.2773  1.4466
14236TIP3   OH264198   1.962   4.306   4.057  0.1322  0.0679 -0.3960
14236TIP3    H164199   1.884   4.307   4.114  0.0119 -1.8620 -0.4637
14236TIP3    H264200   1.991   4.215   4.058  1.0857  0.3130 -2.1661
14237TIP3   OH264201   5.255   6.631   0.793  0.4331 -0.0437 -0.3011
14237TIP3    H164202   5.325   6.658   0.733  1.2584  0.0995  0.7076
14237TIP3    H264203   5.176   6.671   0.757  0.6356 -1.1686 -2.1284
14238TIP3   OH264204   0.163   5.377   3.298 -0.0203  0.0862 -0.7225
14238TIP3    H164205   0.147   5.417   3.384  1.1569 -2.0728  0.5859
14238TIP3    H264206   0.256   5.356   3.299 -0.0672 -0.3495 -2.4086
14239TIP3   OH264207   4.803   5.027   2.623 -0.3612  0.3912  0.1615
14239TIP3    H164208   4.873   5.067   2.571 -0.0484 -0.5476 -0.1620
14239TIP3    H264209   4.786   5.090   2.692  1.7616  0.0646  1.0703
14240TIP3   OH264210   3.928   3.193  15.391  0.0186  0.1790  0.0976
14240TIP3    H164211   3.903   3.109  15.428 -0.6072  0.1482 -0.3825
14240TIP3    H264212   3.860   3.213  15.327  1.5295 -0.2237 -1.7392
14241TIP3   OH264213   3.711   1.723  15.390  0.4431 -0.3700 -0.4091
14241TIP3    H164214   3.786   1.744  15.335 -0.2674  1.6732 -0.6884
14241TIP3    H264215   3.638   1.715  15.329  0.0119 -0.0190  0.0524
14242TIP3   OH264216   4.086   4.511  14.564  0.2866 -0.1052 -0.2153
14242TIP3    H164217   4.173   4.522  14.603  0.5550  0.5228 -0.9889
14242TIP3    H264218   4.046   4.597  14.571 -0.4934 -0.5201  0.6268
14243TIP3   OH264219   6.089   4.520   2.348 -0.1429 -0.5859 -0.3900
14243TIP3    H164220   6.168   4.475   2.378  0.2045 -0.7333 -1.4793
14243TIP3    H264221   6.105   4.612   2.366 -0.3341 -0.7541  0.7054
14244TIP3   OH264222   3.805   5.710   4.322  0.5514 -0.2348 -0.3210
14244TIP3    H164223   3.754   5.777   4.366 -1.0767 -0.7365 -1.3437
14244TIP3    H264224   3.894   5.720   4.356  0.2503  2.1025 -0.0959
14245TIP3   OH264225   4.772   1.857   1.962 -0.0093 -0.4477 -0.8154
14245TIP3    H164226   4.711   1.896   1.899 -0.6904 -1.2218 -0.6452
14245TIP3    H264227   4.749   1.898   2.045 -1.9523 -2.4526 -0.2766
14246TIP3   OH264228   3.235   6.526   4.493 -0.0241  0.0942 -0.4650
14246TIP3    H164229   3.238   6.592   4.423 -0.2757 -0.5474 -1.0939
14246TIP3    H264230   3.155   6.546   4.542  0.5670  1.0394  0.1493
14247TIP3   OH264231   3.643   6.556  10.639  0.0108 -0.2932 -0.3153
14247TIP3    H164232   3.656   6.494  10.567  0.0219 -0.2898 -0.3159
14247TIP3    H264233   3.731   6.574  10.672  0.1700  0.8930 -1.3064
14248TIP3   OH264234   2.586   2.233  14.916 -0.1893 -0.3144  0.2969
14248TIP3    H164235   2.598   2.181  14.995  0.7602 -0.6584 -0.0567
14248TIP3    H264236   2.592   2.170  14.844 -3.9987 -0.5288 -0.0231
14249TIP3   OH264237   3.400   3.438   2.171 -0.1236  0.1388 -0.2333
14249TIP3    H164238   3.415   3.455   2.264  1.9268  1.1805 -0.7083
14249TIP3    H264239   3.330   3.372   2.170 -0.0479 -0.0495  2.0341
14250TIP3   OH264240   4.426   5.451  12.486  0.1028 -0.1276  0.0320
14250TIP3    H164241   4.364   5.383  12.459  1.3084 -0.9885 -0.6640
14250TIP3    H264242   4.487   5.458  12.413 -0.2759  2.1024 -0.1324
14251TIP3   OH264243   4.227   3.847   4.029  0.6651 -0.2227  0.4465
14251TIP3    H164244   4.286   3.819   3.959 -0.5892  1.9886 -1.6474
14251TIP3    H264245   4.147   3.798   4.014  0.1557  0.7512 -0.1907
14252TIP3   OH264246   1.718   0.053  12.616  0.5737  0.0818  1.0451
14252TIP3    H164247   1.780   0.040  12.687  1.3639 -2.7942 -0.0219
14252TIP3    H264248   1.772   0.048  12.537 -0.7963 -1.0369  0.1452
14253TIP3   OH264249   1.588   5.139  16.333 -0.4483  0.3707 -0.7373
14253TIP3    H164250   1.661   5.202  16.337 -0.4499  0.3880 -0.9727
14253TIP3    H264251   1.602   5.092  16.251  0.2351 -0.7617 -0.0060
14254TIP3   OH264252   1.694   4.880  10.842 -0.3544 -0.0124  0.0926
14254TIP3    H164253   1.701   4.801  10.896  0.8024 -0.0627 -0.1148
14254TIP3    H264254   1.606   4.874  10.803 -1.2553  0.0809  2.0013
14255TIP3   OH264255   4.929   5.806   3.161 -0.2460 -0.0721  0.2104
14255TIP3    H164256   4.946   5.890   3.203 -0.2038  0.1762 -0.2856
14255TIP3    H264257   5.016   5.770   3.144 -0.2347  0.2696 -0.5119
14256TIP3   OH264258   3.175   0.401   4.699  0.2014 -0.2393  0.0949
14256TIP3    H164259   3.151   0.483   4.655 -0.1641 -0.0673  0.6078
14256TIP3    H264260   3.212   0.347   4.629 -2.4757 -0.8585 -0.9650
14257TIP3   OH264261   4.962   4.415   6.709 -0.1718  0.1646 -0.4191
14257TIP3    H164262   4.876   4.457   6.716  0.0438  0.6500 -0.6470
14257TIP3    H264263   4.971   4.365   6.790  0.6267  2.5533  1.0826
14258TIP3   OH264264   1.321   4.362  16.828 -0.0260 -0.2725 -0.3002
14258TIP3    H164265   1.385   4.409  16.881 -1.1849  0.8607  0.1694
14258TIP3    H264266   1.275   4.306  16.891 -0.6103  0.1841 -0.3139
14259TIP3   OH264267   0.613   2.167   6.219  0.0686  0.2927 -0.2141
14259TIP3    H164268   0.548   2.202   6.279 -0.0577  0.6173 -0.5419
14259TIP3    H264269   0.575   2.177   6.132 -0.7606 -2.2985 -0.2234
14260TIP3   OH264270   2.148   2.539  14.760  0.0314  0.4681  0.1607
14260TIP3    H164271   2.117   2.492  14.838 -0.7119  1.1058  0.2562
14260TIP3    H264272   2.172   2.626  14.792  0.9900  0.3088 -0.0938
14261TIP3   OH264273   4.691   1.075   5.282 -0.1396 -0.0743 -0.3440
14261TIP3    H164274   4.631   1.004   5.304  1.0758 -1.3606 -1.0106
14261TIP3    H264275   4.768   1.031   5.247  0.3586  1.6156 -1.4975
14262TIP3   OH264276   4.371   3.611  11.549  0.5493  0.1037  0.2554
14262TIP3    H164277   4.403   3.588  11.636  1.7040 -1.6740 -0.5898
14262TIP3    H264278   4.440   3.583  11.490 -0.5233  0.6351 -1.3066
14263TIP3   OH264279   6.198   0.279   4.029 -0.3419  0.0682  0.2309
14263TIP3    H164280   6.256   0.217   4.074 -0.4032 -0.8514 -0.8945
14263TIP3    H264281   6.255   0.321   3.964 -0.0372  2.0237  1.6782
14264TIP3   OH264282   2.018   3.497   3.059 -0.1953 -0.3189  0.2493
14264TIP3    H164283   2.097   3.545   3.084 -2.2314  2.6544  1.4777
14264TIP3    H264284   1.996   3.446   3.138  0.1465 -0.6778  0.1157
14265TIP3   OH264285   4.114   6.322   2.361  0.1242  0.0950 -0.2975
14265TIP3    H164286   4.133   6.413   2.339 -0.8430  0.5572  0.6651
14265TIP3    H264287   4.191   6.274   2.334  1.7498  1.5507  1.4534
14266TIP3   OH264288   2.434   0.881  12.822  0.1295 -0.1045  0.4735
14266TIP3    H164289   2.468   0.969  12.836  1.7893 -0.8303  1.3793
14266TIP3    H264290   2.470   0.855  12.737 -0.7620  0.2395 -0.0256
14267TIP3   OH264291   3.534   0.527  12.363 -0.3949 -0.2045 -0.1510
14267TIP3    H164292   3.484   0.450  12.334  1.3361 -0.8505 -1.5605
14267TIP3    H264293   3.559   0.571  12.283  0.0919  0.9077  0.5920
14268TIP3   OH264294   4.791   4.677   6.835 -0.5954  0.4476 -0.1266
14268TIP3    H164295   4.748   4.656   6.917 -0.4410  1.1403  0.1423
14268TIP3    H264296   4.758   4.613   6.772 -1.4847  0.5482  0.2372
14269TIP3   OH264297   3.464   2.633   1.381  0.1602  0.2762 -0.3281
14269TIP3    H164298   3.532   2.637   1.449 -0.1406  1.6872 -0.0696
14269TIP3    H264299   3.412   2.712   1.395 -1.9342 -1.0600 -0.1169
14270TIP3   OH264300   5.973   1.186   1.464 -0.3317 -0.2465  0.2416
14270TIP3    H164301   5.995   1.093   1.459  2.8367  0.4524 -2.5776
14270TIP3    H264302   5.908   1.199   1.396 -1.9071 -0.5621  1.6285
14271TIP3   OH264303   0.498   6.522  12.280  0.3516 -0.3026 -0.6020
14271TIP3    H164304   0.498   6.599  12.223 -0.1443 -0.5396 -0.9260
14271TIP3    H264305   0.591   6.502  12.293  0.4782 -1.2518 -2.6913
14272TIP3   OH264306   0.693   4.006  14.457 -0.6492 -0.6463 -0.3523
14272TIP3    H164307   0.663   3.915  14.458 -1.7256 -0.3170  0.7432
14272TIP3    H264308   0.692   4.031  14.365 -2.2604 -1.1591 -0.5061
14273TIP3   OH264309   6.173   5.277   2.068  0.1087 -0.5308 -0.3942
14273TIP3    H164310   6.184   5.206   2.005 -0.3906 -1.9073  1.0035
14273TIP3    H264311   6.090   5.318   2.044  1.0588  0.5374 -2.0615
14274TIP3   OH264312   6.750   0.072   3.516  0.1258 -0.7817  0.6410
14274TIP3    H164313   6.737  -0.008   3.566 -0.1818 -2.1689 -1.5419
14274TIP3    H264314   6.663   0.112   3.510  0.0147 -1.0329  0.5580
14275TIP3   OH264315   1.477   5.834  15.785  0.1063 -0.3272  0.7110
14275TIP3    H164316   1.529   5.781  15.845  0.1918 -1.3825 -0.2447
14275TIP3    H264317   1.524   5.830  15.702 -1.0664 -0.6674  0.0237
14276TIP3   OH264318   6.605   1.397   5.048 -0.1900  0.0599  0.7992
14276TIP3    H164319   6.640   1.321   5.000  1.5954  0.7458  0.9515
14276TIP3    H264320   6.551   1.359   5.117 -2.8065 -0.9860 -1.5762
14277TIP3   OH264321   4.095   4.018  12.579  0.0497 -0.4672  0.5514
14277TIP3    H164322   4.085   4.048  12.489 -2.6315  0.7172  1.1400
14277TIP3    H264323   4.174   4.061  12.610  0.0267  0.5578 -0.7188
14278TIP3   OH264324   4.201   2.860   3.060  0.1990  0.1446 -0.3616
14278TIP3    H164325   4.107   2.871   3.074  0.7532  2.9393  2.1908
14278TIP3    H264326   4.229   2.799   3.129  0.3042 -0.6066 -1.0555
14279TIP3   OH264327   0.622   1.838  12.237  0.0919  0.2001 -0.2244
14279TIP3    H164328   0.593   1.838  12.146 -1.0471 -2.0918  0.0763
14279TIP3    H264329   0.555   1.888  12.284  0.1246  0.4722 -0.4634
14280TIP3   OH264330   4.764   1.846  13.253 -0.0345 -0.1459 -0.2668
14280TIP3    H164331   4.835   1.822  13.313 -0.7180 -1.0640  0.2021
14280TIP3    H264332   4.803   1.839  13.166 -0.0180 -2.4874 -0.1288
14281TIP3   OH264333   3.151   3.051   1.782 -0.4429 -0.1697 -0.4578
14281TIP3    H164334   3.096   3.125   1.756 -1.8709 -1.2979 -0.7820
14281TIP3    H264335   3.157   3.058   1.877  2.0403  2.0905 -0.6833
14282TIP3   OH264336   3.826   3.342   4.684  0.1137 -0.4576 -0.5785
14282TIP3    H164337   3.734   3.316   4.692 -0.1092  0.0872 -1.2850
14282TIP3    H264338   3.872   3.263   4.659 -0.1519 -0.7461 -0.1713
14283TIP3   OH264339   2.603   5.237  10.564 -0.1551  0.4102 -0.9837
14283TIP3    H164340   2.657   5.271  10.635 -2.2766 -1.2555  1.6179
14283TIP3    H264341   2.621   5.143  10.562 -0.2361  0.3909 -2.6404
14284TIP3   OH264342   2.119   5.985   5.408 -0.0151  0.0992 -0.1801
14284TIP3    H164343   2.128   6.080   5.411 -1.6128  0.2392  0.9879
14284TIP3    H264344   2.081   5.961   5.492  0.7994 -1.6488 -0.2563
14285TIP3   OH264345   0.516   1.255  14.365  0.0077  0.5115  0.4552
14285TIP3    H164346   0.532   1.304  14.285 -1.0625 -0.7109 -0.5510
14285TIP3    H264347   0.421   1.240  14.366 -0.0600  0.8419  2.1632
14286TIP3   OH264348   5.123   6.075   5.030 -0.4572 -0.0346 -0.3326
14286TIP3    H164349   5.179   6.006   5.066 -1.6601 -0.8409  0.0505
14286TIP3    H264350   5.059   6.092   5.099 -0.9835  0.5353 -0.9503
14287TIP3   OH264351   4.992   4.892   2.219  0.3775 -0.3491  0.4205
14287TIP3    H164352   4.942   4.960   2.265  0.5837 -0.3252  0.6106
14287TIP3    H264353   5.083   4.917   2.232  0.4506  1.4176 -2.6086
14288TIP3   OH264354   2.773   6.118  13.729 -0.2732 -0.1259  0.3842
14288TIP3    H164355   2.787   6.147  13.820  1.4289  1.9716 -0.4525
14288TIP3    H264356   2.726   6.191  13.688  0.8486 -0.0976 -0.9108
14289TIP3   OH264357   0.810   3.270   6.259 -0.1360  0.3572  0.1888
14289TIP3    H164358   0.818   3.356   6.219 -0.2748  0.0265 -0.5795
14289TIP3    H264359   0.868   3.272   6.334  0.8881  0.6877 -0.5877
14290TIP3   OH264360   0.430   2.810  14.987 -0.5329  0.2687  0.2543
14290TIP3    H164361   0.503   2.829  14.928  0.5185 -0.7543  1.1659
14290TIP3    H264362   0.408   2.718  14.969 -0.5002  0.0802  1.1173
14291TIP3   OH264363   1.291   4.576   2.012  0.2081  0.4173 -0.7177
14291TIP3    H164364   1.310   4.499   1.958  0.6958  0.5644 -0.7619
14291TIP3    H264365   1.318   4.650   1.959  1.6027  0.5205  0.0910
14292TIP3   OH264366   6.365   6.467   4.603  0.2497  0.0323  0.0328
14292TIP3    H164367   6.291   6.515   4.640  0.7363 -1.3329  3.0771
14292TIP3    H264368   6.441   6.500   4.651  1.0692 -1.2818 -0.3211
14293TIP3   OH264369   1.317   5.406   5.581 -0.1943  0.4128 -0.0092
14293TIP3    H164370   1.257   5.466   5.624  0.9115  1.2134  0.4458
14293TIP3    H264371   1.304   5.422   5.487  0.3903  1.6854  0.1090
14294TIP3   OH264372   2.340   6.641  15.303 -0.4231 -0.4778 -0.1600
14294TIP3    H164373   2.307   6.589  15.229  0.0934 -3.2175  1.3776
14294TIP3    H264374   2.433   6.620  15.306 -0.5959 -1.1552  1.7354
14295TIP3   OH264375   5.178   3.058  16.458 -0.6484 -0.5732  0.6278
14295TIP3    H164376   5.102   3.073  16.514 -2.0821  2.7941 -1.8603
14295TIP3    H264377   5.159   3.107  16.378  3.9163  0.0028 -0.3835
14296TIP3   OH264378   1.835   0.175  11.990  0.3705  0.6751  0.3181
14296TIP3    H164379   1.811   0.083  12.004 -0.2681  1.0201  1.6259
14296TIP3    H264380   1.780   0.203  11.917  1.6796 -0.3784 -1.1460
14297TIP3   OH264381   1.557   6.429  13.919 -0.1841  0.3834 -0.0027
14297TIP3    H164382   1.475   6.477  13.923  0.1149  0.8738  0.4746
14297TIP3    H264383   1.535   6.341  13.950 -1.4671 -0.9264 -4.0002
14298TIP3   OH264384   0.682   3.725   2.504 -0.8220  1.1293 -0.0932
14298TIP3    H164385   0.752   3.711   2.568  0.0558  0.8824 -1.0823
14298TIP3    H264386   0.614   3.772   2.553  0.9189  3.3509  0.3647
14299TIP3   OH264387   0.346   1.247   2.121 -0.0464  0.3442 -0.1312
14299TIP3    H164388   0.367   1.252   2.214 -0.6465  0.1439  0.0189
14299TIP3    H264389   0.296   1.328   2.104  0.0995  0.4014 -0.2898
14300TIP3   OH264390   0.306   3.488   5.551 -0.3175  0.1901 -0.6501
14300TIP3    H164391   0.215   3.468   5.530 -0.1094 -1.3985 -0.1780
14300TIP3    H264392   0.304   3.520   5.641 -0.2947 -1.0409 -0.1945
14301TIP3   OH264393   4.138   1.470   4.114 -0.2074  0.1264  0.3070
14301TIP3    H164394   4.185   1.539   4.066 -2.2312  1.8494  0.6585
14301TIP3    H264395   4.162   1.389   4.070  0.7830  1.2579 -1.3336
14302TIP3   OH264396   1.939   0.025   1.713  0.0026 -0.1384  0.0297
14302TIP3    H164397   1.950  -0.045   1.776  1.8558 -0.1692 -0.2866
14302TIP3    H264398   1.926  -0.020   1.629  1.0405 -0.1216 -0.1491
14303TIP3   OH264399   5.339   3.617   2.369  0.2776  0.2885 -0.1487
14303TIP3    H164400   5.367   3.643   2.282 -2.1595  0.0530 -1.0654
14303TIP3    H264401   5.404   3.552   2.396  0.5636 -0.3307 -2.1834
14304TIP3   OH264402   0.488   3.095  10.521  0.1324  0.0627  0.0369
14304TIP3    H164403   0.540   3.154  10.576 -1.6324  0.5927  1.2226
14304TIP3    H264404   0.435   3.153  10.466 -1.0826 -0.3769  0.6927
14305TIP3   OH264405   4.057   2.121  12.354  0.2328 -0.1598  0.2613
14305TIP3    H164406   3.969   2.149  12.328 -0.1944 -0.8527  0.9229
14305TIP3    H264407   4.044   2.036  12.395  1.4541 -1.2436 -1.4333
14306TIP3   OH264408   4.129   1.959   3.801 -0.7351  0.4472 -0.0416
14306TIP3    H164409   4.056   2.018   3.788  0.5736  2.0595 -0.4619
14306TIP3    H264410   4.112   1.885   3.743 -1.5878  1.2122 -0.7824
14307TIP3   OH264411   1.480   0.564  12.646 -0.0637 -0.3748 -0.2216
14307TIP3    H164412   1.556   0.515  12.676  0.2529 -0.7425 -1.5673
14307TIP3    H264413   1.508   0.656  12.649  0.1655 -0.4518  0.0068
14308TIP3   OH264414   1.853   5.385   4.930 -0.8855 -0.2644  0.1765
14308TIP3    H164415   1.943   5.353   4.936 -1.2449 -1.3585 -0.0716
14308TIP3    H264416   1.806   5.334   4.996 -0.8298  2.1998  2.2650
14309TIP3   OH264417   3.398   3.407   5.229  0.0726  0.0935  0.3100
14309TIP3    H164418   3.321   3.383   5.177  0.4100 -2.4215  0.8634
14309TIP3    H264419   3.373   3.489   5.272 -2.3471 -0.6962  0.5538
14310TIP3   OH264420   3.313   2.896  11.289  0.3365  0.5306  0.5711
14310TIP3    H164421   3.258   2.829  11.330 -0.7531  1.4540  0.6767
14310TIP3    H264422   3.258   2.974  11.286  0.7380  0.7987 -1.6950
14311TIP3   OH264423   5.870   1.283   1.699  0.0966  0.3746 -0.0707
14311TIP3    H164424   5.846   1.358   1.645 -0.9825 -0.0484 -0.2229
14311TIP3    H264425   5.933   1.234   1.646  0.8596  1.1927  0.0603
14312TIP3   OH264426   3.886   5.463   2.846 -0.2055  0.1567 -0.1396
14312TIP3    H164427   3.809   5.441   2.793 -0.1229 -1.4872  0.3710
14312TIP3    H264428   3.960   5.436   2.792 -0.0362  0.5115 -0.0833
14313TIP3   OH264429   4.793   2.997   5.104 -0.3253 -0.5085 -0.3151
14313TIP3    H164430   4.814   3.034   5.019 -1.7534  1.1878 -0.0030
14313TIP3    H264431   4.863   3.026   5.162  2.3285 -4.1290 -1.3533
14314TIP3   OH264432   0.231   0.666  10.892 -0.4053  0.4995  0.3475
14314TIP3    H164433   0.228   0.688  10.798  0.2355 -0.2436  0.1427
14314TIP3    H264434   0.279   0.738  10.932  0.2640  0.2907 -0.0651
14315TIP3   OH264435   1.699   4.543   5.696  0.4317 -0.3372  0.7771
14315TIP3    H164436   1.775   4.504   5.652  0.3990 -1.2310  1.4753
14315TIP3    H264437   1.698   4.502   5.783  0.3989  1.2492  1.5606
14316TIP3   OH264438   2.684   2.509   1.918 -0.3903 -0.0494 -0.2186
14316TIP3    H164439   2.757   2.474   1.970 -0.2048 -0.6945 -0.8860
14316TIP3    H264440   2.606   2.490   1.971 -0.1491 -0.0731  0.1369
14317TIP3   OH264441   1.730   0.415  12.776 -0.1748  0.0531 -0.2656
14317TIP3    H164442   1.768   0.365  12.848 -0.0995  0.1183 -0.2596
14317TIP3    H264443   1.804   0.433  12.718 -0.0356  0.8698  0.1432
14318TIP3   OH264444   1.605   5.375   0.939 -0.5308  0.0463 -0.6209
14318TIP3    H164445   1.648   5.449   0.894  1.0817  2.3819  4.0607
14318TIP3    H264446   1.514   5.403   0.950  0.0894  1.6526  1.2233
14319TIP3   OH264447   5.036   3.950   4.514  0.0490  0.6014  0.1429
14319TIP3    H164448   5.101   3.911   4.573  0.3316  1.0527  0.1429
14319TIP3    H264449   4.952   3.922   4.549  0.2474 -1.6603 -1.0113
14320TIP3   OH264450   2.878   2.178   1.765  0.7954  0.8176 -0.0519
14320TIP3    H164451   2.883   2.274   1.769 -2.1190  1.0521 -0.1666
14320TIP3    H264452   2.937   2.154   1.693  1.6075  2.4951 -0.0037
14321TIP3   OH264453   2.869   6.016  15.407 -0.3311 -0.1744 -0.5742
14321TIP3    H164454   2.779   5.988  15.388 -1.2251  1.2295  1.2434
14321TIP3    H264455   2.911   5.939  15.446 -0.6995 -0.8714 -1.5217
14322TIP3   OH264456   3.794   0.815  16.135 -0.3212 -0.5968 -1.1102
14322TIP3    H164457   3.735   0.817  16.210  0.3746  0.8344 -0.5566
14322TIP3    H264458   3.802   0.723  16.112 -1.6888 -0.9257 -0.3439
14323TIP3   OH264459   1.407   0.828  16.641  1.1192 -0.1762  0.4455
14323TIP3    H164460   1.353   0.832  16.720  1.4938 -0.5151  0.7262
14323TIP3    H264461   1.440   0.738  16.639 -0.9884 -1.0023 -1.5208
14324TIP3   OH264462   5.854   2.821  12.182 -0.7318  0.0471  0.2127
14324TIP3    H164463   5.921   2.870  12.230  1.1710 -0.7324 -1.4945
14324TIP3    H264464   5.836   2.875  12.105 -0.8042 -0.5221 -0.1769
14325TIP3   OH264465   2.594   5.954  15.880 -0.3742 -0.2282 -0.2969
14325TIP3    H164466   2.644   5.874  15.863 -2.2492 -1.6039  0.3253
14325TIP3    H264467   2.515   5.944  15.827  0.4908  2.5126 -2.3339
14326TIP3   OH264468   4.224   0.141   2.651  0.3757 -0.1090 -0.4308
14326TIP3    H164469   4.249   0.051   2.629  0.5582 -0.2699  0.4158
14326TIP3    H264470   4.146   0.132   2.704 -0.4049  0.3109 -1.4667
14327TIP3   OH264471   3.166   6.349  12.681 -0.0870 -0.6868  0.3576
14327TIP3    H164472   3.239   6.301  12.641 -0.4401 -1.3868  0.5375
14327TIP3    H264473   3.167   6.322  12.773 -0.5129 -0.6253  0.3801
14328TIP3   OH264474   5.006   1.775   4.155  0.5418 -0.8429  0.7277
14328TIP3    H164475   4.999   1.827   4.076  0.1253 -0.5379  0.9591
14328TIP3    H264476   5.099   1.756   4.164  0.7122 -0.0220  0.7115
14329TIP3   OH264477   0.011   6.479  10.903 -0.5710  0.6116  0.5535
14329TIP3    H164478  -0.061   6.523  10.858  0.7719  1.3906 -0.9515
14329TIP3    H264479   0.004   6.387  10.876 -0.7386  0.7718  0.0269
14330TIP3   OH264480   3.877   1.901   6.026  0.3722  0.3551 -0.2243
14330TIP3    H164481   3.929   1.849   6.088 -0.2666  0.5397  0.4705
14330TIP3    H264482   3.818   1.837   5.986  1.5551  0.0211 -1.4942
14331TIP3   OH264483   3.484   2.963   1.891  0.1071  0.0004 -0.1444
14331TIP3    H164484   3.418   2.895   1.904  0.4644 -0.5934 -1.2426
14331TIP3    H264485   3.565   2.915   1.873  0.6615  0.7176  0.3833
14332TIP3   OH264486   3.016   1.652   3.961  0.3303  0.2412  0.1003
14332TIP3    H164487   2.969   1.605   4.028  1.8665 -2.9253 -0.8589
14332TIP3    H264488   3.057   1.726   4.007  0.2631 -1.0528  2.3591
14333TIP3   OH264489   3.824   3.214  15.697  0.2548  0.6117  0.8707
14333TIP3    H164490   3.886   3.256  15.637  0.2777  1.4858  1.4823
14333TIP3    H264491   3.746   3.197  15.644  1.0192 -0.5250  0.0918
14334TIP3   OH264492   6.444   5.893  14.853  0.0311 -0.1627  0.5148
14334TIP3    H164493   6.393   5.945  14.915  0.1179 -2.3209  2.5106
14334TIP3    H264494   6.525   5.943  14.841 -0.6724  1.0950  0.8194
14335TIP3   OH264495   2.951   4.748   5.542  0.6799  0.2796  0.2273
14335TIP3    H164496   2.923   4.825   5.493 -0.1687  0.3294  0.7852
14335TIP3    H264497   2.981   4.782   5.626  0.4083  0.0100  0.4351
14336TIP3   OH264498   0.605   6.281   2.425  0.4108  0.5520  0.5190
14336TIP3    H164499   0.555   6.237   2.356 -2.9764  1.1529  2.3546
14336TIP3    H264500   0.589   6.374   2.411  0.6217  0.7363  1.4455
14337TIP3   OH264501   4.774   3.824  11.118  0.0748  0.2974 -0.1381
14337TIP3    H164502   4.690   3.779  11.122  0.8837 -1.3973 -1.0852
14337TIP3    H264503   4.779   3.859  11.029  0.5815 -0.0951 -0.2738
14338TIP3   OH264504   6.714   2.513   1.545  0.2599 -1.0380  0.2457
14338TIP3    H164505   6.777   2.584   1.531  0.3872 -0.7407  2.0781
14338TIP3    H264506   6.749   2.441   1.493  1.1800 -0.3500 -0.1312
14339TIP3   OH264507   3.698   1.565   3.325  0.0564 -0.2263  0.4335
14339TIP3    H164508   3.636   1.494   3.343 -1.4691  0.8891 -0.2160
14339TIP3    H264509   3.650   1.645   3.347  0.2872  0.8253 -2.4972
14340TIP3   OH264510   3.754   2.495   3.142  0.6446  0.2028 -0.5068
14340TIP3    H164511   3.766   2.401   3.152  0.5280  0.1806 -0.5801
14340TIP3    H264512   3.659   2.508   3.145  0.6595  0.3155 -0.5178
14341TIP3   OH264513   4.228   5.554   5.014  0.2033 -0.2108  0.1986
14341TIP3    H164514   4.303   5.574   5.071 -0.8612 -0.6970  1.8473
14341TIP3    H264515   4.154   5.545   5.075 -1.3827  1.0620 -1.4411
14342TIP3   OH264516   4.602   6.676  16.019  0.3471  0.4008 -0.0805
14342TIP3    H164517   4.556   6.736  16.079 -0.7640  0.3542 -0.8427
14342TIP3    H264518   4.546   6.598  16.017  1.3645 -0.3497  0.2737
14343TIP3   OH264519   3.104   3.087   1.146 -0.3175  0.5163  0.0120
14343TIP3    H164520   3.046   3.115   1.217  1.4190  2.9774  0.5950
14343TIP3    H264521   3.190   3.120   1.171  1.5896 -3.4986 -0.5027
14344TIP3   OH264522   5.419   2.471  13.694  0.3087  0.5044  0.3633
14344TIP3    H164523   5.448   2.387  13.729 -1.0685 -0.6140 -1.0278
14344TIP3    H264524   5.500   2.520  13.680  1.1758 -0.7291  0.8321
14345TIP3   OH264525   1.190   6.364   0.561  0.0273 -0.2748 -0.1825
14345TIP3    H164526   1.143   6.447   0.572  0.8120  0.1527  0.0027
14345TIP3    H264527   1.186   6.322   0.647  0.0095 -0.2273 -0.1601
14346TIP3   OH264528   0.767   4.947  13.931  0.1271  0.0207  0.3652
14346TIP3    H164529   0.757   5.001  14.010  0.3015 -0.9499  1.0660
14346TIP3    H264530   0.734   5.002  13.861 -1.0920  0.4850  1.2718
14347TIP3   OH264531   0.345   6.273  13.647 -0.4074 -0.3545 -0.1825
14347TIP3    H164532   0.393   6.269  13.730 -0.6344 -0.7450 -0.0660
14347TIP3    H264533   0.293   6.192  13.646  0.3749 -0.8621 -1.1863
14348TIP3   OH264534   4.469   0.396  16.092 -0.3776 -0.2894  0.2646
14348TIP3    H164535   4.473   0.315  16.041 -1.9235  0.0694 -0.4916
14348TIP3    H264536   4.393   0.385  16.149  0.5858 -0.1600  1.6119
14349TIP3   OH264537   6.691   0.251   3.921  0.1413 -0.3489 -0.9694
14349TIP3    H164538   6.685   0.336   3.962 -1.0609 -1.3994  1.1885
14349TIP3    H264539   6.703   0.270   3.828  2.2008  2.1240 -0.2983
14350TIP3   OH264540   2.790   5.769  11.694  0.0228  0.1240 -0.4580
14350TIP3    H164541   2.782   5.680  11.728  1.3054  0.4330  0.7720
14350TIP3    H264542   2.791   5.759  11.599 -0.5551 -1.1002 -0.3510
14351TIP3   OH264543   6.101   2.690  13.583 -0.0046 -0.5563 -0.0936
14351TIP3    H164544   6.085   2.782  13.563  0.2546 -0.3020  0.8150
14351TIP3    H264545   6.185   2.671  13.541  0.7895  0.1133  1.1100
14352TIP3   OH264546   1.429   6.677  11.534  0.5781  0.2775 -0.1166
14352TIP3    H164547   1.522   6.667  11.554  0.5250 -1.3391 -0.5133
14352TIP3    H264548   1.426   6.680  11.438  0.1724 -0.3633 -0.1254
14353TIP3   OH264549   5.576   6.359   4.535  0.5329  0.0854 -0.0288
14353TIP3    H164550   5.541   6.333   4.449  0.1653 -0.7550  0.3593
14353TIP3    H264551   5.514   6.424   4.567 -0.8751 -1.5524  0.7481
14354TIP3   OH264552   2.775   4.601   5.213  0.2586 -0.4367 -0.0178
14354TIP3    H164553   2.799   4.561   5.130 -0.3578 -2.3801  0.6823
14354TIP3    H264554   2.709   4.667   5.190 -0.4056 -1.4100 -1.0230
14355TIP3   OH264555   2.330   2.801  15.741 -0.2608 -0.0829 -0.2334
14355TIP3    H164556   2.241   2.814  15.774 -0.9319 -0.0394 -1.9496
14355TIP3    H264557   2.317   2.763  15.654  1.4323 -1.2000 -0.0442
14356TIP3   OH264558   5.317   2.695  12.799 -0.3310  0.1905  0.0983
14356TIP3    H164559   5.318   2.625  12.865  0.6639 -0.5353 -0.6537
14356TIP3    H264560   5.224   2.714  12.785 -0.6238 -1.1248  0.1763
14357TIP3   OH264561   0.694   4.919  12.897 -0.1930 -0.0177  0.0229
14357TIP3    H164562   0.663   4.839  12.939 -3.0371  0.4064 -1.0615
14357TIP3    H264563   0.734   4.969  12.968  0.0783 -1.6237  1.0581
14358TIP3   OH264564   4.301   2.739   2.110  0.0359  0.4640  0.3947
14358TIP3    H164565   4.328   2.814   2.162  0.0113  0.2738  0.6830
14358TIP3    H264566   4.297   2.772   2.020  0.0645  0.7952  0.5148
14359TIP3   OH264567   0.216   1.828   0.027 -0.0941  0.0924 -0.2542
14359TIP3    H164568   0.131   1.814  -0.014 -0.3245  1.3379 -0.2239
14359TIP3    H264569   0.224   1.923   0.036  2.0330  0.1323 -1.8374
14360TIP3   OH264570   0.229   0.127  14.373 -0.9898 -0.3700  0.3892
14360TIP3    H164571   0.174   0.108  14.297 -0.9781  1.3891 -0.0921
14360TIP3    H264572   0.289   0.052  14.377 -1.6124 -0.9722 -0.7378
14361TIP3   OH264573   1.832   0.558  12.524 -1.1690  0.5174 -0.2472
14361TIP3    H164574   1.887   0.588  12.452  0.6598 -3.3301 -0.7208
14361TIP3    H264575   1.753   0.524  12.481 -1.7179  1.4991 -0.0399
14362TIP3   OH264576   3.825   0.538  10.874  0.1174  0.1746  0.2112
14362TIP3    H164577   3.752   0.518  10.933  0.7159 -1.9553  0.2915
14362TIP3    H264578   3.789   0.604  10.814 -1.4674  0.1104  1.0216
14363TIP3   OH264579   5.078   2.893  13.859 -0.2258  0.1834 -0.0577
14363TIP3    H164580   5.062   2.814  13.912  0.7475  0.9180  1.4123
14363TIP3    H264581   5.100   2.859  13.773  1.9486 -1.3145  0.9813
14364TIP3   OH264582   3.479   6.293   3.063  0.0246 -0.0407  0.0932
14364TIP3    H164583   3.450   6.283   3.153  0.9390  3.3154  0.8758
14364TIP3    H264584   3.399   6.288   3.011 -0.6442 -0.8674  1.1554
14365TIP3   OH264585   6.241   3.573  14.592 -0.2401  0.1702  0.0599
14365TIP3    H164586   6.270   3.598  14.680  0.9823 -1.6697  0.2333
14365TIP3    H264587   6.199   3.488  14.603 -1.3686  0.5660 -0.9555
14366TIP3   OH264588   3.289   0.874   3.637 -0.3635 -0.1476 -0.0124
14366TIP3    H164589   3.201   0.910   3.634 -0.3708 -0.1726 -0.0967
14366TIP3    H264590   3.320   0.878   3.547 -0.6780 -1.1235 -0.1804
14367TIP3   OH264591   5.876   2.171  12.672  0.0130 -0.0512  0.5414
14367TIP3    H164592   5.831   2.143  12.751  0.0188 -0.2757  0.4657
14367TIP3    H264593   5.806   2.197  12.612 -0.0196 -0.4575  0.4018
14368TIP3   OH264594   1.507   4.811  14.404  0.1712 -0.1125 -0.2633
14368TIP3    H164595   1.599   4.797  14.383  0.2411  0.3346 -0.2757
14368TIP3    H264596   1.496   4.906  14.397 -0.0654 -0.0680  0.6561
14369TIP3   OH264597   0.251   1.350   0.210  0.5961  0.6115 -0.3385
14369TIP3    H164598   0.262   1.369   0.303  0.4341 -0.4821 -0.0802
14369TIP3    H264599   0.289   1.425   0.165  0.8406  1.0651  0.6112
14370TIP3   OH264600   5.400   5.839   4.499 -0.3675  0.2880 -0.0479
14370TIP3    H164601   5.430   5.840   4.590  1.0839 -0.9346 -0.4792
14370TIP3    H264602   5.442   5.762   4.460 -0.6259  1.0141 -1.8656
14371TIP3   OH264603   5.247   1.516  16.436  0.0234 -0.3772  0.1038
14371TIP3    H164604   5.262   1.601  16.477  1.0502 -1.4815  2.1094
14371TIP3    H264605   5.310   1.513  16.364 -0.2398  0.6435 -0.1957
14372TIP3   OH264606   0.109   4.057  14.330 -0.7708 -0.1150 -0.0970
14372TIP3    H164607   0.176   4.106  14.281 -0.8288  1.0276  0.8937
14372TIP3    H264608   0.132   3.965  14.318  1.1230  0.2493  0.3712
14373TIP3   OH264609   5.571   2.945  15.010  0.1289 -0.2271 -0.0249
14373TIP3    H164610   5.665   2.939  15.029 -0.1397 -0.5387  1.3612
14373TIP3    H264611   5.539   2.854  15.016 -0.5259  0.0593  1.1419
14374TIP3   OH264612   4.693   2.828   2.783 -0.0823 -0.3037 -0.0271
14374TIP3    H164613   4.616   2.823   2.727 -0.5125  0.0812  0.5198
14374TIP3    H264614   4.688   2.915   2.823  2.0222  0.8157 -1.9333
14375TIP3   OH264615   4.108   4.178  16.440 -0.1621 -0.0506  0.1025
14375TIP3    H164616   4.127   4.096  16.485 -0.5054  0.3267  0.9710
14375TIP3    H264617   4.088   4.240  16.511 -1.6863  0.3167 -0.6092
14376TIP3   OH264618   6.572   5.530  13.658 -0.0356  0.4267 -0.3041
14376TIP3    H164619   6.666   5.518  13.673 -0.1015  1.8327  1.4899
14376TIP3    H264620   6.545   5.450  13.612  1.6964 -0.8219  0.7350
14377TIP3   OH264621   0.392   3.218  17.093  0.4313 -0.1437  0.4062
14377TIP3    H164622   0.328   3.147  17.088  1.1252 -0.7639  0.1788
14377TIP3    H264623   0.422   3.218  17.184  0.9703 -0.6316  0.2332
14378TIP3   OH264624   3.907   4.903   0.339  0.4123  0.2235  0.7317
14378TIP3    H164625   3.965   4.874   0.410  0.2129  1.5996  1.4920
14378TIP3    H264626   3.967   4.925   0.267  0.5984 -1.4617  0.3401
14379TIP3   OH264627   6.458   6.460  12.182 -0.2380 -0.4387  0.3180
14379TIP3    H164628   6.514   6.459  12.260  0.4415 -0.1916 -0.1519
14379TIP3    H264629   6.519   6.447  12.109 -0.7312  0.2822 -0.2403
14380TIP3   OH264630   4.650   1.106  15.276  0.1277 -0.1569  0.5214
14380TIP3    H164631   4.676   1.014  15.277 -1.5811 -0.6875  0.6940
14380TIP3    H264632   4.680   1.140  15.360 -1.3689 -1.2567  1.5596
14381TIP3   OH264633   0.370   2.450  12.859 -0.0787 -0.1785  0.4205
14381TIP3    H164634   0.393   2.378  12.800  0.5470  0.6212 -0.3492
14381TIP3    H264635   0.443   2.454  12.921  0.0599  0.0148  0.2457
14382TIP3   OH264636   4.895   0.197  15.653  0.1626 -0.2992  0.2175
14382TIP3    H164637   4.978   0.216  15.610  1.9870 -0.9670  3.1285
14382TIP3    H264638   4.829   0.238  15.598  2.1138 -1.6938 -3.5244
14383TIP3   OH264639   1.659   4.311   1.422  0.6931 -0.5329 -0.6303
14383TIP3    H164640   1.654   4.254   1.346 -0.8239 -1.2497 -0.0319
14383TIP3    H264641   1.569   4.336   1.440  1.1996  1.1178 -0.1419
14384TIP3   OH264642   5.110   6.407  11.417  0.2873 -0.1359 -0.7013
14384TIP3    H164643   5.145   6.468  11.481 -0.7055 -1.5244  1.2621
14384TIP3    H264644   5.168   6.331  11.422 -0.0264 -0.4120 -1.1629
14385TIP3   OH264645   0.451   2.250  13.891 -0.4172  0.4430  0.2365
14385TIP3    H164646   0.390   2.211  13.829  0.2057  2.8372 -2.0665
14385TIP3    H264647   0.412   2.334  13.913  1.4196  1.4971 -0.3400
14386TIP3   OH264648   1.802   4.115  11.295  0.0091  0.1947 -0.2825
14386TIP3    H164649   1.800   4.162  11.378  2.1446  0.0897 -0.1107
14386TIP3    H264650   1.798   4.023  11.320 -0.5213  0.1883 -0.3830
14387TIP3   OH264651   2.521   6.535   1.827  0.2042 -0.2540 -0.2276
14387TIP3    H164652   2.435   6.492   1.821 -0.1746  0.4923 -0.3691
14387TIP3    H264653   2.506   6.610   1.885  0.3510  0.8122 -1.5138
14388TIP3   OH264654   0.363   6.437  12.034 -0.4462  0.2301 -0.0904
14388TIP3    H164655   0.370   6.506  12.099 -0.1168  1.7381 -1.6526
14388TIP3    H264656   0.453   6.417  12.010 -0.5742  0.8637 -1.2134
14389TIP3   OH264657   1.671   0.756   1.072  0.4469 -0.2812 -0.4618
14389TIP3    H164658   1.675   0.732   1.164 -0.8021 -0.2345 -0.3770
14389TIP3    H264659   1.736   0.701   1.030 -1.0214 -2.5126  0.0093
14390TIP3   OH264660   2.092   2.807   3.595 -0.0316 -0.1552 -0.1941
14390TIP3    H164661   2.056   2.761   3.519  1.8055 -0.5725 -0.8478
14390TIP3    H264662   2.129   2.888   3.558  1.5131 -0.6971  0.1230
14391TIP3   OH264663   3.235   3.559  11.878  0.2487 -0.3570  0.3644
14391TIP3    H164664   3.296   3.544  11.949  1.2306 -0.6120 -0.5062
14391TIP3    H264665   3.224   3.654  11.875  3.7857  0.1508 -1.9680
14392TIP3   OH264666   2.812   0.695  12.024 -0.6489 -0.2068 -0.0185
14392TIP3    H164667   2.804   0.607  12.062  0.1168 -0.6547 -0.8506
14392TIP3    H264668   2.736   0.742  12.058 -1.7047 -1.5246 -0.4270
14393TIP3   OH264669   2.181   0.248  15.307  0.3378  0.0485 -0.0941
14393TIP3    H164670   2.106   0.304  15.330 -0.7495 -1.0110 -0.9114
14393TIP3    H264671   2.185   0.251  15.212 -0.2067 -1.7819 -0.2179
14394TIP3   OH264672   4.276   4.869   5.387 -0.1503 -0.4971 -0.2923
14394TIP3    H164673   4.286   4.831   5.474 -0.4389 -0.8276 -0.4033
14394TIP3    H264674   4.184   4.894   5.381  0.1537  0.7557 -0.0090
14395TIP3   OH264675   4.218   5.814   3.197 -0.2706  0.1728  0.6113
14395TIP3    H164676   4.176   5.848   3.118 -0.1126  0.1212  0.5054
14395TIP3    H264677   4.213   5.719   3.188  0.2916  0.1638  0.3724
14396TIP3   OH264678   0.642   2.528   2.481 -0.4184 -0.0569  0.2239
14396TIP3    H164679   0.637   2.447   2.429  0.3154  0.8078 -1.2670
14396TIP3    H264680   0.714   2.577   2.441 -0.6988  1.2378  1.2565
14397TIP3   OH264681   1.928   1.416  13.197  0.4303  0.5794  0.7098
14397TIP3    H164682   1.988   1.475  13.152  1.0167 -1.2532 -1.0288
14397TIP3    H264683   1.981   1.378  13.268  1.2293 -0.6219 -0.4844
14398TIP3   OH264684   1.088   1.556   4.828  0.1264 -0.9728 -0.2981
14398TIP3    H164685   1.142   1.480   4.853 -1.6809 -2.0929  0.3778
14398TIP3    H264686   1.081   1.549   4.732 -0.5095 -2.0335 -0.1929
14399TIP3   OH264687   4.286   5.270   6.118  0.0021  0.0078  0.0089
14399TIP3    H164688   4.214   5.291   6.178  0.4741 -0.7848  0.8730
14399TIP3    H264689   4.352   5.230   6.174  1.9628  2.4451 -0.3752
14400TIP3   OH264690   0.867   0.285   0.108 -0.1436 -0.0304  0.1355
14400TIP3    H164691   0.856   0.304   0.015 -0.3135 -1.1899 -0.0945
14400TIP3    H264692   0.935   0.346   0.137 -0.6524  0.8896 -0.5515
14401TIP3   OH264693   2.538   4.924   4.916 -0.0631 -0.2981  0.1586
14401TIP3    H164694   2.509   4.966   4.998 -0.9559 -0.6392  0.0210
14401TIP3    H264695   2.632   4.908   4.930 -0.3118 -0.8235  1.3210
14402TIP3   OH264696   3.644   0.320  15.458 -0.2732 -0.3386  0.2042
14402TIP3    H164697   3.601   0.314  15.372  2.7369 -0.4620 -1.4139
14402TIP3    H264698   3.628   0.410  15.486  1.9866  1.0574 -2.4731
14403TIP3   OH264699   3.480   3.412   1.359  0.3756 -0.1730  0.0488
14403TIP3    H164700   3.567   3.418   1.399  1.1106 -0.4488 -1.4411
14403TIP3    H264701   3.422   3.451   1.424  1.7220  0.8161  0.7190
14404TIP3   OH264702   1.866   6.630  16.806  0.1870  0.7623  0.9018
14404TIP3    H164703   1.775   6.659  16.798 -0.6670 -1.5722  1.3319
14404TIP3    H264704   1.895   6.617  16.715 -0.3753  0.2484  0.7881
14405TIP3   OH264705   0.203   3.531  11.799 -0.3185 -0.1050  0.1062
14405TIP3    H164706   0.240   3.485  11.724 -0.1878 -1.3819  0.9291
14405TIP3    H264707   0.137   3.589  11.761  0.9232  0.5423 -1.1562
14406TIP3   OH264708   3.283   2.397  16.556  0.2112 -0.3400 -0.1071
14406TIP3    H164709   3.197   2.437  16.567 -0.7489 -1.9156 -1.4156
14406TIP3    H264710   3.307   2.368  16.643  0.7502  2.5346  0.8278
14407TIP3   OH264711   0.970   1.573   3.793  0.3990 -0.3722 -0.3883
14407TIP3    H164712   1.042   1.602   3.738  0.2060  0.9570  0.0166
14407TIP3    H264713   0.925   1.654   3.818  0.5099 -0.8942  1.7513
14408TIP3   OH264714   5.095   0.185  10.227 -0.7791 -0.1663  0.6361
14408TIP3    H164715   5.179   0.156  10.262 -0.2491  1.0800  0.4352
14408TIP3    H264716   5.102   0.280  10.222 -1.1669 -0.2011 -1.9683
14409TIP3   OH264717   2.685   5.763  16.129 -0.3506  0.1043  0.1203
14409TIP3    H164718   2.751   5.829  16.149 -0.7629  0.8313 -0.8483
14409TIP3    H264719   2.657   5.730  16.215  1.8106 -0.8021  0.5482
14410TIP3   OH264720   2.295   4.279   4.756 -0.6647  0.3160  0.1753
14410TIP3    H164721   2.284   4.294   4.850  0.3920 -0.0297  0.3667
14410TIP3    H264722   2.223   4.328   4.715 -0.3576  1.5675  1.0754
14411TIP3   OH264723   2.420   2.610   5.444 -0.7526  0.2733 -0.2649
14411TIP3    H164724   2.354   2.580   5.381 -1.4446 -0.0738  0.6070
14411TIP3    H264725   2.382   2.591   5.530  0.4684  0.1112  0.2617
14412TIP3   OH264726   3.651   0.105  16.996 -0.4518 -0.2166 -0.1500
14412TIP3    H164727   3.633   0.076  17.085  1.7965 -1.5820 -0.0662
14412TIP3    H264728   3.607   0.190  16.990 -2.2668 -0.9387  1.5845
14413TIP3   OH264729   5.207   4.039   3.805 -0.1389  0.0616 -0.1698
14413TIP3    H164730   5.217   4.053   3.711 -0.4554  1.9718  0.0319
14413TIP3    H264731   5.112   4.034   3.818 -0.1715  1.4190  0.2205
14414TIP3   OH264732   2.662   0.000   4.256 -0.2181 -0.2226  0.2139
14414TIP3    H164733   2.651  -0.013   4.162  2.0387  0.6888 -0.2696
14414TIP3    H264734   2.679  -0.087   4.291 -0.9242 -0.5506 -0.2440
14415TIP3   OH264735   3.929   0.729   3.677  0.7003 -0.2243  0.7637
14415TIP3    H164736   3.976   0.667   3.732 -0.6204  0.0047  2.2246
14415TIP3    H264737   3.943   0.697   3.588  1.8207 -1.3615  1.3127
14416TIP3   OH264738   5.474   1.483  16.633 -0.2400  0.1710  0.2319
14416TIP3    H164739   5.426   1.545  16.688 -0.4371 -0.5790  0.9159
14416TIP3    H264740   5.506   1.416  16.694  2.5614  1.1550 -0.0060
14417TIP3   OH264741   2.073   2.372   3.200 -0.1123 -0.1003 -0.1573
14417TIP3    H164742   2.153   2.343   3.156  0.8624  0.9402  0.8741
14417TIP3    H264743   2.047   2.451   3.153 -0.5366 -0.4182 -0.4700
14418TIP3   OH264744   2.589   6.174   0.095  0.4615  0.1558 -0.4993
14418TIP3    H164745   2.576   6.119   0.172  0.9169  0.1595 -0.4154
14418TIP3    H264746   2.541   6.130   0.025 -0.2662  0.3498 -0.1284
14419TIP3   OH264747   3.670   4.058  14.514  0.5873  0.0904  0.5318
14419TIP3    H164748   3.718   4.035  14.434 -1.4027 -1.3759 -0.3171
14419TIP3    H264749   3.706   3.999  14.581  2.4405  1.4995  0.8691
14420TIP3   OH264750   4.019   2.242   2.238 -0.3679 -0.2463  0.0123
14420TIP3    H164751   3.982   2.274   2.156  0.1585 -1.8619 -0.8952
14420TIP3    H264752   4.100   2.292   2.249 -1.7404  1.9209  1.0183
14421TIP3   OH264753   6.620   2.143   5.044  0.0139 -0.6489 -0.2304
14421TIP3    H164754   6.555   2.188   4.991 -0.2820 -1.9126 -0.9593
14421TIP3    H264755   6.704   2.174   5.010 -0.1108  1.9333  1.5101
14422TIP3   OH264756   2.675   6.714   6.629 -0.0934 -0.4970 -0.0757
14422TIP3    H164757   2.635   6.789   6.584  0.3413 -1.2897 -1.8604
14422TIP3    H264758   2.759   6.702   6.584  0.1659 -1.5924  0.6815
14423TIP3   OH264759   4.824   6.182  12.775 -0.1605 -0.1850 -0.1082
14423TIP3    H164760   4.783   6.109  12.727 -0.0771  0.4269 -1.1437
14423TIP3    H264761   4.780   6.183  12.860  1.0933 -2.6158  0.6604
14424TIP3   OH264762   2.830   1.915   1.655  0.4799 -0.0797  0.4600
14424TIP3    H164763   2.766   1.965   1.705  1.1018 -0.3003  1.4919
14424TIP3    H264764   2.835   1.961   1.571  0.6432  1.2787  1.1874
14425TIP3   OH264765   2.652   3.681   3.215 -0.0219 -0.3541  0.5084
14425TIP3    H164766   2.568   3.717   3.242 -0.3789 -1.3060  0.6873
14425TIP3    H264767   2.682   3.630   3.291 -0.6330 -2.3601 -0.5329
14426TIP3   OH264768   4.334   2.277  11.798 -0.2731  0.2765  0.7330
14426TIP3    H164769   4.284   2.234  11.868  0.6371 -1.7209  0.2179
14426TIP3    H264770   4.346   2.210  11.732  3.9101  0.2585  1.2546
14427TIP3   OH264771   1.553   0.684  13.307  0.0893 -0.2425 -0.1390
14427TIP3    H164772   1.503   0.764  13.292  0.9508  0.2733 -0.3119
14427TIP3    H264773   1.507   0.617  13.256 -0.7252  0.1002  0.1348
14428TIP3   OH264774   6.089   1.771  12.032 -0.6126  0.1313  0.9965
14428TIP3    H164775   6.059   1.801  12.118  0.9894 -2.5690  2.6858
14428TIP3    H264776   6.057   1.681  12.026  1.5604 -0.6563  0.0562
14429TIP3   OH264777   2.834   2.470  14.551  0.1038  0.0655 -0.3474
14429TIP3    H164778   2.823   2.379  14.523  1.1909  0.0130 -0.6545
14429TIP3    H264779   2.857   2.518  14.472  0.2531  0.4700 -0.0667
14430TIP3   OH264780   0.808   2.200  16.006  1.0892  0.1439  0.1597
14430TIP3    H164781   0.862   2.194  15.928  0.9399 -0.7101  0.1227
14430TIP3    H264782   0.747   2.127  16.000  0.8042  0.3121  0.8668
14431TIP3   OH264783   1.266   5.100   2.685 -0.7767 -0.1309  0.1644
14431TIP3    H164784   1.210   5.034   2.644 -0.6924 -0.0839 -0.0272
14431TIP3    H264785   1.211   5.140   2.753 -1.3407  0.6711 -0.7353
14432TIP3   OH264786   6.781   5.457  12.514 -0.2127  0.0911 -0.2404
14432TIP3    H164787   6.700   5.506  12.501 -0.1676  0.3675  0.4671
14432TIP3    H264788   6.779   5.430  12.606  1.7523  2.4878  0.6211
14433TIP3   OH264789   5.253   4.009   0.941 -0.3216 -0.1152  0.4359
14433TIP3    H164790   5.185   4.020   1.008 -0.4245 -0.2266  0.3493
14433TIP3    H264791   5.246   4.088   0.887 -0.9205 -0.5045 -0.0598
14434TIP3   OH264792   0.686   3.663   4.440 -0.1936 -0.1553  0.2871
14434TIP3    H164793   0.693   3.646   4.534  0.2523  1.8269  0.6576
14434TIP3    H264794   0.592   3.655   4.422 -0.0865 -2.4237  0.4568
14435TIP3   OH264795   1.354   5.965   4.163 -0.5192  0.1419 -0.3949
14435TIP3    H164796   1.378   5.984   4.073 -1.0667  1.7986 -0.2352
14435TIP3    H264797   1.352   5.870   4.169 -0.5571  0.0140 -2.1497
14436TIP3   OH264798   1.288   6.589  15.205  0.1441 -0.0910  0.4839
14436TIP3    H164799   1.197   6.562  15.217  0.4074 -1.2326  0.0440
14436TIP3    H264800   1.294   6.674  15.248 -0.8960 -0.4251  1.3277
14437TIP3   OH264801   4.348   1.006   3.764  0.7959 -0.1311 -0.1681
14437TIP3    H164802   4.353   0.947   3.839  2.3019  0.8719  0.5722
14437TIP3    H264803   4.258   1.039   3.766  0.4239 -1.1321  0.3846
14438TIP3   OH264804   6.061   6.219   4.177 -0.3104 -0.4470  0.0412
14438TIP3    H164805   6.108   6.292   4.139  1.3049 -1.7874 -0.6392
14438TIP3    H264806   6.085   6.219   4.269  3.9436 -3.0431 -0.8082
14439TIP3   OH264807   4.439   6.463  15.976 -0.3645 -0.6916  0.1074
14439TIP3    H164808   4.385   6.440  15.901 -1.5141  0.5866  0.5112
14439TIP3    H264809   4.406   6.409  16.047 -1.0839  0.0222  0.3316
14440TIP3   OH264810   3.970   5.473  14.145 -0.6738 -0.0924  0.0563
14440TIP3    H164811   3.942   5.381  14.145  0.7072 -0.5355  0.2051
14440TIP3    H264812   4.064   5.469  14.162 -0.4439  1.3097 -0.7607
14441TIP3   OH264813   2.941   6.388  15.486 -0.5060 -0.0669 -0.1661
14441TIP3    H164814   3.008   6.320  15.484 -0.5733 -0.1349 -2.4903
14441TIP3    H264815   2.991   6.469  15.502  0.3752  0.0307 -2.9087
14442TIP3   OH264816   5.852   1.583   2.932  0.5620 -0.4109  0.5901
14442TIP3    H164817   5.853   1.667   2.977 -0.4835 -0.5597  0.9447
14442TIP3    H264818   5.835   1.604   2.840  0.4847 -0.2258  0.6472
14443TIP3   OH264819   0.481   1.676  15.840 -0.1476 -0.1144 -0.1915
14443TIP3    H164820   0.562   1.633  15.868 -2.5504 -3.6781  2.0040
14443TIP3    H264821   0.443   1.618  15.774  0.4082  3.1249 -3.7394
14444TIP3   OH264822   2.530   3.055   1.118  0.2017  0.0514  0.1954
14444TIP3    H164823   2.447   3.088   1.153 -0.0060 -1.5639  1.3492
14444TIP3    H264824   2.535   3.089   1.029 -0.9484  1.4462  0.6473
14445TIP3   OH264825   1.566   2.836  16.301 -0.1783 -0.4360  0.1235
14445TIP3    H164826   1.500   2.886  16.347 -0.2712 -0.0582 -0.4049
14445TIP3    H264827   1.529   2.823  16.213  0.9355  0.8458 -0.5862
14446TIP3   OH264828   2.488   2.653  13.969 -0.2677 -0.0826 -0.2186
14446TIP3    H164829   2.526   2.570  13.942  0.9536  0.4757 -0.2917
14446TIP3    H264830   2.516   2.716  13.902  1.2115  0.9374  1.2518
14447TIP3   OH264831   4.922   1.291   3.833  0.4355  0.7326  0.3295
14447TIP3    H164832   5.000   1.306   3.780  0.2660 -1.5109 -0.6854
14447TIP3    H264833   4.949   1.226   3.898 -1.0471 -1.9819 -1.5493
14448TIP3   OH264834   1.239   4.043   2.946  0.5759 -0.1536 -0.8689
14448TIP3    H164835   1.266   3.974   2.886  2.7200  0.5886 -0.8276
14448TIP3    H264836   1.257   4.125   2.900  1.3490  0.4197  0.3880
14449TIP3   OH264837   3.489   4.150  11.349 -0.5338 -1.3020 -0.2454
14449TIP3    H164838   3.481   4.210  11.274  0.1123 -0.3046  0.4541
14449TIP3    H264839   3.581   4.124  11.348 -0.7497 -2.0668 -0.3720
14450TIP3   OH264840   0.038   5.417   1.484 -0.1740 -0.1012  0.1640
14450TIP3    H164841  -0.010   5.488   1.441  1.2894  0.6398 -0.3099
14450TIP3    H264842   0.093   5.381   1.415 -0.8481 -1.6964  0.4178
14451TIP3   OH264843   6.700   3.155   1.984 -0.3559  0.5030  0.1862
14451TIP3    H164844   6.795   3.155   1.994 -0.3429  0.5902  0.0633
14451TIP3    H264845   6.678   3.247   1.966 -0.7471  1.0411  2.8593
14452TIP3   OH264846   3.795   6.465   2.129 -0.0065  0.7678  0.5197
14452TIP3    H164847   3.751   6.550   2.136  1.3185  1.4655  0.7278
14452TIP3    H264848   3.818   6.443   2.219 -2.4162 -0.9977  0.7831
14453TIP3   OH264849   3.192   3.817  14.095  0.7067 -0.4112  0.3617
14453TIP3    H164850   3.144   3.735  14.083  0.7845 -0.2467 -1.4456
14453TIP3    H264851   3.131   3.885  14.066  1.1785  0.0252  0.3821
14454TIP3   OH264852   4.194   2.920  11.731 -0.4331 -0.0473 -0.0663
14454TIP3    H164853   4.121   2.962  11.776  0.5207 -0.2595  1.7542
14454TIP3    H264854   4.158   2.837  11.699 -1.2180  0.2487  0.0373
14455TIP3   OH264855   4.024   3.206   0.073 -0.3109  0.5384  0.2975
14455TIP3    H164856   3.997   3.218   0.164 -1.6475  2.0732 -0.2481
14455TIP3    H264857   3.966   3.264   0.023  0.2542 -0.4191 -1.5578
14456TIP3   OH264858   2.313   1.457  16.300  0.4995 -0.5203 -0.1669
14456TIP3    H164859   2.366   1.486  16.226  0.7880  0.0828  0.2614
14456TIP3    H264860   2.258   1.533  16.320  0.9253 -0.4201  0.6746
14457TIP3   OH264861   3.114   2.391   0.604  0.6534  0.2723 -0.0808
14457TIP3    H164862   3.146   2.352   0.523  0.5934 -2.4895  1.1081
14457TIP3    H264863   3.018   2.385   0.597  0.6489 -1.7658  0.8853
14458TIP3   OH264864   5.814   2.967   4.984  0.6656  0.4221  0.2061
14458TIP3    H164865   5.862   3.050   4.989 -0.3706  0.9714  2.4116
14458TIP3    H264866   5.814   2.934   5.074  0.5907 -1.7393 -0.5223
14459TIP3   OH264867   4.898   0.968   5.125  0.3589  0.1470  0.2071
14459TIP3    H164868   4.929   0.958   5.035 -1.2516 -0.0774 -0.3609
14459TIP3    H264869   4.957   1.032   5.164  0.5415  0.9416 -1.2991
14460TIP3   OH264870   1.319   3.278  17.131 -0.7701  0.0572  0.2255
14460TIP3    H164871   1.232   3.265  17.169 -1.0471 -1.9151 -0.9489
14460TIP3    H264872   1.351   3.190  17.115 -0.1737  0.7384 -2.9538
14461TIP3   OH264873   6.676   4.811  12.221  0.4541 -0.2424 -0.5136
14461TIP3    H164874   6.615   4.879  12.250 -0.1469 -1.3620  0.9896
14461TIP3    H264875   6.626   4.730  12.227  0.9941 -0.8219 -2.7543
14462TIP3   OH264876   3.736   2.287   6.130  0.8403  0.7465 -0.1064
14462TIP3    H164877   3.756   2.270   6.038 -0.9686 -1.3041 -0.1860
14462TIP3    H264878   3.810   2.249   6.177  0.2443 -1.1297 -0.6209
14463TIP3   OH264879   1.219   5.181  16.053 -0.5297  0.3973  0.1273
14463TIP3    H164880   1.158   5.147  16.118 -0.3343 -0.8730 -0.3187
14463TIP3    H264881   1.300   5.132  16.069  0.0411  1.2767  0.0088
14464TIP3   OH264882   3.764   1.569  12.039  0.1059  0.2865  0.1391
14464TIP3    H164883   3.686   1.612  12.005 -1.8703 -0.6319  3.1914
14464TIP3    H264884   3.765   1.589  12.132  0.9837 -3.3495  1.0634
14465TIP3   OH264885   4.324   0.638   1.276  0.4517  0.4128  0.3902
14465TIP3    H164886   4.395   0.657   1.337  0.9766 -0.4528  0.0580
14465TIP3    H264887   4.367   0.612   1.195 -0.2425 -0.1127  0.1763
14466TIP3   OH264888   5.340   0.571  15.090 -0.2071 -0.0925  0.2119
14466TIP3    H164889   5.362   0.551  15.181 -1.3054 -0.1608  0.4762
14466TIP3    H264890   5.246   0.552  15.083  0.0344 -0.9424 -1.1689
14467TIP3   OH264891   6.332   3.363   2.051  0.0042 -0.3892 -0.6083
14467TIP3    H164892   6.355   3.321   2.134  1.1536  0.4745 -0.4664
14467TIP3    H264893   6.362   3.453   2.061 -1.0329  0.0742 -1.4824
14468TIP3   OH264894   3.288   1.660   3.817  0.0857 -0.3483 -0.0984
14468TIP3    H164895   3.233   1.583   3.831  1.0893 -0.8690  1.1051
14468TIP3    H264896   3.281   1.710   3.898 -1.1750  1.2759 -1.1375
14469TIP3   OH264897   2.740   2.207  10.306  0.2071  0.7027 -0.3825
14469TIP3    H164898   2.784   2.226  10.223 -0.6181  2.6105 -0.4419
14469TIP3    H264899   2.697   2.123  10.292 -0.8767  1.5123 -2.3290
14470TIP3   OH264900   0.989   4.896  16.672  0.7764  0.4641  0.2166
14470TIP3    H164901   1.080   4.923  16.687  0.5928  2.5368 -1.8436
14470TIP3    H264902   0.943   4.977  16.653 -1.2051 -0.7243 -0.3434
14471TIP3   OH264903   0.104   5.813   4.097  0.5766  0.0234  0.1375
14471TIP3    H164904   0.069   5.784   4.181  0.7992  0.2882  0.3220
14471TIP3    H264905   0.076   5.745   4.035 -0.5601  0.4076  0.2133
14472TIP3   OH264906   3.009   2.982   5.424 -0.0491 -0.2108  0.2736
14472TIP3    H164907   2.997   2.887   5.422  1.7414 -0.5910  2.6943
14472TIP3    H264908   2.980   3.008   5.511  0.1890  1.3515 -0.0826
14473TIP3   OH264909   5.168   5.645  14.046  0.1071  0.3149  0.3422
14473TIP3    H164910   5.121   5.580  13.993 -1.6783  1.3006  0.6572
14473TIP3    H264911   5.243   5.597  14.081 -0.9465 -1.4938  0.2520
14474TIP3   OH264912   5.127   1.969  14.156  0.1164 -0.3212  0.0718
14474TIP3    H164913   5.132   1.888  14.106  0.3679  0.1250 -0.6443
14474TIP3    H264914   5.212   1.975  14.200  0.1583 -0.3597 -0.0053
14475TIP3   OH264915   0.773   2.945   4.901 -0.0757  0.3725 -0.3267
14475TIP3    H164916   0.760   2.901   4.985  0.9369 -1.6861 -1.1907
14475TIP3    H264917   0.702   3.010   4.897  0.2674  1.0497  2.4005
14476TIP3   OH264918   1.545   3.358   1.257 -0.5967  0.2044 -0.3090
14476TIP3    H164919   1.625   3.411   1.263 -1.3967  1.2641  2.5775
14476TIP3    H264920   1.489   3.391   1.327 -1.3490 -4.2235  1.4744
14477TIP3   OH264921   0.279   1.933   2.741  0.0609 -0.2518  0.3939
14477TIP3    H164922   0.230   1.856   2.712 -1.5224  0.0656  1.9969
14477TIP3    H264923   0.356   1.897   2.786 -0.0050 -0.8512  0.0362
14478TIP3   OH264924   6.010   2.864  15.591  0.2319  0.5150 -0.4568
14478TIP3    H164925   6.069   2.926  15.633  0.6870 -0.5985  0.6122
14478TIP3    H264926   6.017   2.784  15.644 -0.4772 -0.3914 -1.6712
14479TIP3   OH264927   5.596   5.286   6.243 -0.5850  0.0561  0.8529
14479TIP3    H164928   5.621   5.208   6.293 -1.8311 -0.7390  0.3025
14479TIP3    H264929   5.510   5.310   6.277 -0.9469  0.1762 -0.0952
14480TIP3   OH264930   2.034   3.993  13.599 -0.0762 -0.2753 -0.5293
14480TIP3    H164931   1.969   3.935  13.558 -3.2374  0.8411  2.4603
14480TIP3    H264932   2.053   4.059  13.532 -0.4149 -1.7693 -2.1790
14481TIP3   OH264933   6.280   3.360  16.866 -0.1171  0.2285 -0.0397
14481TIP3    H164934   6.368   3.324  16.859 -0.4288 -0.3172 -1.4645
14481TIP3    H264935   6.289   3.436  16.924  1.0654 -0.4632  0.7250
14482TIP3   OH264936   5.845   2.533   0.782  0.1501  0.4511  0.2951
14482TIP3    H164937   5.872   2.508   0.870 -1.2494  0.1581  0.6651
14482TIP3    H264938   5.914   2.500   0.724 -0.5084 -2.2965  0.9621
14483TIP3   OH264939   0.117   5.719  16.357  0.0205 -0.7577  0.0931
14483TIP3    H164940   0.194   5.664  16.374 -0.3750 -1.2279  0.4048
14483TIP3    H264941   0.151   5.808  16.352  1.9081 -1.2571 -6.7147
14484TIP3   OH264942   3.308   5.030  12.352 -0.0808  0.2983 -0.2971
14484TIP3    H164943   3.376   4.972  12.388 -0.3659 -0.1891 -0.5323
14484TIP3    H264944   3.348   5.117  12.354 -0.7883  0.6822  3.0952
14485TIP3   OH264945   4.321   2.357   3.152 -0.1006  0.2133  0.4589
14485TIP3    H164946   4.363   2.386   3.233 -0.5027 -1.3421  1.2503
14485TIP3    H264947   4.234   2.397   3.155 -0.8254 -1.3360  1.7752
14486TIP3   OH264948   6.718   4.488  15.669  0.4992  0.1314  0.3927
14486TIP3    H164949   6.705   4.466  15.576 -0.0726 -1.3753  0.8005
14486TIP3    H264950   6.813   4.490  15.680  0.5732  0.1785 -0.1918
14487TIP3   OH264951   4.927   4.173  12.128 -0.0232  0.4675 -0.2270
14487TIP3    H164952   4.907   4.174  12.034 -1.5040 -0.1229  0.0549
14487TIP3    H264953   4.879   4.098  12.162 -0.7610  1.5591  1.2532
14488TIP3   OH264954   5.980   2.187   2.892  0.0312  0.1901  0.0504
14488TIP3    H164955   6.072   2.186   2.867  0.0498  0.7964  0.0632
14488TIP3    H264956   5.935   2.228   2.817 -0.3676 -0.9602 -0.3694
14489TIP3   OH264957   6.612   4.753  14.602  0.0456 -0.2954  0.0648
14489TIP3    H164958   6.621   4.678  14.661  0.9873  1.2842  2.0595
14489TIP3    H264959   6.702   4.782  14.586 -0.3318  1.1988  0.4504
14490TIP3   OH264960   2.045   6.317   1.980  0.2217 -0.0880  0.1547
14490TIP3    H164961   2.078   6.400   1.948  0.2617  0.0312  0.4987
14490TIP3    H264962   2.032   6.264   1.901  1.3509 -0.1851  0.0159
14491TIP3   OH264963   4.876   3.159   3.466  0.2344 -0.2626 -0.0463
14491TIP3    H164964   4.926   3.169   3.385 -0.1767 -1.2338 -0.4347
14491TIP3    H264965   4.939   3.124   3.529  0.9616  1.9497  0.5327
14492TIP3   OH264966   1.329   1.842  17.013  0.6133  1.0300 -0.5806
14492TIP3    H164967   1.332   1.931  17.050 -1.1357  1.4263 -1.2944
14492TIP3    H264968   1.287   1.790  17.081 -0.1121  1.1716 -0.9147
14493TIP3   OH264969   4.389   3.096   1.341 -0.0586  0.6373 -0.3462
14493TIP3    H164970   4.302   3.124   1.310 -1.7405 -3.9226 -0.4495
14493TIP3    H264971   4.426   3.046   1.268  2.3853  1.7353  0.0341
14494TIP3   OH264972   4.249   3.113  17.223 -0.4730  0.6087  0.2788
14494TIP3    H164973   4.235   3.023  17.195  0.0750  1.7329 -4.7499
14494TIP3    H264974   4.167   3.138  17.266 -1.5997 -1.5967 -0.4171
14495TIP3   OH264975   0.070   0.272  11.830  0.4037 -0.3472 -0.5350
14495TIP3    H164976   0.035   0.361  11.828 -2.3997 -1.3837 -1.8670
14495TIP3    H264977   0.144   0.275  11.769  0.6716  1.1556 -0.1863
14496TIP3   OH264978   3.210   4.225   5.241 -0.0754 -0.6114 -0.1956
14496TIP3    H164979   3.270   4.223   5.167 -0.5372 -0.4947 -0.5844
14496TIP3    H264980   3.265   4.213   5.318  0.8023  1.8797 -0.3371
14497TIP3   OH264981   5.351   3.629   6.279  0.4786 -0.7150 -0.4911
14497TIP3    H164982   5.365   3.681   6.358  1.1644 -1.3417 -0.1844
14497TIP3    H264983   5.412   3.555   6.288  0.3285 -0.9690 -1.4463
14498TIP3   OH264984   2.899   2.286   2.795  0.1591  0.7869  0.1554
14498TIP3    H164985   2.863   2.296   2.707 -0.2840 -0.7109  0.1411
14498TIP3    H264986   2.836   2.230   2.840 -0.5309  2.8846  1.9910
14499TIP3   OH264987   3.209   6.581   5.159  0.0237  0.5883  0.5936
14499TIP3    H164988   3.117   6.582   5.129 -0.4441 -1.1452  1.8496
14499TIP3    H264989   3.203   6.581   5.254  1.4416  3.0534  0.7783
14500TIP3   OH264990   0.621   0.096   5.177 -0.0259 -0.8348  0.2631
14500TIP3    H164991   0.543   0.152   5.177  0.1172 -0.6069  1.6904
14500TIP3    H264992   0.694   0.157   5.170  0.1016 -0.8697  1.1611
14501TIP3   OH264993   5.678   2.045  16.894  0.3013 -0.5893  0.2782
14501TIP3    H164994   5.601   2.074  16.845  0.9849  0.8002 -0.0181
14501TIP3    H264995   5.653   1.959  16.928 -0.6996 -0.9966 -1.3496
14502TIP3   OH264996   4.769   0.318  11.283 -0.0298 -0.1276  0.0089
14502TIP3    H164997   4.720   0.372  11.221  0.2644  1.0950  0.8098
14502TIP3    H264998   4.833   0.272  11.229 -1.0492 -0.5923 -0.8406
14503TIP3   OH264999   5.011   1.505   5.703 -0.1384 -0.1837  0.1157
14503TIP3    H165000   5.018   1.588   5.749 -0.4688 -0.1594  0.1242
14503TIP3    H265001   5.101   1.473   5.696  0.0690  0.5412 -0.5804
14504TIP3   OH265002   0.618   6.539   0.553 -0.2213  0.6784  0.7123
14504TIP3    H165003   0.625   6.455   0.598  0.7132  1.3516  1.8906
14504TIP3    H265004   0.602   6.517   0.461 -2.6186 -0.7583  1.3739
14505TIP3   OH265005   6.415   5.426  13.271  0.0636  0.0532  0.7170
14505TIP3    H165006   6.372   5.362  13.214 -0.4451 -0.9313  2.1788
14505TIP3    H265007   6.455   5.374  13.341  1.7370  1.1368  0.6316
14506TIP3   OH265008   2.948   1.252  16.175 -0.1349  0.5725 -0.9913
14506TIP3    H165009   2.954   1.165  16.215  0.0104 -0.0928 -2.3755
14506TIP3    H265010   2.970   1.237  16.083  0.4616  2.1755 -1.1482
14507TIP3   OH265011   5.847   6.744   2.286  0.4838  0.4977  0.1561
14507TIP3    H165012   5.854   6.778   2.375 -1.7020 -1.0078  0.9692
14507TIP3    H265013   5.871   6.652   2.293 -0.2039  0.2373 -0.7096
14508TIP3   OH265014   5.430   0.727   4.609  0.5122  0.1735 -0.4316
14508TIP3    H165015   5.482   0.780   4.548  0.7200 -0.4514 -0.7991
14508TIP3    H265016   5.467   0.748   4.695 -0.0163  1.3261 -0.4685
14509TIP3   OH265017   1.335   1.841  15.894 -0.3465 -0.2455  0.0106
14509TIP3    H165018   1.331   1.848  15.990 -2.2297 -0.7869  0.0095
14509TIP3    H265019   1.397   1.770  15.878  0.4392  0.2358  0.7951
14510TIP3   OH265020   6.416   6.644   4.092 -0.0550 -0.1689 -0.8115
14510TIP3    H165021   6.506   6.615   4.110  0.8470  1.8231 -1.7813
14510TIP3    H265022   6.426   6.714   4.028 -2.3955 -0.4319 -1.5647
14511TIP3   OH265023   1.188   5.980  14.424 -0.0063  0.8132 -0.8103
14511TIP3    H165024   1.269   5.993  14.374 -0.1246 -1.6515 -1.7777
14511TIP3    H265025   1.187   6.053  14.486  3.1952  0.7218 -0.4541
14512TIP3   OH265026   1.719   2.439   0.956 -0.1892  0.2352  0.2914
14512TIP3    H165027   1.669   2.509   0.998 -1.5130 -1.0860  1.0073
14512TIP3    H265028   1.653   2.376   0.929  1.0506 -1.2717  0.6885
14513TIP3   OH265029   2.905   2.018   4.503  0.5208 -0.8288 -0.3792
14513TIP3    H165030   2.994   1.989   4.481  0.4228 -1.8504  0.4941
14513TIP3    H265031   2.876   1.956   4.569 -0.9309 -0.6162 -0.7944
14514TIP3   OH265032   0.045   1.574  14.998 -0.3801 -0.5269 -0.0460
14514TIP3    H165033  -0.048   1.557  15.006 -0.6570  0.5433 -0.9017
14514TIP3    H265034   0.071   1.531  14.917 -0.4465  0.4559 -0.5944
14515TIP3   OH265035   3.140   5.352  13.972  0.5436 -1.2069 -0.0118
14515TIP3    H165036   3.075   5.387  14.034 -0.2379 -0.0967 -1.4111
14515TIP3    H265037   3.207   5.313  14.028  0.9405  1.5836  1.6657
14516TIP3   OH265038   2.419   3.107  15.472 -0.6244  0.0403  0.6060
14516TIP3    H165039   2.456   3.191  15.501  0.7287 -0.2955 -0.0557
14516TIP3    H265040   2.325   3.115  15.490 -0.5478  1.7359  0.4970
14517TIP3   OH265041   1.141   6.074  12.345 -0.5273  0.2822 -0.8208
14517TIP3    H165042   1.140   6.012  12.272  0.6268 -0.7981  0.0503
14517TIP3    H265043   1.176   6.155  12.307  0.5600 -0.4272 -1.3600
14518TIP3   OH265044   0.668   6.622  13.867 -0.3496  0.6394  0.0635
14518TIP3    H165045   0.750   6.574  13.878 -0.8217  0.0337  1.0742
14518TIP3    H265046   0.671   6.655  13.777  1.4522  1.5176  0.4142
14519TIP3   OH265047   3.832   4.766  12.439  0.3804 -0.2216 -0.0219
14519TIP3    H165048   3.787   4.711  12.374 -1.1253  0.3576  0.4840
14519TIP3    H265049   3.860   4.843  12.390 -2.7691  1.3226  0.3124
14520TIP3   OH265050   5.675   0.028   6.123 -0.1280 -0.0814  0.2499
14520TIP3    H165051   5.611   0.003   6.190  0.7388 -1.5738  0.5622
14520TIP3    H265052   5.706   0.114   6.150 -0.6507 -0.1514  1.1077
14521TIP3   OH265053   5.258   5.235  14.420 -0.5380  0.0374  0.1692
14521TIP3    H165054   5.343   5.236  14.465 -1.2291 -0.5854  1.5409
14521TIP3    H265055   5.241   5.327  14.399  1.4022  0.0170 -2.0478
14522TIP3   OH265056   5.756   3.293  14.132 -0.3588 -0.1663 -0.3904
14522TIP3    H165057   5.800   3.261  14.211 -0.6090  0.1134 -0.1350
14522TIP3    H265058   5.739   3.214  14.080 -1.1475 -0.4885  0.3227
14523TIP3   OH265059   2.509   5.607   4.891  0.1080  0.1263  0.8040
14523TIP3    H165060   2.568   5.649   4.953  1.9379  0.6956 -1.2050
14523TIP3    H265061   2.554   5.525   4.867 -1.0573 -0.5899  0.9680
14524TIP3   OH265062   6.561   3.973  16.482 -0.0924 -0.1543 -0.5946
14524TIP3    H165063   6.583   4.058  16.520 -2.0567  0.7374 -1.3308
14524TIP3    H265064   6.474   3.953  16.517 -0.1706 -1.2960 -1.3850
14525TIP3   OH265065   1.208   4.026  13.076  0.3374 -0.3879  0.3453
14525TIP3    H165066   1.202   3.977  12.994 -0.9493 -0.4960  0.4885
14525TIP3    H265067   1.199   4.118  13.049  2.2749 -0.2209  0.1305
14526TIP3   OH265068   6.461   0.369  12.519  0.4235 -0.6256  0.0534
14526TIP3    H165069   6.495   0.384  12.431 -1.0358  1.2204 -0.2506
14526TIP3    H265070   6.453   0.274  12.525  2.5533 -0.9427 -0.9751
14527TIP3   OH265071   1.749   3.499   6.183  0.0838 -0.0944  0.0042
14527TIP3    H165072   1.729   3.469   6.095  0.3078 -0.7724  0.1823
14527TIP3    H265073   1.818   3.565   6.171  0.1994 -0.2733 -0.3118
14528TIP3   OH265074   6.800   6.639  14.060  0.0931 -0.4688 -0.3317
14528TIP3    H165075   6.834   6.644  13.971 -1.6625 -2.2908 -1.1551
14528TIP3    H265076   6.767   6.550  14.069 -1.7519  0.3104  1.3974
14529TIP3   OH265077   3.519   0.819  13.785 -0.1544 -0.0352 -0.7141
14529TIP3    H165078   3.433   0.856  13.763 -0.1259  0.6184  0.2117
14529TIP3    H265079   3.582   0.876  13.741 -0.1908 -0.6370 -1.5653
14530TIP3   OH265080   6.697   2.741  15.572 -0.2609 -0.3186  0.5717
14530TIP3    H165081   6.672   2.771  15.659  0.9042 -0.2442  0.8996
14530TIP3    H265082   6.748   2.662  15.588  1.5905  0.7229  0.1083
14531TIP3   OH265083   2.277   6.463   2.917 -0.6239  1.0967 -0.6867
14531TIP3    H165084   2.272   6.532   2.983 -0.1059 -0.5838  1.2539
14531TIP3    H265085   2.280   6.382   2.969  0.7053 -0.2783 -2.7838
14532TIP3   OH265086   5.345   0.433   5.543 -0.0108  0.1920  0.0629
14532TIP3    H165087   5.284   0.462   5.611  1.2992  1.8546  0.5816
14532TIP3    H265088   5.427   0.476   5.564  1.1978 -1.4513 -1.0175
14533TIP3   OH265089   3.774   6.629   6.623 -0.0788 -0.4956  0.8368
14533TIP3    H165090   3.865   6.622   6.652  0.9166  1.3853 -1.4842
14533TIP3    H265091   3.775   6.698   6.557 -3.2989 -0.1205  1.0083
14534TIP3   OH265092   0.661   3.312   6.024 -0.2629  0.3203  0.1931
14534TIP3    H165093   0.694   3.261   6.099  0.6580  0.8083  0.1253
14534TIP3    H265094   0.661   3.402   6.055  1.9455  0.7762 -0.9978
14535TIP3   OH265095   0.760   5.459   4.623 -0.6927 -0.2177 -0.4332
14535TIP3    H165096   0.812   5.387   4.588  0.8965  1.3030 -1.3446
14535TIP3    H265097   0.824   5.522   4.656 -2.0433  0.5138  0.9655
14536TIP3   OH265098   2.040   1.615  17.004  0.1621 -0.1765 -0.3570
14536TIP3    H165099   2.034   1.570  17.089  1.0033 -0.3035 -0.3493
14536TIP3    H265100   1.992   1.696  17.016  0.1407 -0.2655  0.2028
14537TIP3   OH265101   2.705   3.994  14.507 -0.3955  0.3197 -0.4372
14537TIP3    H165102   2.729   4.018  14.596 -0.6471 -0.6324 -0.1032
14537TIP3    H265103   2.631   4.051  14.485 -0.5226  0.3472  0.0695
14538TIP3   OH265104   6.326   5.329   5.399  0.0518  0.5746  0.6722
14538TIP3    H165105   6.421   5.326   5.412 -0.1271 -0.7346  1.9268
14538TIP3    H265106   6.315   5.332   5.304  1.3408 -1.4895  0.3970
14539TIP3   OH265107   2.252   3.629   5.790  0.4536  1.0165  0.4426
14539TIP3    H165108   2.172   3.578   5.785  0.8376  0.5254 -1.1830
14539TIP3    H265109   2.273   3.633   5.883 -1.2143  0.7950  0.8429
14540TIP3   OH265110   5.798   6.047  12.391  0.0566  0.2783 -0.0257
14540TIP3    H165111   5.803   5.958  12.423 -1.3547  0.4115  0.6165
14540TIP3    H265112   5.879   6.059  12.342 -0.0406 -1.5787 -0.7201
14541TIP3   OH265113   0.414   5.711  16.045 -0.0391 -0.2030  0.3127
14541TIP3    H165114   0.321   5.726  16.032 -0.1066 -1.0703 -0.2920
14541TIP3    H265115   0.443   5.784  16.099 -0.3492  1.9956 -2.3121
14542TIP3   OH265116   6.455   5.947  15.788 -0.0558  0.3693 -0.4004
14542TIP3    H165117   6.509   5.932  15.711  2.1646  0.9816  0.9442
14542TIP3    H265118   6.517   5.954  15.860 -1.8132  2.5924  1.0527
14543TIP3   OH265119   5.592   5.937   1.408 -0.1567  0.3929 -0.4998
14543TIP3    H165120   5.565   5.980   1.489  0.0524 -1.2926  0.4961
14543TIP3    H265121   5.531   5.971   1.342 -1.4887  0.4655  0.7063
14544TIP3   OH265122   6.438   2.858  13.281  0.0767 -0.3126 -0.0144
14544TIP3    H165123   6.401   2.931  13.232  1.3437  0.5611  0.2682
14544TIP3    H265124   6.400   2.780  13.241 -0.8946  0.4812 -0.6754
14545TIP3   OH265125   6.278   3.960  16.525 -0.0027 -0.1122  0.0938
14545TIP3    H165126   6.287   3.884  16.467  0.5753 -0.1895  0.2816
14545TIP3    H265127   6.247   3.923  16.608 -3.3789  0.2453 -0.8284
14546TIP3   OH265128   3.486   6.242   2.702  0.1793 -0.4018  0.2167
14546TIP3    H165129   3.521   6.248   2.613  0.9541 -2.3118  0.3406
14546TIP3    H265130   3.411   6.183   2.694 -0.1281 -0.0911  0.7392
14547TIP3   OH265131   3.003   2.681  14.944  0.2519  0.2624  0.1345
14547TIP3    H165132   2.946   2.701  15.019  0.0032 -0.5311  0.1648
14547TIP3    H265133   2.982   2.590  14.922  0.6279  0.3574 -0.6361
14548TIP3   OH265134   3.226   5.435  11.318 -0.1431 -0.4672 -0.1901
14548TIP3    H165135   3.166   5.459  11.389 -2.2976 -2.1050 -1.3245
14548TIP3    H265136   3.211   5.501  11.251  1.0508  0.4171  0.3720
14549TIP3   OH265137   2.442   0.105   4.681  0.6097 -0.3553  0.0028
14549TIP3    H165138   2.374   0.045   4.650 -0.1052 -0.0359  0.8784
14549TIP3    H265139   2.486   0.135   4.602  1.0423 -2.0885 -0.4394
14550TIP3   OH265140   3.899   1.386   0.478 -0.4667  0.0660 -0.5961
14550TIP3    H165141   3.837   1.318   0.452  0.0484 -0.9619  0.7332
14550TIP3    H265142   3.909   1.375   0.573 -1.1099  2.6296 -0.1379
14551TIP3   OH265143   3.832   1.207   3.411 -0.3978 -0.2892 -0.1294
14551TIP3    H165144   3.749   1.249   3.430  1.2938  2.0586  2.9646
14551TIP3    H265145   3.858   1.243   3.326 -1.5081  0.7018 -0.0796
14552TIP3   OH265146   6.237   4.762   5.591  0.4381  0.3727  0.4445
14552TIP3    H165147   6.304   4.697   5.570  1.2390  1.2395  0.2251
14552TIP3    H265148   6.166   4.712   5.630  0.9138 -0.6649  0.0162
14553TIP3   OH265149   2.401   1.565  16.065 -0.2422 -0.0665 -0.0623
14553TIP3    H165150   2.480   1.615  16.086 -0.6042  1.1408 -1.4100
14553TIP3    H265151   2.399   1.563  15.969 -1.8130 -0.1275 -0.0571
14554TIP3   OH265152   1.731   0.744   5.618  0.1111 -0.4750  0.6185
14554TIP3    H165153   1.771   0.831   5.619 -1.6178  0.3870  2.0909
14554TIP3    H265154   1.740   0.713   5.708 -3.3425  0.2694  1.3858
14555TIP3   OH265155   4.398   0.070  15.658  0.6169  0.4876 -0.1469
14555TIP3    H165156   4.345   0.121  15.596  0.0236 -1.2094 -1.0952
14555TIP3    H265157   4.488   0.100  15.643  0.2840  1.2732 -0.6432
14556TIP3   OH265158   3.616   0.828  16.386 -0.1068  0.3803  0.3780
14556TIP3    H165159   3.555   0.789  16.324 -0.4264  0.0177  0.9021
14556TIP3    H265160   3.566   0.898  16.429  0.5950  1.6793 -0.8534
14557TIP3   OH265161   3.997   6.612  11.844 -0.3991  0.5610  0.1249
14557TIP3    H165162   4.066   6.622  11.909  0.3829  1.9534 -0.8744
14557TIP3    H265163   3.998   6.519  11.822 -0.5260  0.1081  1.8899
14558TIP3   OH265164   5.899   0.126   1.456  0.2205  0.0122  0.0330
14558TIP3    H165165   5.952   0.160   1.384 -0.2933 -0.8113 -0.7428
14558TIP3    H265166   5.963   0.107   1.525  0.8776 -0.4140 -0.6751
14559TIP3   OH265167   3.669   2.471  11.341  0.2913  0.2907 -0.0496
14559TIP3    H165168   3.686   2.547  11.285 -0.4925 -0.6246 -1.5650
14559TIP3    H265169   3.575   2.473  11.356  0.0600 -1.1345 -1.2254
14560TIP3   OH265170   5.525   3.812   0.720  0.0591 -0.1858  0.4535
14560TIP3    H165171   5.478   3.821   0.637 -0.3606 -1.8437  0.4821
14560TIP3    H265172   5.529   3.901   0.754 -1.2840  0.2919 -0.5183
14561TIP3   OH265173   4.585   2.982   3.138  0.3092 -0.2075  0.1251
14561TIP3    H165174   4.576   2.897   3.094  1.7840 -0.5169  0.3700
14561TIP3    H265175   4.618   3.041   3.070 -2.6446  0.7446 -0.6017
14562TIP3   OH265176   6.336   1.000  12.311  0.1523  0.1869 -0.3328
14562TIP3    H165177   6.291   1.018  12.393  0.9396  0.9651 -0.0566
14562TIP3    H265178   6.377   0.914  12.324  0.5510  0.4551  0.2191
14563TIP3   OH265179   1.527   2.584   2.748  0.5540  0.3817 -0.4637
14563TIP3    H165180   1.483   2.652   2.696 -1.0500  0.9270  1.4862
14563TIP3    H265181   1.620   2.596   2.728  0.1172  1.3765 -2.2119
14564TIP3   OH265182   1.386   1.791  12.370  0.4272  0.1299 -0.5552
14564TIP3    H165183   1.329   1.820  12.442  1.4255  2.5692 -0.6586
14564TIP3    H265184   1.441   1.724  12.409  0.4420  0.8846  0.7684
14565TIP3   OH265185   5.474   1.981   1.094  0.0536  0.1112 -0.3408
14565TIP3    H165186   5.500   1.914   1.158 -0.2193  0.4980  0.1767
14565TIP3    H265187   5.382   1.999   1.113 -0.0444  0.2065 -0.8694
14566TIP3   OH265188   5.941   2.162   0.740 -0.7889  0.3474 -0.1982
14566TIP3    H165189   5.966   2.243   0.695 -2.4613 -0.1383 -2.1412
14566TIP3    H265190   6.025   2.122   0.765  0.1470  1.6000 -1.1728
14567TIP3   OH265191   2.518   2.764   1.036 -0.3892  0.2837  0.0173
14567TIP3    H165192   2.611   2.768   1.013 -0.0820 -0.7216  0.9578
14567TIP3    H265193   2.510   2.817   1.116 -0.1627 -1.3239  1.1667
14568TIP3   OH265194   5.666   1.691   3.719  0.4996  0.1180  0.2814
14568TIP3    H165195   5.671   1.597   3.702 -0.0530  0.0534  0.4748
14568TIP3    H265196   5.713   1.703   3.802  0.7092  0.0374  0.1756
14569TIP3   OH265197   2.370   6.239   3.056 -0.0808  0.1879  0.3308
14569TIP3    H165198   2.309   6.268   3.123  1.0544  0.6925  1.1687
14569TIP3    H265199   2.454   6.229   3.101 -0.0350 -3.0383 -0.2004
14570TIP3   OH265200   2.278   6.047  13.691  0.1825  0.4196  0.5514
14570TIP3    H165201   2.303   6.139  13.678 -0.7088  0.5688 -0.2966
14570TIP3    H265202   2.211   6.050  13.759 -1.0855  0.6340 -0.6513
14571TIP3   OH265203   5.169   6.397  12.981 -0.0126 -0.2985 -0.1237
14571TIP3    H165204   5.139   6.446  13.057  0.1775 -0.0193 -0.2255
14571TIP3    H265205   5.249   6.443  12.953  0.5057 -1.0189  0.1441
14572TIP3   OH265206   0.133   1.170  11.703  0.5145 -0.0402  0.0620
14572TIP3    H165207   0.075   1.113  11.652 -1.3446  0.7049  1.2235
14572TIP3    H265208   0.148   1.246  11.647 -0.8251  0.3930  0.2480
14573TIP3   OH265209   2.288   6.405   1.789  0.1312  0.2338  0.5589
14573TIP3    H165210   2.224   6.436   1.726 -0.3401 -1.2622  0.2546
14573TIP3    H265211   2.290   6.310   1.776  1.4165  0.1011  1.4966
14574TIP3   OH265212   2.753   2.762   1.263  0.0888 -0.5547 -0.3006
14574TIP3    H165213   2.786   2.678   1.232 -1.4228 -0.7303 -1.5962
14574TIP3    H265214   2.667   2.742   1.300  0.0473  0.3076  0.0988
14575TIP3   OH265215   0.746   6.166  14.414  0.0941  0.1658 -0.4464
14575TIP3    H165216   0.823   6.224  14.413 -1.5265  2.4518  0.2765
14575TIP3    H265217   0.738   6.139  14.506 -1.4075  2.0879  0.0525
14576TIP3   OH265218   4.664   5.407   3.715  0.0647 -0.9543  0.0293
14576TIP3    H165219   4.646   5.474   3.781 -1.8988 -0.5556 -0.8240
14576TIP3    H265220   4.744   5.435   3.672 -1.3936  1.6610 -1.1993
14577TIP3   OH265221   4.972   3.336   3.123  0.1919 -0.7937  0.4391
14577TIP3    H165222   4.985   3.421   3.165 -1.0497  1.4182 -3.1539
14577TIP3    H265223   5.060   3.299   3.116  1.3298  1.8299 -0.7816
14578TIP3   OH265224   5.013   6.477   2.752  0.1686 -0.0259  0.4837
14578TIP3    H165225   5.013   6.571   2.739  1.8093 -0.1053 -0.2522
14578TIP3    H265226   4.988   6.440   2.667 -0.1904 -0.2694  0.6906
14579TIP3   OH265227   2.354   1.321   3.381  0.3701  0.1868 -0.2686
14579TIP3    H165228   2.262   1.294   3.390  0.0466  0.4411 -2.3001
14579TIP3    H265229   2.396   1.249   3.334  0.4116  1.3885 -2.2061
14580TIP3   OH265230   4.751   4.860   3.188 -0.0894  0.5145 -0.5350
14580TIP3    H165231   4.840   4.824   3.180  0.4477  2.1289 -3.2034
14580TIP3    H265232   4.697   4.785   3.211  1.7292 -0.8558 -0.4562
14581TIP3   OH265233   6.494   4.956  12.550  0.1130  0.4274  0.2461
14581TIP3    H165234   6.411   4.998  12.572  0.3900  0.2195  1.7893
14581TIP3    H265235   6.552   4.976  12.624  1.5072  0.7230 -0.8832
14582TIP3   OH265236   6.045   5.740  11.539  0.2173  0.2882  0.4242
14582TIP3    H165237   6.106   5.706  11.474 -0.0243  0.4533  0.1113
14582TIP3    H265238   6.092   5.814  11.579 -0.1377  1.0433 -0.4973
14583TIP3   OH265239   4.897   5.528   5.380 -0.3467 -0.6940  0.3412
14583TIP3    H165240   4.954   5.598   5.413 -0.2118 -0.6896  0.1047
14583TIP3    H265241   4.827   5.575   5.334 -0.5061 -0.7011  0.5754
14584TIP3   OH265242   3.493   0.414   5.813  0.0347 -0.1216  0.0315
14584TIP3    H165243   3.490   0.355   5.888 -0.5597  0.4606  0.4756
14584TIP3    H265244   3.530   0.495   5.848  0.6019 -0.1361 -0.5143
14585TIP3   OH265245   3.574   6.808   1.393  0.6321 -0.2707  0.4620
14585TIP3    H165246   3.648   6.778   1.445 -0.2919 -1.4104  1.1727
14585TIP3    H265247   3.503   6.747   1.414 -0.9430  1.6018  0.8584
14586TIP3   OH265248   5.347   4.672   2.744 -0.0940 -0.3726 -0.1333
14586TIP3    H165249   5.279   4.718   2.695  1.6017  0.4108 -1.8865
14586TIP3    H265250   5.416   4.654   2.679  2.9471  1.9817  2.1200
14587TIP3   OH265251   1.458   1.858   2.527  0.4906  0.0186 -0.5432
14587TIP3    H165252   1.493   1.786   2.580 -0.9168 -1.3850 -1.4611
14587TIP3    H265253   1.529   1.880   2.467  0.6048 -1.2522 -0.8911
14588TIP3   OH265254   3.196   5.495  10.706  0.1355 -0.4206  0.2705
14588TIP3    H165255   3.169   5.583  10.733  0.7568  0.1540 -0.9139
14588TIP3    H265256   3.204   5.447  10.788 -1.8750  0.1116  0.8605
14589TIP3   OH265257   5.014   0.327   4.365 -0.3072  0.3742  0.7513
14589TIP3    H165258   4.919   0.338   4.371 -0.4376 -0.5582  0.4473
14589TIP3    H265259   5.029   0.292   4.278  0.2387 -0.2695  1.0931
14590TIP3   OH265260   5.539   0.621   3.868 -0.4380 -0.2330 -0.5766
14590TIP3    H165261   5.485   0.699   3.877 -2.2097 -1.5925  1.4399
14590TIP3    H265262   5.600   0.626   3.942 -0.2540 -0.5403 -0.7076
14591TIP3   OH265263   3.145   1.528  14.045  0.2712  0.4784  0.5094
14591TIP3    H165264   3.092   1.606  14.059  0.8601  0.9538  0.1542
14591TIP3    H265265   3.178   1.537  13.956  0.8165  0.1227  0.6689
14592TIP3   OH265266   3.085   6.348  16.305 -0.2935  0.0074 -0.5872
14592TIP3    H165267   3.015   6.412  16.287 -2.3126 -2.3394 -1.7443
14592TIP3    H265268   3.041   6.279  16.354  2.1388  0.0346  1.8358
14593TIP3   OH265269   1.925   4.421   5.560  0.2332  0.3892  0.8214
14593TIP3    H165270   1.958   4.463   5.482  0.1561 -0.0743  0.5330
14593TIP3    H265271   2.001   4.414   5.618  1.4516 -3.1081 -0.8615
14594TIP3   OH265272   3.911   3.075   3.623  0.0911  0.1512 -0.2743
14594TIP3    H165273   3.816   3.067   3.624  0.1707 -0.9367 -0.2187
14594TIP3    H265274   3.930   3.150   3.679 -0.7382  0.4731 -0.4159
14595TIP3   OH265275   2.168   5.377   3.185 -0.0493 -0.3876  0.4286
14595TIP3    H165276   2.083   5.335   3.193  0.2115 -0.8050  1.0740
14595TIP3    H265277   2.218   5.318   3.129  0.6471 -1.5042  2.1506
14596TIP3   OH265278   5.600   3.856   5.659  0.0263  0.1900  0.2503
14596TIP3    H165279   5.546   3.801   5.715 -0.1026  0.4870  0.4223
14596TIP3    H265280   5.687   3.852   5.697  0.1557 -0.3717 -0.0858
14597TIP3   OH265281   4.991   0.223  10.794  0.0203  0.2130  0.4802
14597TIP3    H165282   4.923   0.187  10.850  1.0790  0.4787  1.9993
14597TIP3    H265283   5.073   0.199  10.837  0.8286  1.8283 -0.0591
14598TIP3   OH265284   1.613   3.007   1.739 -0.0114  0.1859 -0.0705
14598TIP3    H165285   1.587   3.071   1.806  1.1183 -1.1217  1.7058
14598TIP3    H265286   1.665   2.942   1.787 -0.8717 -1.9230 -1.8561
14599TIP3   OH265287   6.007   5.660  11.828 -0.0564 -0.2926  0.1787
14599TIP3    H165288   6.063   5.688  11.755 -0.3925 -1.0459 -0.3763
14599TIP3    H265289   6.057   5.683  11.906  0.1140  0.9335 -0.2750
14600TIP3   OH265290   5.466   2.185  14.071  0.4935  0.2395 -1.0439
14600TIP3    H165291   5.536   2.231  14.118 -1.0471  0.1032  1.5816
14600TIP3    H265292   5.396   2.249  14.063 -0.7390 -0.8470  0.4580
14601TIP3   OH265293   4.262   5.231  16.725 -0.5666 -0.1837 -0.0516
14601TIP3    H165294   4.337   5.260  16.776  0.4035 -0.9685 -1.0071
14601TIP3    H265295   4.238   5.307  16.672 -0.5443  0.1059  0.3471
14602TIP3   OH265296   1.042   4.105   5.225 -0.4324  0.0585 -0.0999
14602TIP3    H165297   1.105   4.053   5.276 -2.8084 -0.9623  2.0278
14602TIP3    H265298   0.999   4.042   5.168 -0.2640  0.5452 -0.7711
14603TIP3   OH265299   4.936   5.062   0.297  0.2300  0.0098 -0.8438
14603TIP3    H165300   4.968   4.972   0.300  2.0330  0.5781 -1.4523
14603TIP3    H265301   4.932   5.083   0.203 -1.5557  0.1450 -0.7812
14604TIP3   OH265302   1.957   6.459  13.623  0.1011 -0.0854  0.1194
14604TIP3    H165303   1.912   6.383  13.588  0.7612 -1.7396  2.5997
14604TIP3    H265304   1.898   6.494  13.690 -0.9752  2.7678 -2.1085
14605TIP3   OH265305   1.828   3.407   5.559  0.2777  0.2531  0.1508
14605TIP3    H165306   1.877   3.339   5.605 -1.1088  0.0064  1.3412
14605TIP3    H265307   1.893   3.474   5.539  1.1526 -0.1683  1.4489
14606TIP3   OH265308   5.606   0.133   5.274 -0.3981 -0.3508 -0.3907
14606TIP3    H165309   5.514   0.159   5.266  0.1088  1.4235 -0.9650
14606TIP3    H265310   5.648   0.207   5.317  0.7002 -1.3410  0.3159
14607TIP3   OH265311   2.114   4.355  16.664  0.0885 -0.8643  0.5353
14607TIP3    H165312   2.173   4.280  16.675 -0.6831 -1.7531 -1.1060
14607TIP3    H265313   2.043   4.339  16.726  0.3430 -1.0574  0.7803
14608TIP3   OH265314   5.924   6.530  14.463  0.4505  0.2835 -0.4939
14608TIP3    H165315   5.865   6.583  14.515  0.2138  0.1829 -0.6604
14608TIP3    H265316   6.006   6.580  14.461  0.7476 -0.1162  0.7065
14609TIP3   OH265317   5.576   6.104   1.639 -0.5659  0.2586 -0.1587
14609TIP3    H165318   5.570   6.177   1.700 -1.1999  0.1040 -0.0202
14609TIP3    H265319   5.655   6.056   1.666 -0.0805  0.9588 -0.3357
14610TIP3   OH265320   3.159   6.661   5.600 -0.1488  0.0006  0.1522
14610TIP3    H165321   3.068   6.680   5.577 -0.7494 -0.5085  1.9225
14610TIP3    H265322   3.205   6.743   5.586 -0.9229  0.3445 -0.5020
14611TIP3   OH265323   2.880   4.835   4.216 -0.0244  0.3583  0.7660
14611TIP3    H165324   2.870   4.894   4.291 -3.5576 -0.4415  1.0980
14611TIP3    H265325   2.864   4.748   4.252 -1.0839 -0.1173 -0.7694
14612TIP3   OH265326   3.084   0.934   4.275  0.0531 -0.4072 -0.4038
14612TIP3    H165327   3.036   0.953   4.194 -0.3892 -0.5433 -0.1722
14612TIP3    H265328   3.031   0.868   4.320 -1.1504  1.6657  1.3498
14613TIP3   OH265329   6.675   6.247   4.577  0.2653 -0.5888 -0.6897
14613TIP3    H165330   6.705   6.290   4.497 -0.3128 -1.0974 -1.1938
14613TIP3    H265331   6.678   6.316   4.643  1.3555 -0.3231 -0.9964
14614TIP3   OH265332   2.376   5.057  12.463 -0.0384  0.1769 -0.3389
14614TIP3    H165333   2.307   5.045  12.528 -0.2637  0.2225 -0.5659
14614TIP3    H265334   2.386   5.152  12.457  0.2109  0.1630 -0.1328
14615TIP3   OH265335   4.070   1.842   0.274  0.2389 -0.1943 -0.0967
14615TIP3    H165336   4.012   1.861   0.201  0.4387 -3.4603 -1.2723
14615TIP3    H265337   4.014   1.798   0.338  0.5328  0.6622  0.7683
14616TIP3   OH265338   1.148   3.366  15.466 -0.1055 -0.0912  0.6312
14616TIP3    H165339   1.113   3.281  15.437  0.5585 -0.2269  0.2037
14616TIP3    H265340   1.237   3.346  15.495  0.3119  0.5706 -0.1428
14617TIP3   OH265341   1.043   5.335  11.625 -0.2190  0.2320  0.0669
14617TIP3    H165342   1.136   5.332  11.602 -0.0916 -0.7623  0.6493
14617TIP3    H265343   0.999   5.295  11.550 -0.0828 -0.1652  0.1934
14618TIP3   OH265344   0.906   3.800  14.725  0.0896 -0.8492  0.1049
14618TIP3    H165345   0.927   3.769  14.636  0.2082  0.9528 -0.5348
14618TIP3    H265346   0.978   3.857  14.749 -1.5047  1.3820 -0.0572
14619TIP3   OH265347   3.885   6.593  12.345 -0.2331  0.4238  0.0104
14619TIP3    H165348   3.925   6.537  12.279  0.8269 -0.5954  1.4585
14619TIP3    H265349   3.958   6.622  12.400 -0.9929  1.8404  0.3369
14620TIP3   OH265350   3.192   1.128   0.655  0.1058  0.6676 -0.0120
14620TIP3    H165351   3.113   1.162   0.696  0.1494  0.8995 -0.1168
14620TIP3    H265352   3.217   1.052   0.709 -0.8780 -0.1752 -0.7062
14621TIP3   OH265353   4.216   4.200   6.330  0.0514 -0.2695 -0.2549
14621TIP3    H165354   4.214   4.280   6.278 -3.4686 -0.4802 -0.6846
14621TIP3    H265355   4.190   4.131   6.269 -2.3339 -0.8010  1.2010
14622TIP3   OH265356   5.367   5.857   3.269 -0.5105 -0.0379 -0.5747
14622TIP3    H165357   5.292   5.897   3.313 -2.0380 -2.2554 -0.9787
14622TIP3    H265358   5.427   5.834   3.340 -1.8198 -1.3206  0.1650
14623TIP3   OH265359   0.676   5.694  13.894 -0.0449  0.5422 -0.2825
14623TIP3    H165360   0.670   5.763  13.827  1.5007 -0.0449 -1.0816
14623TIP3    H265361   0.742   5.726  13.956  0.4596 -0.0603 -0.4958
14624TIP3   OH265362   4.526   0.414  14.910 -0.1153  0.0111  0.5923
14624TIP3    H165363   4.527   0.324  14.879 -0.6196  0.1387  0.1912
14624TIP3    H265364   4.513   0.467  14.831 -1.2291  0.3540  0.9908
14625TIP3   OH265365   2.128   1.203   5.097  0.8845 -0.0639 -0.0576
14625TIP3    H165366   2.033   1.196   5.099  0.8440  0.4806  1.2433
14625TIP3    H265367   2.145   1.282   5.045  0.8026 -1.9242 -3.0905
14626TIP3   OH265368   3.000   2.434  16.341 -0.4196 -0.2121  0.2381
14626TIP3    H165369   2.944   2.499  16.383 -0.4398 -0.8348  1.2128
14626TIP3    H265370   3.029   2.476  16.260  0.7777  1.6229  1.5422
14627TIP3   OH265371   3.374   2.094  16.418  0.3327 -0.0563  0.5282
14627TIP3    H165372   3.281   2.098  16.439  0.2609  0.9433  0.0829
14627TIP3    H265373   3.403   2.185  16.423  1.6536 -0.5240  2.1894
14628TIP3   OH265374   5.356   6.811   2.313  0.2782 -0.1756 -0.5969
14628TIP3    H165375   5.420   6.800   2.383 -0.6833  0.4277  0.3982
14628TIP3    H265376   5.391   6.881   2.259 -0.4934  1.5850  1.0963
14629TIP3   OH265377   3.926   1.821   1.946  0.3869 -0.0944 -0.2072
14629TIP3    H165378   3.873   1.813   2.025 -0.2308  0.3686 -0.5641
14629TIP3    H265379   3.893   1.753   1.888 -0.0529  0.4012 -0.5521
14630TIP3   OH265380   1.017   2.290  11.462  0.4915 -0.2342  0.4260
14630TIP3    H165381   0.922   2.278  11.460  0.5506 -0.8283 -1.3227
14630TIP3    H265382   1.030   2.382  11.484 -0.5433  0.0698 -0.1683
14631TIP3   OH265383   1.767   0.507  17.109  0.1242 -0.7366 -0.0340
14631TIP3    H165384   1.808   0.560  17.041 -0.6402 -3.0113 -2.3944
14631TIP3    H265385   1.839   0.454  17.144  1.3011  2.7125  3.5784
14632TIP3   OH265386   2.983   6.312  15.899  0.4078 -0.1448 -0.7343
14632TIP3    H165387   2.938   6.396  15.910  0.8417  0.3623 -2.4893
14632TIP3    H265388   2.922   6.248  15.935 -1.4649  0.5941 -2.3833
14633TIP3   OH265389   0.111   3.177   2.319 -0.2954 -0.0190 -0.0881
14633TIP3    H165390   0.020   3.165   2.346 -0.3778 -2.2787 -1.1798
14633TIP3    H265391   0.162   3.121   2.377  0.2941  0.4484 -0.1382
14634TIP3   OH265392   3.879   0.518  15.803 -0.4619 -0.1288 -0.2606
14634TIP3    H165393   3.890   0.550  15.893 -0.6985 -0.1117 -0.2356
14634TIP3    H265394   3.786   0.493  15.798 -0.6643  0.6565 -0.7466
14635TIP3   OH265395   4.364   5.749  14.366 -0.4136  0.1419 -0.1712
14635TIP3    H165396   4.354   5.728  14.459  0.7796 -1.3621 -0.3442
14635TIP3    H265397   4.338   5.669  14.321  0.2615  0.4129 -1.0678
14636TIP3   OH265398   5.900   6.329  13.768  0.0322 -0.3114  0.2262
14636TIP3    H165399   5.839   6.289  13.707 -1.1333  1.2123  0.3475
14636TIP3    H265400   5.961   6.378  13.713  0.6923 -1.1638  0.1603
14637TIP3   OH265401   5.508   4.428  13.012 -0.5986  0.2366  0.0680
14637TIP3    H165402   5.447   4.416  13.085 -2.8470  0.2188 -1.7001
14637TIP3    H265403   5.584   4.471  13.051 -0.5420 -2.0943  2.8987
14638TIP3   OH265404   2.581   5.373   3.719 -0.5388  0.2363 -0.6040
14638TIP3    H165405   2.598   5.288   3.678 -0.9659 -0.5745  0.8469
14638TIP3    H265406   2.648   5.381   3.786 -0.3985  1.1396 -0.8419
14639TIP3   OH265407   2.714   4.597  13.492 -0.5967  0.3363  0.2323
14639TIP3    H165408   2.653   4.652  13.443  1.0517  0.3019 -2.0318
14639TIP3    H265409   2.771   4.658  13.538 -2.1808  0.3693  2.2804
14640TIP3   OH265410   6.323   2.598  12.424  0.2545  0.3865 -0.1448
14640TIP3    H165411   6.369   2.637  12.499 -0.6949 -0.6379  1.0210
14640TIP3    H265412   6.252   2.548  12.464 -0.8034  0.5019 -1.7945
14641TIP3   OH265413   2.229   1.195  10.789 -0.2308 -0.2777  0.0119
14641TIP3    H165414   2.139   1.175  10.815  0.1099 -0.4148  1.1719
14641TIP3    H265415   2.240   1.288  10.808  0.1706 -0.4857  0.8392
14642TIP3   OH265416   1.437   0.038   5.905 -0.5594  0.0447  0.0498
14642TIP3    H165417   1.504   0.105   5.891 -0.6503 -0.1206 -1.3072
14642TIP3    H265418   1.429   0.031   6.001  1.8699 -0.4637  0.2669
14643TIP3   OH265419   5.524   5.372   4.165  0.6697 -0.0446  0.1371
14643TIP3    H165420   5.520   5.370   4.260  2.0434 -3.3527  0.2535
14643TIP3    H265421   5.607   5.415   4.146 -0.1193  1.6595  0.2994
14644TIP3   OH265422   0.889   4.021   3.100  0.5534  0.4771 -0.2843
14644TIP3    H165423   0.846   4.103   3.123  1.7750  0.9975  0.2341
14644TIP3    H265424   0.878   4.013   3.006  0.3938  1.2144 -0.3304
14645TIP3   OH265425   2.658   4.971   2.453 -0.7361 -0.1514 -0.4439
14645TIP3    H165426   2.685   4.886   2.418  0.1031  0.5855 -1.6894
14645TIP3    H265427   2.563   4.963   2.466 -0.8443 -0.9300 -1.5722
14646TIP3   OH265428   2.801   0.627   3.499 -0.3687 -0.6077 -0.1374
14646TIP3    H165429   2.713   0.627   3.460 -1.3633 -0.4949  1.9455
14646TIP3    H265430   2.822   0.534   3.507 -1.6727 -0.7898  2.0782
14647TIP3   OH265431   1.118   5.709  12.414 -0.3645 -0.2057  0.4642
14647TIP3    H165432   1.191   5.769  12.400 -0.5003  0.4444  2.2495
14647TIP3    H265433   1.128   5.680  12.505 -1.5426 -1.1938  0.3120
14648TIP3   OH265434   0.276   5.220  15.435  0.5596  0.0756 -0.2653
14648TIP3    H165435   0.345   5.158  15.412  0.5373 -0.0511  0.0069
14648TIP3    H265436   0.238   5.246  15.351  0.7786 -0.0375 -0.3991
14649TIP3   OH265437   5.742   0.211   2.906 -0.3223 -0.0034 -0.2672
14649TIP3    H165438   5.662   0.172   2.870  0.4506 -0.0165 -2.0800
14649TIP3    H265439   5.737   0.304   2.882 -0.2969  0.2244  0.5732
14650TIP3   OH265440   3.843   6.284  12.020  0.7434  0.3252 -0.3914
14650TIP3    H165441   3.818   6.376  12.011  2.9927  1.0113 -0.0360
14650TIP3    H265442   3.774   6.236  11.974 -0.6530  2.1434 -0.3038
14651TIP3   OH265443   3.250   6.625   0.275 -0.1484  0.5785 -0.5488
14651TIP3    H165444   3.276   6.695   0.334  0.0337  0.2932 -0.2823
14651TIP3    H265445   3.235   6.668   0.191 -1.1057  1.0956 -0.1213
14652TIP3   OH265446   0.030   5.948  13.808  0.5249 -0.5367  0.2695
14652TIP3    H165447  -0.058   5.966  13.774 -0.3170  0.1853  2.6553
14652TIP3    H265448   0.050   5.859  13.777 -0.4542 -0.2247 -1.4016
14653TIP3   OH265449   6.569   0.080   1.023  0.0483  0.2800 -0.4710
14653TIP3    H165450   6.649   0.121   0.991  0.1900  0.7317  0.4226
14653TIP3    H265451   6.518   0.060   0.944  1.8866 -1.8646 -1.2442
14654TIP3   OH265452   4.810   6.305   5.852 -0.2931  0.3187 -0.2389
14654TIP3    H165453   4.892   6.264   5.825 -0.9096  0.4355 -2.4133
14654TIP3    H265454   4.825   6.330   5.944  1.8506 -0.2585 -0.3908
14655TIP3   OH265455   4.036   4.650   4.973  0.0488  0.4563 -0.1695
14655TIP3    H165456   4.042   4.655   4.877  0.7269 -2.2052 -0.3343
14655TIP3    H265457   4.104   4.589   4.998 -0.3954  0.7828  2.0087
14656TIP3   OH265458   1.809   6.570  15.965  0.0667  0.0650  0.7675
14656TIP3    H165459   1.896   6.547  15.931 -0.8734 -0.3202 -1.5502
14656TIP3    H265460   1.799   6.663  15.944 -0.4136 -0.1045  0.2307
14657TIP3   OH265461   2.932   2.232   1.019  0.0127  0.0646 -0.2124
14657TIP3    H165462   3.002   2.257   0.960  2.4107 -2.4293  1.3357
14657TIP3    H265463   2.963   2.259   1.106 -0.8056 -1.2698  0.5273
14658TIP3   OH265464   0.440   1.050  15.334 -0.0191  0.1445  0.9610
14658TIP3    H165465   0.410   1.047  15.243 -0.1674  0.8625  0.9756
14658TIP3    H265466   0.427   0.962  15.367 -2.8495  0.5756  1.2116
14659TIP3   OH265467   5.265   0.869   0.877 -0.2014 -0.6328  0.0891
14659TIP3    H165468   5.174   0.890   0.900  0.0295  0.0414  0.4206
14659TIP3    H265469   5.290   0.800   0.938 -0.3476 -0.5056  0.2952
14660TIP3   OH265470   1.695   6.749  13.509  0.6885  0.0795 -0.2324
14660TIP3    H165471   1.710   6.836  13.470  0.4669 -0.3011 -1.1944
14660TIP3    H265472   1.750   6.690  13.457 -0.6143 -0.6396 -0.8231
14661TIP3   OH265473   0.760   1.362  12.084  0.2813 -0.3442  0.4687
14661TIP3    H165474   0.705   1.412  12.024  1.3941 -0.8608 -1.0387
14661TIP3    H265475   0.698   1.312  12.137 -0.7925  1.4057  0.9620
14662TIP3   OH265476   5.509   2.804   5.164  0.7489 -0.0549  0.0862
14662TIP3    H165477   5.473   2.875   5.111 -0.0550 -0.8123 -0.4224
14662TIP3    H265478   5.588   2.841   5.203  1.5543  0.4423 -1.8817
14663TIP3   OH265479   2.494   5.461  15.845  0.1498 -0.1963 -0.0699
14663TIP3    H165480   2.554   5.406  15.896  1.5733  1.1160 -0.2541
14663TIP3    H265481   2.469   5.532  15.905 -0.1240  0.0208 -0.4310
14664TIP3   OH265482   1.006   4.426   3.108 -0.0563 -0.2810 -0.0675
14664TIP3    H165483   1.076   4.390   3.054  0.2843 -0.1703  0.2935
14664TIP3    H265484   0.929   4.429   3.050  0.3946  0.1852 -0.6561
14665TIP3   OH265485   1.885   4.290  16.809 -0.0489  0.0655 -0.1479
14665TIP3    H165486   1.846   4.282  16.722 -0.3728  0.7394 -0.0659
14665TIP3    H265487   1.816   4.261  16.869  0.2686 -0.6621 -0.1305
14666TIP3   OH265488   0.509   3.369   1.399 -0.0688 -0.3386  0.0679
14666TIP3    H165489   0.601   3.356   1.423  0.8955  1.8094 -1.9700
14666TIP3    H265490   0.481   3.444   1.451 -1.4486 -2.2294  2.2421
14667TIP3   OH265491   0.461   3.883   0.698  0.0424 -0.3811  0.1207
14667TIP3    H165492   0.449   3.858   0.790  1.7057  3.8252  1.7746
14667TIP3    H265493   0.553   3.866   0.680 -0.0922 -0.4770 -0.4922
14668TIP3   OH265494   6.795   2.955  11.618  1.1029 -0.3016 -0.4610
14668TIP3    H165495   6.845   2.970  11.698 -0.6422 -1.0444  0.8385
14668TIP3    H265496   6.716   3.009  11.628  0.4971 -0.9866 -1.3187
14669TIP3   OH265497   0.201   0.602  11.670  0.2094  0.3801  0.4733
14669TIP3    H165498   0.131   0.538  11.680  0.4657  0.3093  1.9845
14669TIP3    H265499   0.224   0.597  11.577 -0.0158 -1.4507  0.4790
14670TIP3   OH265500   0.024   1.275  12.395 -0.2547 -0.6499  0.1003
14670TIP3    H165501   0.107   1.322  12.385 -1.2386  1.5089  1.3713
14670TIP3    H265502   0.044   1.205  12.457  0.9721 -1.2582 -0.9220
14671TIP3   OH265503   6.732   1.675   1.273 -0.0648  0.1512 -0.0985
14671TIP3    H165504   6.776   1.591   1.260 -0.1683 -0.1189  1.1382
14671TIP3    H265505   6.639   1.655   1.261 -0.5840 -0.8977  3.9397
14672TIP3   OH265506   3.873   2.663  12.083  0.5963 -0.5335  0.0704
14672TIP3    H165507   3.838   2.745  12.118  0.5289  0.3430 -1.9473
14672TIP3    H265508   3.803   2.599  12.099  0.0124  0.1418  0.2887
14673TIP3   OH265509   3.159   4.256  11.627  0.5177  0.7917  0.2933
14673TIP3    H165510   3.079   4.212  11.601 -0.5048  0.2464  3.8475
14673TIP3    H265511   3.130   4.339  11.664  2.0890  2.7184 -2.3745
14674TIP3   OH265512   0.196   4.488   3.218  0.2592 -1.0357  0.0225
14674TIP3    H165513   0.190   4.397   3.188  2.5341 -2.5370  3.4976
14674TIP3    H265514   0.142   4.490   3.297  0.5623  0.5324  0.2148
14675TIP3   OH265515   4.419   6.391   4.950 -0.3167  0.0866 -0.5003
14675TIP3    H165516   4.357   6.445   4.999  0.9319  1.7986 -0.7143
14675TIP3    H265517   4.473   6.349   5.018  0.3511  1.1548 -0.3505
14676TIP3   OH265518   4.440   1.005  13.969  0.8625  0.2131 -0.5845
14676TIP3    H165519   4.366   0.945  13.976  1.0946 -0.0710 -0.5495
14676TIP3    H265520   4.486   0.996  14.053  1.0673  0.2130 -0.6971
14677TIP3   OH265521   4.079   5.691   2.699  0.3632  0.1696  0.6332
14677TIP3    H165522   3.991   5.673   2.733  0.4622 -2.0957 -0.1276
14677TIP3    H265523   4.114   5.757   2.758 -1.5637  0.5871  1.4149
14678TIP3   OH265524   3.467   4.133  12.170 -0.2742  0.1918  0.3821
14678TIP3    H165525   3.508   4.150  12.254  1.5842  1.0528 -0.6245
14678TIP3    H265526   3.529   4.077  12.123 -0.2956  1.3577 -1.1235
14679TIP3   OH265527   2.567   1.181   4.067 -0.3924  0.3302 -0.4001
14679TIP3    H165528   2.600   1.093   4.084  0.2045  0.3254 -1.5254
14679TIP3    H265529   2.477   1.168   4.036 -0.8623  0.2329  0.9446
14680TIP3   OH265530   6.707   3.970  16.201 -0.2544 -0.1731 -0.1307
14680TIP3    H165531   6.614   3.953  16.217 -0.8076  2.6430  0.2637
14680TIP3    H265532   6.743   3.992  16.287  0.4830 -0.0602 -0.4594
14681TIP3   OH265533   6.425   5.595   0.836 -0.0530  0.6247  0.2743
14681TIP3    H165534   6.336   5.579   0.804  0.8826 -1.3446 -1.6163
14681TIP3    H265535   6.438   5.689   0.822 -1.2059  0.6121 -1.1975
14682TIP3   OH265536   0.922   5.043  14.412  0.7253  0.5944  0.0053
14682TIP3    H165537   0.891   5.128  14.443 -0.6748  0.3579 -0.6979
14682TIP3    H265538   0.861   5.019  14.343  0.8818 -1.1512  0.4292
14683TIP3   OH265539   0.024   2.932   5.013  0.0974 -0.3479  0.2246
14683TIP3    H165540   0.056   2.938   5.103  2.1248 -0.3198 -0.4555
14683TIP3    H265541   0.014   2.838   4.998 -0.7798 -0.3335  0.6215
14684TIP3   OH265542   6.476   6.152  15.515  0.4312  0.1163 -0.5910
14684TIP3    H165543   6.510   6.089  15.452 -0.9747 -0.6974 -0.5841
14684TIP3    H265544   6.391   6.178  15.479  1.0331  2.1344 -0.6660
14685TIP3   OH265545   0.679   4.882  16.098  0.1823  0.4999  0.0574
14685TIP3    H165546   0.724   4.803  16.071  1.0124  0.6093  1.0568
14685TIP3    H265547   0.616   4.853  16.164  1.8061  0.8731  1.8445
14686TIP3   OH265548   1.155   5.597   5.712 -0.8502  0.3506 -0.1122
14686TIP3    H165549   1.060   5.603   5.705 -0.8604  2.4248  0.8789
14686TIP3    H265550   1.171   5.530   5.778 -1.5192 -1.3841 -1.6419
14687TIP3   OH265551   1.129   4.675  13.439 -0.4951 -0.0766  0.0235
14687TIP3    H165552   1.077   4.676  13.519  1.5741  1.7369  1.4749
14687TIP3    H265553   1.172   4.761  13.437 -0.2000 -0.1996 -2.8827
14688TIP3   OH265554   6.045   4.497   4.137 -0.3610 -0.0232  0.1446
14688TIP3    H165555   6.128   4.460   4.166  1.7716  3.8435 -0.3358
14688TIP3    H265556   5.990   4.497   4.215  0.6631 -1.1730  0.9107
14689TIP3   OH265557   4.176   5.455  16.012 -0.3828  0.1062  0.3128
14689TIP3    H165558   4.118   5.511  15.962  0.5359 -0.7669 -1.8738
14689TIP3    H265559   4.246   5.513  16.042 -1.3545  0.7909  1.3442
14690TIP3   OH265560   2.475   3.718   1.239  0.5719 -0.0259 -0.1150
14690TIP3    H165561   2.485   3.628   1.270  1.9838  0.8709  2.3060
14690TIP3    H265562   2.556   3.761   1.265 -1.2638  2.6975  1.6194
14691TIP3   OH265563   4.338   0.407  10.361 -0.2903  0.0308  0.8488
14691TIP3    H165564   4.350   0.455  10.443  2.0397 -0.1614  0.7065
14691TIP3    H265565   4.251   0.368  10.368 -1.0286  1.8000  2.2558
14692TIP3   OH265566   0.261   5.669   2.073 -0.5054  0.4506  0.7376
14692TIP3    H165567   0.344   5.634   2.105  1.0306  1.9597 -1.3188
14692TIP3    H265568   0.201   5.595   2.075  1.5073 -1.2820  0.2038
14693TIP3   OH265569   6.708   4.869  13.260  0.2654  0.0479 -0.7764
14693TIP3    H165570   6.664   4.950  13.284 -2.3203 -0.2699 -3.6850
14693TIP3    H265571   6.772   4.895  13.194 -1.3093 -0.2113 -2.5285
14694TIP3   OH265572   6.661   5.718   0.266  0.5045  0.2102  0.0736
14694TIP3    H165573   6.715   5.782   0.221  0.2645 -0.8309 -1.8080
14694TIP3    H265574   6.704   5.634   0.248 -1.6452 -0.6489 -1.4930
14695TIP3   OH265575   5.743   2.764  14.161  0.0325 -0.9310 -0.1398
14695TIP3    H165576   5.780   2.786  14.246 -0.0371 -0.9752 -0.0987
14695TIP3    H265577   5.776   2.676  14.143  1.0187 -0.4694 -0.6917
14696TIP3   OH265578   5.473   5.308   2.375  0.3434 -0.1409  0.0764
14696TIP3    H165579   5.561   5.328   2.408  0.9790 -1.0718 -0.9853
14696TIP3    H265580   5.460   5.370   2.302  0.8057 -1.0597 -0.8152
14697TIP3   OH265581   3.859   0.202   4.419  0.5087 -0.2479 -0.1174
14697TIP3    H165582   3.845   0.108   4.426  1.2385 -0.2631  1.7949
14697TIP3    H265583   3.772   0.238   4.401  0.2421 -1.2761 -0.9735
14698TIP3   OH265584   5.364   1.282  14.919  0.0829  1.0054 -0.2699
14698TIP3    H165585   5.297   1.350  14.911 -0.0457  1.0199  0.7074
14698TIP3    H265586   5.403   1.276  14.832 -3.7176 -1.6821 -2.1045
14699TIP3   OH265587   6.701   5.071   5.465 -0.0554 -0.0170 -0.0552
14699TIP3    H165588   6.688   5.158   5.427 -1.4645  0.1824  0.8154
14699TIP3    H265589   6.639   5.067   5.538  1.1979 -1.1064  1.0083
14700TIP3   OH265590   0.849   3.133  14.891  0.3529 -0.1236  0.2145
14700TIP3    H165591   0.898   3.199  14.938  0.9737 -0.6194  0.2718
14700TIP3    H265592   0.830   3.172  14.806 -0.1277  0.4902  0.5975
14701TIP3   OH265593   1.530   6.647   4.434 -0.8009 -0.3037 -0.9610
14701TIP3    H165594   1.475   6.715   4.397 -0.1311  1.6348  1.3202
14701TIP3    H265595   1.470   6.578   4.461 -1.8843  0.7801 -0.5326
14702TIP3   OH265596   4.875   6.648  15.535  0.5108 -0.0256  0.2976
14702TIP3    H165597   4.822   6.574  15.504 -1.5708  0.9164  1.4026
14702TIP3    H265598   4.901   6.623  15.624 -1.4701  1.1034  1.2606
14703TIP3   OH265599   2.226   0.845   3.499 -0.2078  0.1673  0.2230
14703TIP3    H165600   2.173   0.893   3.436 -1.6738 -0.7572  0.7007
14703TIP3    H265601   2.279   0.786   3.446 -0.2715  0.5050 -0.2248
14704TIP3   OH265602   0.343   4.881  16.692  0.1250  0.4719 -0.0926
14704TIP3    H165603   0.266   4.921  16.732  0.5455  1.7204 -0.4825
14704TIP3    H265604   0.337   4.906  16.600  1.1001  0.7604 -0.0851
14705TIP3   OH265605   2.349   2.129  16.741 -0.0413  0.5362 -0.7218
14705TIP3    H165606   2.387   2.215  16.724  0.2776  0.5161 -0.1175
14705TIP3    H265607   2.384   2.103  16.826  0.3191 -0.4496 -1.1593
14706TIP3   OH265608   1.873   2.513  11.750  0.7096 -0.2563  0.0605
14706TIP3    H165609   1.961   2.544  11.773  1.0184 -0.3068 -0.9711
14706TIP3    H265610   1.838   2.582  11.694  1.5787 -1.8380 -2.6617
14707TIP3   OH265611   2.993   3.191  11.092  0.2076 -0.1398 -0.3765
14707TIP3    H165612   2.919   3.240  11.130  0.1248 -0.5047 -0.0712
14707TIP3    H265613   3.012   3.238  11.010  0.9992  1.2163  0.5441
14708TIP3   OH265614   5.653   6.189   3.676 -0.0243  0.3398 -0.2096
14708TIP3    H165615   5.599   6.228   3.607 -0.4947 -0.8106 -0.5230
14708TIP3    H265616   5.594   6.183   3.751 -0.1125 -0.1916 -0.3139
14709TIP3   OH265617   6.429   1.402   0.025 -0.0585  0.1738  0.6968
14709TIP3    H165618   6.460   1.436   0.110  0.7537  1.9478 -0.2518
14709TIP3    H265619   6.346   1.359   0.045  0.8129 -0.7446  2.6090
14710TIP3   OH265620   3.328   4.633   3.009 -0.5117  0.2610  0.1944
14710TIP3    H165621   3.251   4.601   2.962 -0.1284  1.0993 -1.0562
14710TIP3    H265622   3.379   4.555   3.027 -1.4064 -0.2486  0.5885
14711TIP3   OH265623   1.589   1.306  11.970 -0.0632 -0.7761  0.4341
14711TIP3    H165624   1.626   1.218  11.976 -1.7842 -1.6247 -0.6318
14711TIP3    H265625   1.604   1.333  11.879  2.6285  1.1286  1.3073
14712TIP3   OH265626   2.445   2.577  10.526 -0.2227  0.3093 -0.2372
14712TIP3    H165627   2.506   2.636  10.481  0.6972 -0.6613 -0.3090
14712TIP3    H265628   2.499   2.501  10.549 -1.2990 -0.3444  0.1687
14713TIP3   OH265629   1.001   1.766  16.020 -0.0276  0.2085 -0.4706
14713TIP3    H165630   0.982   1.850  16.062 -0.1907  0.0525 -0.2323
14713TIP3    H265631   0.921   1.715  16.028 -0.3242  0.4457 -1.6415
14714TIP3   OH265632   1.032   0.834   6.504  0.0129  0.3283  0.3014
14714TIP3    H165633   1.011   0.776   6.577  1.2039  0.6919  0.9639
14714TIP3    H265634   1.090   0.900   6.542  3.2684 -1.2099 -1.5766
14715TIP3   OH265635   0.624   2.585   5.156 -0.0533  0.0928 -0.1063
14715TIP3    H165636   0.690   2.653   5.168 -1.1786  1.6338 -2.0261
14715TIP3    H265637   0.540   2.631   5.160 -0.8313 -0.9444 -2.2839
14716TIP3   OH265638   3.297   5.188   2.571  0.3152 -0.0445  0.2407
14716TIP3    H165639   3.374   5.148   2.530  0.2598 -1.0900  1.1090
14716TIP3    H265640   3.226   5.125   2.557 -0.2126  0.5756  0.0776
14717TIP3   OH265641   0.231   1.268  12.640  0.3776  0.1187  0.0673
14717TIP3    H165642   0.274   1.352  12.659  1.3390 -0.5638  1.0280
14717TIP3    H265643   0.303   1.210  12.614 -0.2519 -0.4639 -0.3955
14718TIP3   OH265644   3.361   2.801  13.869 -0.3894 -0.3675 -0.0741
14718TIP3    H165645   3.301   2.831  13.937 -0.6635 -1.5787  0.2407
14718TIP3    H265646   3.320   2.830  13.787  0.0736  1.3222  0.2560
14719TIP3   OH265647   4.467   2.674  12.726  0.2074  0.1645 -0.4150
14719TIP3    H165648   4.415   2.660  12.646 -0.1874  2.3551 -0.5979
14719TIP3    H265649   4.439   2.603  12.785 -4.6237  2.2291  0.2945
14720TIP3   OH265650   6.651   6.128  13.309  0.4567  0.3719  0.2994
14720TIP3    H165651   6.732   6.148  13.356 -0.7401  1.6552  1.8897
14720TIP3    H265652   6.624   6.211  13.269  0.9010 -0.4621 -1.9043
14721TIP3   OH265653   5.115   3.018  13.508  0.4908 -0.2620  0.4474
14721TIP3    H165654   5.028   3.004  13.545  0.9054 -0.4797  1.3703
14721TIP3    H265655   5.164   2.939  13.530  1.2989  0.3920  1.0951
14722TIP3   OH265656   4.770   1.149  11.241 -0.0641 -0.0687  0.3955
14722TIP3    H165657   4.815   1.216  11.292 -1.4141  1.7079 -0.6336
14722TIP3    H265658   4.733   1.090  11.307  2.4743 -0.7988  1.2870
14723TIP3   OH265659   6.713   2.083  16.680 -0.2153  0.2789 -0.4402
14723TIP3    H165660   6.733   2.176  16.674  0.0844  0.7451  4.1461
14723TIP3    H265661   6.620   2.077  16.655 -0.4206  1.9327 -0.1796
14724TIP3   OH265662   5.236   1.919   5.505 -0.0868 -0.1117  0.1209
14724TIP3    H165663   5.227   1.852   5.438  1.4229 -0.1045 -0.1082
14724TIP3    H265664   5.154   1.915   5.554 -1.3746  0.1034 -1.8977
14725TIP3   OH265665   1.382   1.975  11.924 -0.8699  0.2519 -0.1578
14725TIP3    H165666   1.412   1.939  12.007  0.3042  1.9283  0.1800
14725TIP3    H265667   1.447   1.946  11.860 -0.6299  0.6884 -0.1144
14726TIP3   OH265668   1.354   5.084  13.444  0.3632  0.0900 -0.5558
14726TIP3    H165669   1.288   5.144  13.479 -0.5475 -0.0351 -1.9946
14726TIP3    H265670   1.315   5.050  13.364  1.8788 -0.5698 -1.0371
14727TIP3   OH265671   0.848   4.077   0.735  0.3339  0.0619 -0.1222
14727TIP3    H165672   0.939   4.106   0.731  1.1565 -2.2234  0.1266
14727TIP3    H265673   0.799   4.145   0.690  2.2003  1.2113 -0.5401
14728TIP3   OH265674   3.353   0.874   1.466 -0.6176 -0.8239  0.7157
14728TIP3    H165675   3.416   0.805   1.486  0.0593 -0.1948  0.7848
14728TIP3    H265676   3.347   0.874   1.370  0.1711 -0.2975  0.6560
14729TIP3   OH265677   3.158   3.348   3.315  0.4511 -0.0588  0.1389
14729TIP3    H165678   3.206   3.430   3.319  0.0983  0.3051 -1.9103
14729TIP3    H265679   3.067   3.372   3.335  0.7559 -0.4346  2.1584
14730TIP3   OH265680   5.132   4.443  11.397  0.9519  0.5775 -0.3325
14730TIP3    H165681   5.212   4.446  11.345 -1.2421  1.2772 -4.0526
14730TIP3    H265682   5.115   4.534  11.421  1.4272  0.3818  0.7929
14731TIP3   OH265683   3.405   5.568   1.964 -0.0363  0.0024 -0.1736
14731TIP3    H165684   3.426   5.542   1.874  0.3890  0.4617 -0.2075
14731TIP3    H265685   3.487   5.602   1.999  0.3363 -1.9928  1.0492
14732TIP3   OH265686   2.279   2.774   0.667  0.0074  0.1546  1.0347
14732TIP3    H165687   2.295   2.696   0.615  3.0269  0.2668  1.6319
14732TIP3    H265688   2.212   2.746   0.731 -1.9352 -0.6747 -1.2144
14733TIP3   OH265689   4.526   1.487  12.676 -0.0345 -0.0405  0.1383
14733TIP3    H165690   4.588   1.557  12.696 -0.2948  0.9368 -2.0908
14733TIP3    H265691   4.441   1.524  12.700 -0.0906  0.1138 -0.2806
14734TIP3   OH265692   6.579   1.314  11.576  0.2630  0.3954 -0.5150
14734TIP3    H165693   6.659   1.313  11.628 -0.1030  1.2134  0.0950
14734TIP3    H265694   6.579   1.230  11.530  0.3203 -0.6381  1.2550
14735TIP3   OH265695   4.604   0.146   0.659 -0.1611 -0.0051  0.2219
14735TIP3    H165696   4.670   0.150   0.590  0.7431  0.3543  1.0720
14735TIP3    H265697   4.527   0.188   0.622 -0.1079 -0.9287 -0.9906
14736TIP3   OH265698   4.991   0.889  13.681 -0.3265 -0.1543  0.6026
14736TIP3    H165699   5.013   0.912  13.772  0.1823  0.3586  0.3570
14736TIP3    H265700   4.907   0.932  13.665  0.0935  0.6335  0.4973
14737TIP3   OH265701   2.238   5.997  11.919 -0.0054  0.5675  0.5607
14737TIP3    H165702   2.325   5.965  11.941  0.0134  0.5219  0.4214
14737TIP3    H265703   2.184   5.919  11.911 -0.0577  0.5949  0.6367
14738TIP3   OH265704   1.007   6.364  13.733 -0.0947  0.5404  1.0434
14738TIP3    H165705   0.969   6.378  13.820 -0.0246 -0.1083  1.1850
14738TIP3    H265706   0.935   6.329  13.681 -0.1082  0.8292  0.8651
14739TIP3   OH265707   6.743   2.306  11.844  0.2255  0.1754  0.2526
14739TIP3    H165708   6.722   2.251  11.769  0.3944  0.9425 -0.3776
14739TIP3    H265709   6.662   2.354  11.862  0.4253  0.6056  0.0220
14740TIP3   OH265710   4.948   5.189   5.049 -0.3208 -0.0399  0.6695
14740TIP3    H165711   4.889   5.249   5.002  0.2745 -0.6298 -0.9049
14740TIP3    H265712   4.993   5.245   5.112 -0.8548  0.8882  0.2543
14741TIP3   OH265713   2.397   2.569   0.527 -0.5267 -0.2923 -0.0899
14741TIP3    H165714   2.433   2.621   0.456 -1.1876 -0.0281 -0.2400
14741TIP3    H265715   2.398   2.479   0.494 -0.6046 -0.2021 -0.3390
14742TIP3   OH265716   2.616   3.351  14.186 -0.0066 -0.4330  0.4708
14742TIP3    H165717   2.527   3.317  14.196 -0.4122  0.9493  2.0277
14742TIP3    H265718   2.627   3.412  14.259  2.0051 -0.0894 -0.0520
14743TIP3   OH265719   5.124   2.302   4.093 -0.1180  0.0339 -0.0643
14743TIP3    H165720   5.084   2.389   4.092  1.3363  0.8188 -3.3572
14743TIP3    H265721   5.053   2.243   4.069 -0.0278  1.1451 -3.6657
14744TIP3   OH265722   2.561   5.557   0.020 -0.3945  0.3992  0.1643
14744TIP3    H165723   2.529   5.503  -0.053 -0.2006 -0.6136  0.7993
14744TIP3    H265724   2.539   5.506   0.098  1.3599  0.4089  0.7065
14745TIP3   OH265725   6.094   4.849  11.698 -0.1515 -0.0633  0.4976
14745TIP3    H165726   6.079   4.942  11.681  1.0358  0.0250 -0.1859
14745TIP3    H265727   6.065   4.805  11.618 -1.2310 -0.3473  1.0318
14746TIP3   OH265728   5.004   6.208   4.441  0.2962  0.0781  0.3254
14746TIP3    H165729   5.069   6.159   4.491  1.0521  0.0666 -0.6384
14746TIP3    H265730   4.952   6.254   4.507  0.2103 -1.2093  1.2015
14747TIP3   OH265731   5.151   6.082  12.439  0.4384  0.1447 -0.6612
14747TIP3    H165732   5.107   6.097  12.523  0.2501 -3.4326  0.0631
14747TIP3    H265733   5.221   6.146  12.436 -1.6199  2.6358  0.5714
14748TIP3   OH265734   5.185   6.199   2.491 -0.0661 -0.0200 -0.1134
14748TIP3    H165735   5.161   6.243   2.572 -0.9708 -1.3329  0.3628
14748TIP3    H265736   5.104   6.200   2.439  0.2503 -0.0245 -0.6152
14749TIP3   OH265737   1.841   1.922  10.557 -0.3089 -0.4456 -0.4179
14749TIP3    H165738   1.885   1.844  10.524  0.8162 -0.3929  0.8584
14749TIP3    H265739   1.832   1.979  10.480  1.9434 -0.4412 -0.7435
14750TIP3   OH265740   2.461   5.381  11.262 -0.2565 -0.1716  0.5601
14750TIP3    H165741   2.554   5.361  11.259 -0.1547  0.2597  0.7887
14750TIP3    H265742   2.420   5.312  11.210  0.4965  1.4100 -2.3701
14751TIP3   OH265743   1.595   3.820   6.408 -0.3043 -0.0175 -0.0018
14751TIP3    H165744   1.628   3.860   6.489 -1.7862  0.5895  0.3290
14751TIP3    H265745   1.626   3.730   6.411  1.2003  0.4779  0.3361
14752TIP3   OH265746   3.203   0.813  16.756 -0.0423 -0.8917  0.1438
14752TIP3    H165747   3.136   0.748  16.734  1.2998 -2.8014  1.3857
14752TIP3    H265748   3.232   0.848  16.672 -1.0027 -1.6762 -0.5399
14753TIP3   OH265749   4.960   6.005  16.326 -0.3754 -0.1138 -0.1339
14753TIP3    H165750   4.956   5.935  16.261 -2.1472 -0.7869  0.6302
14753TIP3    H265751   4.869   6.019  16.351  0.3019 -0.9281  3.2725
14754TIP3   OH265752   4.473   4.184   3.550 -0.3319 -0.6540 -0.5538
14754TIP3    H165753   4.392   4.140   3.576 -0.0345 -2.2807 -2.1706
14754TIP3    H265754   4.451   4.227   3.467  0.2091 -0.2993 -0.5150
14755TIP3   OH265755   5.237   0.817  16.218  0.0316  0.1963 -0.3685
14755TIP3    H165756   5.310   0.775  16.171  0.6862 -0.7875  1.4545
14755TIP3    H265757   5.230   0.769  16.300  0.5079  3.3453  1.6681
14756TIP3   OH265758   6.147   3.958   2.653 -0.2699 -0.1043 -0.2588
14756TIP3    H165759   6.161   3.976   2.560  1.8516  0.7872  0.1765
14756TIP3    H265760   6.119   3.867   2.657 -2.8336  0.5030 -1.9130
14757TIP3   OH265761   2.620   0.154  12.108 -0.6803  0.3825 -0.1872
14757TIP3    H165762   2.542   0.099  12.097  0.3522 -0.8769 -1.7494
14757TIP3    H265763   2.647   0.138  12.198 -0.5317 -1.5915 -0.5254
14758TIP3   OH265764   3.644   5.770  13.343  0.5140  0.3362 -0.2076
14758TIP3    H165765   3.720   5.786  13.398 -0.4259  1.5706  0.7967
14758TIP3    H265766   3.667   5.809  13.258  0.8964  0.9937  0.1847
14759TIP3   OH265767   6.245   1.407   3.652  0.1254  0.4593  0.2566
14759TIP3    H165768   6.170   1.466   3.659  0.7612  1.3757 -0.3389
14759TIP3    H265769   6.308   1.455   3.598  0.2565 -1.2130 -1.1662
14760TIP3   OH265770   1.102   2.746   2.081  0.4405 -0.2253 -0.0215
14760TIP3    H165771   1.196   2.747   2.100  0.2750 -0.6142  0.8416
14760TIP3    H265772   1.069   2.669   2.126 -0.5658  0.7847  1.0335
14761TIP3   OH265773   3.249   0.680  13.164 -0.8565  0.0987  0.0944
14761TIP3    H165774   3.255   0.763  13.117  0.5797 -0.7526 -1.3262
14761TIP3    H265775   3.195   0.625  13.107  0.3128 -0.7224 -0.2472
14762TIP3   OH265776   1.458   1.208   0.602  0.0742 -0.0108  0.0432
14762TIP3    H165777   1.480   1.149   0.674  0.8234  0.4476  0.2021
14762TIP3    H265778   1.363   1.207   0.599  0.0413 -0.2602  0.8557
14763TIP3   OH265779   1.999   6.465  14.964  0.9430  0.3398 -0.3041
14763TIP3    H165780   1.949   6.471  15.046  1.8350  0.2023  0.2765
14763TIP3    H265781   1.986   6.549  14.921 -1.7477 -0.5195 -1.3880
14764TIP3   OH265782   3.787   4.630   4.481  0.3780 -0.2838  0.0920
14764TIP3    H165783   3.882   4.643   4.476  0.1376  1.5234 -0.3806
14764TIP3    H265784   3.767   4.575   4.405  0.8372  0.9547 -0.9738
14765TIP3   OH265785   0.601   6.721  13.549 -0.0850 -0.3978  0.3802
14765TIP3    H165786   0.625   6.629  13.535 -1.7906 -1.2444  2.5412
14765TIP3    H265787   0.537   6.740  13.480  1.1219 -0.4073 -0.7950
14766TIP3   OH265788   5.146   5.519  14.462 -0.3075 -0.7173  0.2647
14766TIP3    H165789   5.105   5.597  14.426  0.9484  0.4043  1.1651
14766TIP3    H265790   5.195   5.551  14.538  0.1939 -2.3966  0.6837
14767TIP3   OH265791   4.799   3.090  14.284  0.4490  0.0408  0.1836
14767TIP3    H165792   4.882   3.094  14.236  0.1078 -0.7940 -0.5218
14767TIP3    H265793   4.817   3.032  14.358  0.2778 -0.8637 -0.4660
14768TIP3   OH265794   0.882   0.517  14.581 -0.1509 -0.0380  0.3079
14768TIP3    H165795   0.816   0.576  14.547 -0.4353 -0.9432 -0.7720
14768TIP3    H265796   0.964   0.546  14.539 -0.3669 -0.6665 -0.5740
14769TIP3   OH265797   5.485   5.281  14.568  0.4847 -0.0384 -0.6921
14769TIP3    H165798   5.506   5.366  14.605  2.1542 -1.0623  0.8871
14769TIP3    H265799   5.561   5.257  14.516  1.2324 -1.6151  0.9808
14770TIP3   OH265800   6.056   2.681  14.136  0.0588 -0.3916 -0.8747
14770TIP3    H165801   6.047   2.726  14.220 -1.2491 -0.6291 -0.8591
14770TIP3    H265802   6.098   2.598  14.157 -1.1744 -0.8933 -0.2669
14771TIP3   OH265803   6.153   4.298   5.116 -0.5660  0.5748 -0.2725
14771TIP3    H165804   6.158   4.333   5.204 -0.8530 -0.3839  0.1458
14771TIP3    H265805   6.223   4.341   5.068  0.9067 -0.3726  0.9583
14772TIP3   OH265806   3.015   3.625  17.191  0.0605  0.3409  0.0986
14772TIP3    H165807   3.013   3.668  17.276  0.9030 -0.2379  0.4336
14772TIP3    H265808   3.069   3.547  17.206 -0.7173 -0.3624 -0.6891
14773TIP3   OH265809   2.923   3.907  14.381  0.1376  0.4766 -0.0461
14773TIP3    H165810   2.989   3.976  14.380 -0.7368  1.3512  0.4778
14773TIP3    H265811   2.856   3.939  14.442  0.4216 -1.5257  1.4018
14774TIP3   OH265812   1.229   1.314   0.015  0.0782 -0.0645 -0.2108
14774TIP3    H165813   1.234   1.389  -0.043 -0.7258 -0.2687 -0.5669
14774TIP3    H265814   1.271   1.243  -0.033 -0.5060 -0.2110 -0.5089
14775TIP3   OH265815   2.001   6.312   0.438 -0.1247 -0.4903 -0.1857
14775TIP3    H165816   2.078   6.345   0.391  0.3913 -3.1857 -1.4070
14775TIP3    H265817   2.029   6.229   0.475 -1.4229  0.1860  2.5519
14776TIP3   OH265818   2.418   4.683   1.139 -0.7386 -0.4000  0.7411
14776TIP3    H165819   2.398   4.697   1.046  0.4314 -2.4779  0.1083
14776TIP3    H265820   2.449   4.768   1.170 -2.3502  0.6827 -0.4007
14777TIP3   OH265821   1.960   6.489   3.375 -0.7099 -0.2506  0.4806
14777TIP3    H165822   1.923   6.413   3.420 -2.1193  0.6256  0.8606
14777TIP3    H265823   1.890   6.554   3.377  0.8180  1.4490  1.0803
14778TIP3   OH265824   1.907   0.718   5.858 -0.1204 -0.0175  0.1200
14778TIP3    H165825   1.902   0.627   5.827 -2.7647 -0.0722  0.4280
14778TIP3    H265826   1.926   0.710   5.951  3.6931  0.0022 -0.4898
14779TIP3   OH265827   0.198   2.083  15.928  0.0552  0.0128 -0.1970
14779TIP3    H165828   0.156   2.090  16.014  0.5308  1.7823 -0.0668
14779TIP3    H265829   0.256   2.008  15.936  0.0827  0.1459  1.0396
14780TIP3   OH265830   3.976   6.428  13.982  0.2140 -0.2057  0.2992
14780TIP3    H165831   4.007   6.383  14.060  0.7775  2.6970  1.9147
14780TIP3    H265832   4.054   6.471  13.947 -0.3903  0.0713 -0.7428
14781TIP3   OH265833   6.000   1.717   4.103  0.0115  0.5026  0.0249
14781TIP3    H165834   6.047   1.775   4.163  0.2036  2.8505 -2.2566
14781TIP3    H265835   6.065   1.692   4.038 -0.5121 -0.9669  0.0311
14782TIP3   OH265836   1.250   6.779  17.209 -0.6835 -0.6341 -0.4870
14782TIP3    H165837   1.189   6.812  17.275 -0.7031 -0.1350 -0.7497
14782TIP3    H265838   1.320   6.737  17.259 -1.3829 -1.4666 -0.1884
14783TIP3   OH265839   2.142   0.496   0.080 -0.3428  0.3902  0.6840
14783TIP3    H165840   2.117   0.585   0.057  0.4461  0.6070  0.6573
14783TIP3    H265841   2.115   0.487   0.172 -0.7450  0.5270  0.5824
14784TIP3   OH265842   2.960   1.652  14.568 -0.2398 -0.7437 -0.3112
14784TIP3    H165843   3.006   1.687  14.644 -1.8428 -2.1930  1.4215
14784TIP3    H265844   2.869   1.678  14.581 -0.4776 -0.5884 -2.0342
14785TIP3   OH265845   0.967   0.500   1.303  0.1985  0.4397 -0.1996
14785TIP3    H165846   0.888   0.477   1.351 -0.6995  0.5773 -1.5683
14785TIP3    H265847   0.948   0.478   1.212  1.3993  1.3232 -0.6972
14786TIP3   OH265848   4.951   4.391   3.708 -0.9904  0.1251 -0.0828
14786TIP3    H165849   4.967   4.483   3.727  1.4504 -0.2094 -0.1813
14786TIP3    H265850   4.859   4.377   3.732 -1.5775  2.6712 -0.5705
14787TIP3   OH265851   5.071   1.137   5.282 -0.3568  0.5411  0.4326
14787TIP3    H165852   5.063   1.220   5.329  0.4979  0.9919 -0.1858
14787TIP3    H265853   5.165   1.129   5.264 -0.6189  0.2709 -0.9547
14788TIP3   OH265854   6.703   4.142   0.159 -0.2945  0.4995 -0.1754
14788TIP3    H165855   6.752   4.221   0.135  2.0569 -0.4984  0.9792
14788TIP3    H265856   6.652   4.167   0.235 -0.6318  1.2540 -0.6409
14789TIP3   OH265857   1.711   4.040   0.982  0.0397  0.0514 -0.0324
14789TIP3    H165858   1.669   3.978   0.922 -0.2376 -0.0992  0.3117
14789TIP3    H265859   1.800   4.049   0.949 -0.0840 -0.0981 -0.4148
14790TIP3   OH265860   6.337   1.536   0.774  0.4377 -0.1738  0.2902
14790TIP3    H165861   6.287   1.534   0.856  0.5159  0.0767  0.3443
14790TIP3    H265862   6.385   1.454   0.773 -1.5634 -1.4207 -0.7605
14791TIP3   OH265863   3.159   0.233  13.227  0.2615  0.0623 -0.6524
14791TIP3    H165864   3.154   0.296  13.155 -0.6777  1.7623  0.8313
14791TIP3    H265865   3.093   0.167  13.207  1.3166 -0.5432 -2.2761
14792TIP3   OH265866   5.077   0.305   5.251  0.5900  0.7337 -0.7662
14792TIP3    H165867   5.070   0.271   5.161 -0.1123 -0.0623 -0.4206
14792TIP3    H265868   5.040   0.393   5.246 -1.4116 -0.0608 -0.8586
14793TIP3   OH265869   5.275   1.783  16.485  0.0594 -0.5790 -0.1539
14793TIP3    H165870   5.237   1.795  16.398 -0.1374  1.0042  0.1098
14793TIP3    H265871   5.348   1.844  16.488 -1.6101  1.5208  1.6911
14794TIP3   OH265872   6.008   4.719  13.136 -0.4441  0.1595  0.3576
14794TIP3    H165873   5.947   4.757  13.199  1.4592  1.4100  1.5610
14794TIP3    H265874   6.092   4.720  13.181  0.8244  0.2293 -1.8735
14795TIP3   OH265875   4.355   4.749   6.486  0.1593  0.4853 -0.3730
14795TIP3    H165876   4.417   4.690   6.528 -0.1061  0.6185  0.2133
14795TIP3    H265877   4.406   4.828   6.466  0.2549  0.4680 -0.1918
14796TIP3   OH265878   1.788   0.415   5.303  0.2061  0.1627 -0.9104
14796TIP3    H165879   1.777   0.494   5.357 -0.1588  0.1819 -1.0080
14796TIP3    H265880   1.701   0.401   5.264  0.5706  0.4206 -1.8584
14797TIP3   OH265881   1.738   6.546  13.332 -0.5129  0.3442 -0.1424
14797TIP3    H165882   1.809   6.487  13.309  0.8711  2.5027 -1.8154
14797TIP3    H265883   1.664   6.516  13.280 -0.0948 -0.4226 -0.3106
14798TIP3   OH265884   4.189   0.985   2.094  0.2657 -0.3074 -0.1945
14798TIP3    H165885   4.095   0.974   2.081  0.2560  0.0308 -0.4242
14798TIP3    H265886   4.211   0.922   2.163 -0.3941  0.6624  0.9337
14799TIP3   OH265887   4.086   1.643  16.994 -0.3571  0.6356  0.6536
14799TIP3    H165888   4.081   1.672  16.903 -0.2975  0.7808  0.6967
14799TIP3    H265889   4.130   1.558  16.990 -3.2691 -0.9583  0.2106
14800TIP3   OH265890   4.136   1.922  13.117  0.2695 -0.1701 -0.5703
14800TIP3    H165891   4.161   1.829  13.114 -0.8927 -0.5873  1.5216
14800TIP3    H265892   4.063   1.929  13.055  0.3607 -0.6493 -0.7361
14801TIP3   OH265893   5.325   1.282   3.858 -0.1891 -0.2967  0.0569
14801TIP3    H165894   5.405   1.239   3.886  0.7877  0.3525 -1.5970
14801TIP3    H265895   5.277   1.299   3.939  0.1966 -2.8365  0.9142
14802TIP3   OH265896   3.882   5.948   1.563  0.1926 -0.4193 -0.3600
14802TIP3    H165897   3.949   5.945   1.631 -0.0450 -0.5596 -0.1291
14802TIP3    H265898   3.928   5.927   1.482  0.5135 -0.0646 -0.2721
14803TIP3   OH265899   6.349   2.136  14.206 -0.0480  0.1959 -0.2147
14803TIP3    H165900   6.265   2.101  14.174 -1.3812  1.9259  1.1530
14803TIP3    H265901   6.401   2.150  14.127 -0.5561 -2.0470 -1.0054
14804TIP3   OH265902   6.248   4.798  12.462 -0.5977  0.3779  0.6564
14804TIP3    H165903   6.309   4.789  12.535 -2.2780  2.3221  2.4158
14804TIP3    H265904   6.169   4.753  12.492 -0.0408 -2.6493 -1.8263
14805TIP3   OH265905   1.523   4.330   3.593  0.0657  0.2504  0.3016
14805TIP3    H165906   1.447   4.273   3.605 -0.7018  1.3428  0.8390
14805TIP3    H265907   1.581   4.308   3.666 -0.5403  0.6284  0.9070
14806TIP3   OH265908   5.336   5.492   3.779  0.0012 -0.2539 -0.1110
14806TIP3    H165909   5.307   5.447   3.858  0.1987 -0.9728 -0.4419
14806TIP3    H265910   5.428   5.512   3.795  0.3455 -1.3730 -0.5790
14807TIP3   OH265911   1.080   3.387  11.246 -0.4380 -0.1685 -0.4801
14807TIP3    H165912   1.123   3.308  11.278 -1.7874 -0.9528 -0.5556
14807TIP3    H265913   1.152   3.449  11.231  0.6194 -1.3140 -0.2611
14808TIP3   OH265914   4.358   3.087  15.222  0.3304  0.1350 -0.6290
14808TIP3    H165915   4.302   3.093  15.299  0.5387  0.0164 -0.4695
14808TIP3    H265916   4.446   3.108  15.254  0.4051  0.1580 -0.8470
14809TIP3   OH265917   5.734   5.969   6.735 -0.0196  0.2732  0.3491
14809TIP3    H165918   5.681   6.028   6.682 -0.8792 -0.3733  0.4682
14809TIP3    H265919   5.758   5.898   6.675  0.6966  0.5401  0.3056
14810TIP3   OH265920   6.291   2.991  16.936 -0.1667 -0.2095  0.1620
14810TIP3    H165921   6.241   2.991  16.854 -0.5807  1.6461  0.3623
14810TIP3    H265922   6.371   3.039  16.915 -0.1841  0.1057  0.7962
14811TIP3   OH265923   4.950   4.221  17.161 -0.5459  0.1053 -0.1325
14811TIP3    H165924   5.013   4.187  17.224 -1.1889 -1.6055 -0.3392
14811TIP3    H265925   4.973   4.178  17.078 -0.8382  0.9031 -0.6396
14812TIP3   OH265926   4.145   1.993   4.098 -0.4301  0.3921 -0.0235
14812TIP3    H165927   4.142   1.997   4.003  0.0382  0.7571 -0.0294
14812TIP3    H265928   4.181   2.078   4.125 -0.9857  0.4707  0.5004
14813TIP3   OH265929   4.549   1.738  15.204 -0.0171  0.4631 -0.2398
14813TIP3    H165930   4.494   1.665  15.230 -1.8954  1.8074 -0.2683
14813TIP3    H265931   4.549   1.796  15.280  2.6544 -0.1474  0.3493
14814TIP3   OH265932   5.459   3.545  16.759  0.9377 -0.1657 -0.1417
14814TIP3    H165933   5.521   3.549  16.831  1.0138 -0.4499 -0.1907
14814TIP3    H265934   5.485   3.469  16.708 -0.6162 -1.4622  0.9021
14815TIP3   OH265935   3.334   0.888  14.837  0.4261  0.7229  0.6684
14815TIP3    H165936   3.303   0.798  14.823 -1.5881  1.3177  0.9406
14815TIP3    H265937   3.392   0.882  14.912  1.1216 -0.4903  0.0674
14816TIP3   OH265938   3.770   3.129   0.591  0.5769  0.5910  0.4797
14816TIP3    H165939   3.675   3.136   0.601  0.5642  0.8150  0.2253
14816TIP3    H265940   3.798   3.072   0.663  0.3354  1.0827  0.9635
14817TIP3   OH265941   2.152   0.269   5.306 -0.1682  0.4622  0.2825
14817TIP3    H165942   2.198   0.331   5.361  1.3101 -1.3074  1.1240
14817TIP3    H265943   2.220   0.213   5.269 -1.3769 -0.2196 -1.0515
14818TIP3   OH265944   5.123   3.363  15.164 -0.5030  0.4563  0.1149
14818TIP3    H165945   5.111   3.390  15.073  1.0137  1.2767  0.1208
14818TIP3    H265946   5.157   3.441  15.208  1.8423 -0.7440  0.6423
14819TIP3   OH265947   1.191   4.083   6.487 -0.0624  0.0181 -0.4874
14819TIP3    H165948   1.177   4.106   6.395  1.6659  0.5982 -0.6514
14819TIP3    H265949   1.183   4.167   6.534  2.1984  0.3416 -0.5611
14820TIP3   OH265950   3.340   6.304  16.208  0.2470  0.4052 -0.6548
14820TIP3    H165951   3.364   6.225  16.255 -0.3289  0.2106 -0.6692
14820TIP3    H265952   3.250   6.322  16.237  1.4118  2.8921  1.8342
14821TIP3   OH265953   2.884   0.574  13.598 -0.1049 -0.4737  0.6678
14821TIP3    H165954   2.868   0.588  13.504 -0.4768 -0.2615  0.7645
14821TIP3    H265955   2.811   0.520  13.627  0.5494 -1.4063  0.6184
14822TIP3   OH265956   4.890   2.531   0.661 -0.2045  0.4677  0.1980
14822TIP3    H165957   4.975   2.573   0.674 -0.0852  0.4358 -0.4299
14822TIP3    H265958   4.839   2.596   0.612  0.4980 -0.6662 -2.1865
14823TIP3   OH265959   3.159   1.474   1.815  0.4793 -0.0844  0.0369
14823TIP3    H165960   3.124   1.395   1.856 -1.6854  0.2151 -1.0909
14823TIP3    H265961   3.157   1.540   1.885  0.4282 -0.5155  0.4459
14824TIP3   OH265962   1.622   5.766  12.819  0.5069  0.4448 -0.3232
14824TIP3    H165963   1.653   5.684  12.781 -0.0154  0.9019 -1.8148
14824TIP3    H265964   1.531   5.747  12.844  0.2542  0.6600 -1.0422
14825TIP3   OH265965   1.816   5.979  15.295  0.2091  0.0691  0.2860
14825TIP3    H165966   1.766   5.957  15.216  0.9084  0.5912 -0.3172
14825TIP3    H265967   1.749   5.997  15.361 -0.3942  0.0923 -0.3186
14826TIP3   OH265968   0.091   1.696  15.901 -0.2374  0.6215  0.5096
14826TIP3    H165969   0.124   1.722  15.987  0.0033  0.2368  0.5369
14826TIP3    H265970   0.130   1.759  15.841  0.5807  0.1477  0.5394
14827TIP3   OH265971   6.656   5.036  11.562  0.3737 -0.5918 -0.3166
14827TIP3    H165972   6.677   5.110  11.505 -0.6083 -1.2421 -1.5855
14827TIP3    H265973   6.740   4.997  11.583  0.7524 -0.5769 -1.6933
14828TIP3   OH265974   5.718   5.977  14.387  0.1920 -0.2582 -0.4429
14828TIP3    H165975   5.774   5.908  14.422 -2.5726 -2.3586  0.1611
14828TIP3    H265976   5.734   5.975  14.293  1.7101 -0.1809 -0.2221
14829TIP3   OH265977   0.377   3.166   3.836 -0.6966  0.2638 -0.2939
14829TIP3    H165978   0.371   3.243   3.892 -1.7989  0.4870 -0.6889
14829TIP3    H265979   0.328   3.099   3.884 -0.0935 -0.0852 -0.1481
14830TIP3   OH265980   4.035   3.960   3.740 -0.3061  0.2610  0.1957
14830TIP3    H165981   4.014   4.022   3.670 -2.5749 -0.5541  0.0353
14830TIP3    H265982   3.959   3.902   3.743  0.2569 -0.4732  2.5563
14831TIP3   OH265983   1.557   6.417   5.302 -0.2134  0.1470 -0.3964
14831TIP3    H165984   1.633   6.401   5.358  0.0143 -3.2640 -1.4247
14831TIP3    H265985   1.482   6.402   5.359 -0.0763  0.6834 -0.0686
14832TIP3   OH265986   3.081   4.000   0.547  0.0056 -0.4130  0.0747
14832TIP3    H165987   3.146   3.954   0.494  1.2635  2.9183 -1.6117
14832TIP3    H265988   3.027   4.047   0.483 -0.6797  0.9824  1.6045
14833TIP3   OH265989   0.648   5.227  15.029  0.4682 -0.1839  0.1677
14833TIP3    H165990   0.555   5.213  15.046  0.4321 -2.4116 -1.3800
14833TIP3    H265991   0.651   5.265  14.941  1.0168  0.9264  0.6444
14834TIP3   OH265992   2.886   5.456   2.246 -0.1560  0.3383  0.0770
14834TIP3    H165993   2.929   5.378   2.212 -0.5622  0.4377 -0.6809
14834TIP3    H265994   2.942   5.484   2.319 -0.4848 -1.1560  0.9368
14835TIP3   OH265995   3.152   5.761   0.880  0.3221  0.5408  0.2601
14835TIP3    H165996   3.062   5.737   0.903  0.1375  0.6703 -0.3082
14835TIP3    H265997   3.143   5.815   0.802  0.7551  2.0555  1.1997
14836TIP3   OH265998   0.221   5.291   1.678  0.1433 -0.4663  0.3923
14836TIP3    H165999   0.177   5.209   1.703 -0.9475  0.3977  1.4435
14836TIP3    H266000   0.164   5.330   1.612  1.1935 -1.0103 -0.8902
14837TIP3   OH266001   1.424   1.583  15.251  0.1507 -0.3064 -0.1637
14837TIP3    H166002   1.393   1.628  15.330 -2.7431 -1.1418 -0.7283
14837TIP3    H266003   1.348   1.534  15.219  1.4457 -0.6551 -3.0384
14838TIP3   OH266004   4.339   4.460   0.763 -0.2589  0.4003  0.3856
14838TIP3    H166005   4.258   4.510   0.768 -1.3470 -1.2188 -0.1680
14838TIP3    H266006   4.360   4.439   0.854 -1.0909 -0.1164  0.4677
14839TIP3   OH266007   2.058   2.193   5.143 -0.1711  0.4227  0.9547
14839TIP3    H166008   2.098   2.115   5.104 -1.1535  1.0758 -1.6105
14839TIP3    H266009   2.066   2.180   5.237 -0.2819 -2.7762  0.6422
14840TIP3   OH266010   6.076   5.116   1.450  0.1694 -0.2991 -0.5417
14840TIP3    H166011   6.006   5.156   1.398  1.6130  0.6989 -1.8269
14840TIP3    H266012   6.060   5.022   1.443 -1.3683 -0.0807 -0.2952
14841TIP3   OH266013   6.454   3.506   4.683 -0.0876 -0.1365 -0.5512
14841TIP3    H166014   6.542   3.544   4.678  0.1999 -0.6742  0.0578
14841TIP3    H266015   6.428   3.519   4.775 -1.0050  0.7671 -0.9206
14842TIP3   OH266016   2.775   1.274   3.930  0.0612  0.0324 -0.0123
14842TIP3    H166017   2.693   1.242   3.968 -0.2972 -1.4775 -1.9073
14842TIP3    H266018   2.751   1.358   3.891 -0.3285  0.0942  0.3479
14843TIP3   OH266019   0.714   0.391  13.079  0.3592  0.5996  0.3123
14843TIP3    H166020   0.745   0.456  13.142  0.1964 -0.3018  1.3596
14843TIP3    H266021   0.622   0.379  13.101  0.2738  0.3442 -0.1761
14844TIP3   OH266022   4.691   4.359  14.113  0.2923 -0.1141  0.3097
14844TIP3    H166023   4.736   4.370  14.030 -0.7215 -0.5169 -0.3174
14844TIP3    H266024   4.712   4.269  14.141 -2.2431 -1.3567 -1.3753
14845TIP3   OH266025   6.658   2.068   1.896  0.2560  0.2866  0.5919
14845TIP3    H166026   6.657   2.140   1.834 -0.9440  0.7830  1.1613
14845TIP3    H266027   6.673   2.109   1.981 -0.5605 -0.1000  0.9358
14846TIP3   OH266028   1.736   1.292  15.497 -0.1300  0.0290  0.5684
14846TIP3    H166029   1.820   1.314  15.457 -0.3652 -1.5059 -0.8682
14846TIP3    H266030   1.679   1.365  15.474  0.4526  0.4538  0.4344
14847TIP3   OH266031   3.169   6.614  15.895  0.5903 -0.1894  0.3757
14847TIP3    H166032   3.084   6.578  15.873 -0.8995  2.6574  0.9310
14847TIP3    H266033   3.178   6.600  15.989  0.6569 -0.3554  0.3442
14848TIP3   OH266034   3.117   2.869   0.657  0.2854  0.9608  0.1570
14848TIP3    H166035   3.088   2.950   0.614  0.1967  1.2336  0.7242
14848TIP3    H266036   3.037   2.832   0.695  0.4834  1.1123  0.7283
14849TIP3   OH266037   1.096   4.964  14.748  0.6538 -0.4681 -0.2093
14849TIP3    H166038   1.061   4.909  14.678  0.1232  0.5166 -0.7270
14849TIP3    H266039   1.028   5.031  14.763  2.0376  1.1273 -0.8186
14850TIP3   OH266040   2.971   3.267   0.665  0.7936  0.3831 -0.3784
14850TIP3    H166041   3.020   3.200   0.713  2.1656 -0.3541 -2.6557
14850TIP3    H266042   2.906   3.299   0.728  1.4879 -1.5730  1.4486
14851TIP3   OH266043   0.407   0.054   2.302 -0.4196 -0.1174 -0.1285
14851TIP3    H166044   0.395   0.144   2.332 -0.2850 -0.1788  0.1177
14851TIP3    H266045   0.462   0.014   2.370 -1.1096 -0.6000  0.1620
14852TIP3   OH266046   2.143   4.530   1.668  0.6589 -0.0422  0.0103
14852TIP3    H166047   2.220   4.569   1.709  1.1268 -1.3180  0.3837
14852TIP3    H266048   2.100   4.603   1.624  1.5745  0.8626  0.5738
14853TIP3   OH266049   5.292   4.760   5.647 -0.2965 -0.6401 -0.2485
14853TIP3    H166050   5.342   4.774   5.727 -0.7056  0.5928 -0.1860
14853TIP3    H266051   5.359   4.743   5.580  0.1458 -0.1181  0.0482
14854TIP3   OH266052   5.688   6.346   4.099  0.0927 -0.4232  0.0689
14854TIP3    H166053   5.727   6.287   4.033  1.4420  2.4062 -1.8796
14854TIP3    H266054   5.747   6.340   4.174 -0.0172 -1.7866  0.0748
14855TIP3   OH266055   2.596   4.312   5.223 -0.1988  0.1443 -0.1371
14855TIP3    H166056   2.659   4.347   5.161 -1.0659  2.1601  0.0446
14855TIP3    H266057   2.630   4.224   5.244  1.6900  0.5589 -1.1735
14856TIP3   OH266058   5.477   0.143   2.904 -0.0121 -0.5071  0.4870
14856TIP3    H166059   5.449   0.056   2.875 -3.5159  0.1670  1.4095
14856TIP3    H266060   5.510   0.129   2.993 -0.0480 -0.9513  0.4356
14857TIP3   OH266061   5.659   3.402   2.211  0.1516 -0.3023 -0.2384
14857TIP3    H166062   5.673   3.389   2.305  0.6882  0.4014 -0.2114
14857TIP3    H266063   5.645   3.496   2.202  3.3413  0.1837 -1.2441
14858TIP3   OH266064   6.118   3.285   1.298 -0.2258  0.4249  0.0091
14858TIP3    H166065   6.155   3.198   1.281 -0.2864 -0.0683  2.2000
14858TIP3    H266066   6.031   3.282   1.258  0.5705  0.2682 -1.8082
14859TIP3   OH266067   5.856   0.508  16.449 -0.0077  0.0855 -0.5400
14859TIP3    H166068   5.772   0.530  16.489  1.2853  0.9298  1.8808
14859TIP3    H266069   5.851   0.413  16.435 -2.0629  0.3725 -2.3186
14860TIP3   OH266070   1.378   4.774   4.430 -0.1677  0.0196 -0.3055
14860TIP3    H166071   1.377   4.829   4.509  0.6498 -1.4615  0.7733
14860TIP3    H266072   1.427   4.696   4.456  1.4951  0.1553 -2.7516
14861TIP3   OH266073   6.066   6.811  11.796  0.5087 -0.1080 -0.5281
14861TIP3    H166074   5.984   6.763  11.803  0.5476 -0.1767 -0.5352
14861TIP3    H266075   6.065   6.847  11.708 -0.7860  2.2360  0.3727
14862TIP3   OH266076   1.353   1.303   0.929  0.0369  0.5734  0.0963
14862TIP3    H166077   1.322   1.341   1.011 -0.1717  2.2893 -0.7490
14862TIP3    H266078   1.446   1.283   0.946 -0.0220  0.8435  0.7634
14863TIP3   OH266079   1.947   2.494   0.443  0.3189 -0.1175 -0.0064
14863TIP3    H166080   2.020   2.432   0.433  0.8205  0.6005 -0.8869
14863TIP3    H266081   1.937   2.503   0.538 -0.2029 -2.0431  0.1741
14864TIP3   OH266082   3.800   4.463  17.000  0.3798  0.1410  0.6126
14864TIP3    H166083   3.870   4.409  16.964 -0.3539 -0.1355 -0.4265
14864TIP3    H266084   3.839   4.504  17.077  1.7970  0.2881 -0.1535
14865TIP3   OH266085   2.065   1.780  14.702  0.2192 -0.3776  0.0063
14865TIP3    H166086   2.033   1.869  14.697  1.0474  0.2601  3.3137
14865TIP3    H266087   2.147   1.781  14.652 -1.0990 -0.1074 -2.2825
14866TIP3   OH266088   4.129   3.433  17.047 -0.1569 -0.1346 -0.8097
14866TIP3    H166089   4.179   3.443  16.966 -0.0529 -1.3008 -0.8993
14866TIP3    H266090   4.191   3.460  17.116 -0.0984  0.4241 -1.0768
14867TIP3   OH266091   5.342   1.839  12.839  0.0838  0.1309 -0.6655
14867TIP3    H166092   5.351   1.826  12.934  1.5939 -0.9538 -0.9220
14867TIP3    H266093   5.363   1.932  12.826  2.6110 -0.3074 -0.1985
14868TIP3   OH266094   1.064   6.031   0.216  0.0506 -0.8024 -0.7133
14868TIP3    H166095   1.027   5.945   0.235  1.0839 -1.4360 -1.4933
14868TIP3    H266096   1.140   6.038   0.274  0.6999 -0.9371 -1.5492
14869TIP3   OH266097   2.105   3.955   0.153  0.2638  0.4962  0.4281
14869TIP3    H166098   2.185   3.905   0.136 -0.1218  0.4415 -1.3608
14869TIP3    H266099   2.039   3.889   0.173 -0.0548  0.2967 -1.1581
14870TIP3   OH266100   4.157   5.544  15.589 -0.5897 -0.3274  0.6250
14870TIP3    H166101   4.110   5.614  15.544 -1.0055 -1.8153 -1.3503
14870TIP3    H266102   4.115   5.538  15.675 -1.6494  0.7075  0.1975
14871TIP3   OH266103   4.990   3.670  12.566 -0.1079 -0.3639 -0.5684
14871TIP3    H166104   4.923   3.734  12.541 -0.0824 -0.4694 -0.9259
14871TIP3    H266105   5.073   3.712  12.543 -0.1176 -0.7725 -1.4325
14872TIP3   OH266106   0.059   4.371   0.100 -0.0369 -0.2627  0.3170
14872TIP3    H166107  -0.007   4.418   0.151  1.2265  0.8262  1.0039
14872TIP3    H266108   0.100   4.438   0.045 -1.1871 -1.3501 -2.0366
14873TIP3   OH266109   1.402   1.728  15.503 -0.7273 -0.2920 -0.4514
14873TIP3    H166110   1.318   1.768  15.525 -0.8355 -0.7413 -0.0382
14873TIP3    H266111   1.467   1.783  15.546 -0.9099 -0.8978  0.6207
14874TIP3   OH266112   4.617   1.443  14.537 -0.5038 -0.1244 -0.0841
14874TIP3    H166113   4.552   1.491  14.485  0.4892  1.2431 -0.1312
14874TIP3    H266114   4.668   1.512  14.580 -0.0841 -1.1971  1.2032
14875TIP3   OH266115   1.663   1.785   2.360 -0.0482  0.0770  0.5479
14875TIP3    H166116   1.682   1.850   2.293 -0.0438 -1.0417 -0.5776
14875TIP3    H266117   1.743   1.778   2.412  0.7049 -0.5472 -0.6540
14876TIP3   OH266118   4.923   6.328  17.006 -0.3258  0.3381  0.2181
14876TIP3    H166119   5.012   6.350  17.031 -0.5239  0.0009  1.2526
14876TIP3    H266120   4.888   6.409  16.967  0.6177  0.2876 -0.7608
14877TIP3   OH266121   6.077   6.240   0.897  0.1635  0.6904  0.1793
14877TIP3    H166122   6.011   6.307   0.912 -2.8514 -1.7305 -1.2290
14877TIP3    H266123   6.066   6.177   0.969 -1.0025 -1.0731 -1.4518
14878TIP3   OH266124   6.769   0.474   5.800 -0.1665  0.1667  0.3257
14878TIP3    H166125   6.702   0.543   5.800  0.6650  0.9987  0.2150
14878TIP3    H266126   6.821   0.492   5.879  0.7306  0.3431 -0.2927
14879TIP3   OH266127   1.120   3.824  17.071 -0.1425 -0.0687  0.0239
14879TIP3    H166128   1.100   3.860  17.157 -1.3599  0.0504 -0.2881
14879TIP3    H266129   1.103   3.897  17.010 -0.1925 -0.4240 -0.3938
14880TIP3   OH266130   5.024   5.491  17.258  0.4409  0.2087  0.5211
14880TIP3    H166131   4.944   5.483  17.205  1.2670 -1.5845 -0.5483
14880TIP3    H266132   5.058   5.578  17.237 -0.0371  0.1024 -0.7766
14881TIP3   OH266133   5.313   6.501   2.482 -0.3458  0.0560  0.3869
14881TIP3    H166134   5.226   6.523   2.447 -1.2421 -0.3195  2.2529
14881TIP3    H266135   5.369   6.572   2.451 -1.3244  0.3431 -0.8102
14882TIP3   OH266136   1.549   4.604  13.751  0.6828 -0.5840 -0.0764
14882TIP3    H166137   1.487   4.608  13.679  0.9407 -0.3078 -0.2896
14882TIP3    H266138   1.532   4.684  13.802 -0.1623 -1.2630  0.7332
14883TIP3   OH266139   5.980   4.406  13.879  0.4829 -0.0041 -0.4544
14883TIP3    H166140   5.978   4.361  13.795  1.7625 -1.0826  0.0406
14883TIP3    H266141   6.059   4.373  13.921  1.2545  2.4136  0.1499
14884TIP3   OH266142   2.324   0.041   5.846  0.1112 -0.2035 -0.1662
14884TIP3    H166143   2.405  -0.007   5.830  0.4290  0.0465  0.6577
14884TIP3    H266144   2.350   0.118   5.896 -0.4523  0.6428 -1.1490
14885TIP3   OH266145   3.716   4.589  10.623  0.9768  0.0535 -0.2442
14885TIP3    H166146   3.693   4.569  10.533 -0.8316  1.0826 -0.0692
14885TIP3    H266147   3.671   4.672  10.641  1.3920 -0.0756  1.5626
14886TIP3   OH266148   0.236   3.418  12.908 -0.5818 -0.5902 -0.1772
14886TIP3    H166149   0.243   3.513  12.909 -0.7174 -0.5423 -1.6169
14886TIP3    H266150   0.227   3.393  13.000  5.4791  0.2804  1.0345
14887TIP3   OH266151   0.874   2.489   4.785  0.0109  0.0703  0.3354
14887TIP3    H166152   0.916   2.421   4.837 -0.8636 -0.1850  0.7386
14887TIP3    H266153   0.883   2.569   4.838 -2.1796 -0.4642  1.6836
14888TIP3   OH266154   5.414   1.969   3.447 -0.0799 -0.3174 -0.3474
14888TIP3    H166155   5.451   2.018   3.374 -0.4317 -0.0839 -0.3688
14888TIP3    H266156   5.441   1.878   3.431  0.9201 -0.0791 -0.0891
14889TIP3   OH266157   1.353   2.361   0.386 -0.7400 -0.1982 -0.3699
14889TIP3    H166158   1.431   2.394   0.432 -1.0977  0.2592 -0.0919
14889TIP3    H266159   1.367   2.385   0.294 -0.3906 -0.4235 -0.3772
14890TIP3   OH266160   4.388   5.990  15.095  0.9622  0.8117 -0.3535
14890TIP3    H166161   4.298   5.960  15.087  0.3666  1.4443  2.5951
14890TIP3    H266162   4.442   5.913  15.077 -0.2517 -0.0682 -0.3033
14891TIP3   OH266163   2.637   1.636   3.587 -0.3118 -0.4407  0.6970
14891TIP3    H166164   2.558   1.676   3.551  0.0394 -0.9580 -0.7095
14891TIP3    H266165   2.618   1.542   3.589  0.5880 -0.6708 -0.5604
14892TIP3   OH266166   5.261   3.328  13.839 -0.2831 -0.0335 -0.7842
14892TIP3    H166167   5.292   3.417  13.855 -0.9344  0.1159 -0.3028
14892TIP3    H266168   5.340   3.276  13.833  0.0559  0.1698  1.4069
14893TIP3   OH266169   3.189   1.564  15.058 -0.2310 -0.2217  0.4722
14893TIP3    H166170   3.265   1.508  15.043 -1.0048 -1.2355  0.1879
14893TIP3    H266171   3.225   1.653  15.064  0.7610 -0.3928 -1.7870
14894TIP3   OH266172   3.461   1.378  13.672 -0.0556  0.2086  0.7435
14894TIP3    H166173   3.453   1.283  13.667  1.5690  0.0639  0.1633
14894TIP3    H266174   3.518   1.401  13.599 -0.6578  1.6715  0.6985
14895TIP3   OH266175   0.480   4.189  13.351  0.8325 -0.1421 -0.0302
14895TIP3    H166176   0.439   4.117  13.303  1.5331 -1.2040  0.9032
14895TIP3    H266177   0.491   4.258  13.285  0.0124 -0.8246 -0.9209
14896TIP3   OH266178   0.318   6.626  16.007  0.1797 -1.0018 -0.2316
14896TIP3    H166179   0.399   6.673  15.989 -0.3897  0.1005  0.0259
14896TIP3    H266180   0.314   6.558  15.939 -0.0163  0.6103 -1.8999
14897TIP3   OH266181   4.671   3.822   1.760  0.0669  0.1401 -0.2207
14897TIP3    H166182   4.735   3.893   1.768 -0.2991  0.3327  1.2001
14897TIP3    H266183   4.694   3.779   1.677  2.2829 -0.0494  0.4225
14898TIP3   OH266184   2.851   3.164   6.585  0.2751 -0.2584 -0.3113
14898TIP3    H166185   2.870   3.254   6.611 -0.5752  0.0029 -0.5796
14898TIP3    H266186   2.773   3.140   6.635 -0.3302 -0.3615 -1.2910
14899TIP3   OH266187   4.519   2.895   0.459  0.2222  0.6510 -0.3464
14899TIP3    H166188   4.598   2.923   0.412  1.2843 -0.9851  0.3904
14899TIP3    H266189   4.447   2.931   0.408  1.4222  1.7574 -1.3270
14900TIP3   OH266190   0.077   2.835  16.666  0.3566 -0.3530  0.3590
14900TIP3    H166191   0.136   2.835  16.591  0.7311 -1.9220  0.6290
14900TIP3    H266192   0.018   2.909  16.650  1.0020 -0.1055 -1.0062
14901TIP3   OH266193   1.270   1.809   1.690 -0.4363  0.0770  0.5507
14901TIP3    H166194   1.223   1.889   1.711 -1.5345  0.1921 -1.9723
14901TIP3    H266195   1.205   1.740   1.696  0.1553 -0.4339  1.2848
14902TIP3   OH266196   2.866   5.195   4.454  0.6139 -0.3768 -0.0209
14902TIP3    H166197   2.813   5.117   4.467 -1.5934  1.1729  0.8356
14902TIP3    H266198   2.952   5.172   4.490 -0.5470 -1.7532  2.0646
14903TIP3   OH266199   5.706   5.106   4.293 -0.2325 -1.0479  0.1216
14903TIP3    H166200   5.719   5.024   4.339 -1.1639  1.1093  4.8741
14903TIP3    H266201   5.764   5.168   4.337 -3.1018  1.8071  0.3065
14904TIP3   OH266202   2.429   0.573   4.731  0.2625  0.4479 -0.5736
14904TIP3    H166203   2.397   0.630   4.661 -0.1561 -0.6098 -1.2733
14904TIP3    H266204   2.517   0.548   4.703 -0.5058 -1.3113 -1.6229
14905TIP3   OH266205   1.384   5.645  14.887  0.1725 -0.0095 -0.3554
14905TIP3    H166206   1.332   5.726  14.886  0.8830  0.4938  1.0378
14905TIP3    H266207   1.380   5.615  14.978  2.4172  0.1199 -0.1632
14906TIP3   OH266208   3.738   0.968  16.669 -0.5049 -0.8006  0.1841
14906TIP3    H166209   3.666   0.990  16.609  0.0656  2.0855  0.3911
14906TIP3    H266210   3.695   0.937  16.748 -1.4099 -1.1798 -0.4396
14907TIP3   OH266211   6.258   5.790  11.328 -0.0202  0.1352 -0.2610
14907TIP3    H166212   6.335   5.824  11.374 -0.5119 -0.8826  1.4458
14907TIP3    H266213   6.292   5.714  11.280 -0.3215 -2.2538  2.9293
14908TIP3   OH266214   3.725   6.737   4.193 -0.5998 -0.3237 -0.3785
14908TIP3    H166215   3.805   6.706   4.151 -1.1109 -1.7500 -0.3483
14908TIP3    H266216   3.750   6.752   4.284 -0.6516 -2.0410 -0.0529
14909TIP3   OH266217   2.245   4.273  13.966 -0.0224 -0.0340  0.2769
14909TIP3    H166218   2.322   4.247  13.915 -0.5362 -0.4951 -0.2893
14909TIP3    H266219   2.267   4.358  14.003 -0.4741  1.5095 -2.6554
14910TIP3   OH266220   1.533   1.922   0.500 -0.1531 -0.4788 -0.3727
14910TIP3    H166221   1.530   1.969   0.416  1.3855 -1.0965 -0.7956
14910TIP3    H266222   1.461   1.960   0.550 -0.2116  0.9164 -1.4388
14911TIP3   OH266223   3.268   5.810   5.535  0.8869  0.2528 -0.8555
14911TIP3    H166224   3.248   5.903   5.543  0.6024  0.0052  3.2366
14911TIP3    H266225   3.359   5.807   5.506  1.5265  1.9187  0.7964
14912TIP3   OH266226   3.874   1.995  16.796 -0.6706  0.5735 -0.0512
14912TIP3    H166227   3.962   1.964  16.778  0.3438  4.0524 -2.0279
14912TIP3    H266228   3.858   1.971  16.887  2.1775 -0.4156  0.2892
14913TIP3   OH266229   6.473   6.005  10.844 -0.8938 -0.3044  0.5044
14913TIP3    H166230   6.569   6.011  10.846 -0.9758  1.4403  0.6053
14913TIP3    H266231   6.456   5.920  10.804  0.7342  0.4394 -2.0456
14914TIP3   OH266232   5.633   6.590   0.938  0.1426 -0.3403  0.5998
14914TIP3    H166233   5.553   6.613   0.985  0.2113 -0.5502  0.8169
14914TIP3    H266234   5.691   6.551   1.004  0.6354  0.3035  0.5618
14915TIP3   OH266235   2.877   4.360  11.368 -0.1005 -0.2017 -0.2766
14915TIP3    H166236   2.960   4.408  11.360 -0.8059  1.1555  0.2704
14915TIP3    H266237   2.833   4.373  11.284 -0.9053  1.3267  0.3584
14916TIP3   OH266238   4.113   1.351   3.741  0.0460 -0.0547 -0.0746
14916TIP3    H166239   4.109   1.439   3.702 -1.9574  0.5947  1.4088
14916TIP3    H266240   4.025   1.315   3.726  0.8123 -1.7938 -0.5614
14917TIP3   OH266241   4.657   4.724  16.902 -0.3587 -0.6385  0.3810
14917TIP3    H166242   4.590   4.658  16.921 -0.4530 -1.0230 -1.1878
14917TIP3    H266243   4.664   4.725  16.807  3.8245 -2.6075  0.4423
14918TIP3   OH266244   1.842   5.413   0.746  0.7475 -0.2600  0.3081
14918TIP3    H166245   1.798   5.393   0.664 -2.4156  1.8688  1.3193
14918TIP3    H266246   1.915   5.470   0.721  1.2981 -1.5384 -1.1645
14919TIP3   OH266247   6.677   2.908   2.482 -0.1142  0.2375 -0.2453
14919TIP3    H166248   6.684   2.849   2.558  0.3039  0.8014  0.1589
14919TIP3    H266249   6.701   2.994   2.516  0.7416  0.3808 -1.1650
14920TIP3   OH266250   0.295   0.471  15.788  0.4049 -0.3626 -0.4319
14920TIP3    H166251   0.279   0.377  15.784  1.0036 -0.4742 -0.2569
14920TIP3    H266252   0.259   0.498  15.872  2.6554 -0.9220  0.7663
14921TIP3   OH266253   5.767   6.655   0.694 -0.2066 -0.2093  0.4252
14921TIP3    H166254   5.800   6.742   0.670  0.6337 -0.4697  0.6251
14921TIP3    H266255   5.745   6.663   0.787 -1.2565  0.1199  0.1677
14922TIP3   OH266256   5.800   3.917   4.675 -0.4629 -0.0302  0.3877
14922TIP3    H166257   5.723   3.944   4.626 -1.6771  1.3252  2.8673
14922TIP3    H266258   5.836   3.843   4.625 -2.6076  0.1087 -1.5013
14923TIP3   OH266259   0.075   5.643  11.134  0.1408  0.3346  0.3228
14923TIP3    H166260   0.109   5.666  11.048  1.0199 -1.0862  0.2486
14923TIP3    H266261   0.072   5.547  11.134 -0.0968  0.3116  1.7720
14924TIP3   OH266262   0.189   4.930   4.770 -0.0715  0.4612 -0.5358
14924TIP3    H166263   0.127   4.932   4.843  0.7572  0.6388  0.1841
14924TIP3    H266264   0.193   5.020   4.739 -0.1953  0.4450 -0.5973
14925TIP3   OH266265   4.030   2.419   2.877 -0.1203 -0.0789  0.2182
14925TIP3    H166266   3.962   2.465   2.829 -0.0377 -1.0424 -0.8640
14925TIP3    H266267   4.012   2.326   2.862 -0.4926 -0.4702  2.6044
14926TIP3   OH266268   0.888   3.006  11.003 -0.2876  0.0099  0.0080
14926TIP3    H166269   0.930   2.930  10.964  3.4470  1.1524  1.4164
14926TIP3    H266270   0.908   3.078  10.944  2.1455  1.0361  1.8959
14927TIP3   OH266271   0.134   1.721  12.673 -0.0464  0.4288  0.2896
14927TIP3    H166272   0.050   1.743  12.715  1.7582  0.2860  4.4339
14927TIP3    H266273   0.126   1.628  12.651 -0.8067  0.2802  1.1300
14928TIP3   OH266274   0.926   3.304   1.838 -0.1648  0.5055 -0.5934
14928TIP3    H166275   0.850   3.298   1.896 -0.3673 -1.8121 -1.0213
14928TIP3    H266276   0.900   3.369   1.772 -1.0689  1.0206  0.2304
14929TIP3   OH266277   1.189   2.017   5.865  0.0918  0.4980 -0.2599
14929TIP3    H166278   1.133   1.980   5.933 -0.5583 -1.1095 -1.6003
14929TIP3    H266279   1.138   2.089   5.828 -0.8131 -0.4541 -0.9382
14930TIP3   OH266280   2.875   1.091  11.757  0.1494 -0.0419 -0.5041
14930TIP3    H166281   2.955   1.042  11.743 -0.6134 -0.9118 -2.0068
14930TIP3    H266282   2.855   1.079  11.850  1.1244 -0.7660 -0.3775
14931TIP3   OH266283   1.609   1.707  17.049 -1.1450 -0.4207  0.5048
14931TIP3    H166284   1.535   1.748  17.004 -1.4387 -0.8861  0.5491
14931TIP3    H266285   1.569   1.646  17.110 -0.9254  2.3788  3.7570
14932TIP3   OH266286   2.635   2.663  12.067 -0.1629  0.3400  0.6836
14932TIP3    H166287   2.718   2.656  12.113 -0.6535  1.4146  1.7721
14932TIP3    H266288   2.629   2.755  12.042 -1.2018  0.3665  0.9854
14933TIP3   OH266289   4.417   1.548  11.780  0.6631 -0.3382 -0.1552
14933TIP3    H166290   4.349   1.492  11.742  0.2374  0.5629 -0.7722
14933TIP3    H266291   4.462   1.492  11.842 -0.6096 -0.9920  0.2259
14934TIP3   OH266292   4.287   2.018   2.348 -0.1358  0.4575  0.1421
14934TIP3    H166293   4.275   2.087   2.283 -0.9196  0.4463  0.2672
14934TIP3    H266294   4.220   1.954   2.327  1.6110 -1.0914 -1.0082
14935TIP3   OH266295   6.174   5.318  15.677  0.0651 -0.5465  0.0740
14935TIP3    H166296   6.128   5.234  15.683  1.0310 -1.0000  3.6948
14935TIP3    H266297   6.228   5.311  15.599 -1.8983 -2.1618 -1.2323
14936TIP3   OH266298   0.102   0.684   5.960 -0.2586  0.5775 -0.0146
14936TIP3    H166299   0.040   0.677   6.033 -0.6276  0.6641 -0.3208
14936TIP3    H266300   0.144   0.769   5.973  0.5508  0.0763  0.7826
14937TIP3   OH266301   2.315   4.817   1.592 -0.7725  0.0350  0.1834
14937TIP3    H166302   2.297   4.770   1.510 -0.6332 -0.4298  0.4129
14937TIP3    H266303   2.234   4.863   1.612 -1.5234 -1.4924  0.8498
14938TIP3   OH266304   4.134   0.625   5.445 -0.0008 -0.3712  0.1808
14938TIP3    H166305   4.099   0.602   5.359 -0.4040  0.6575  0.0573
14938TIP3    H266306   4.130   0.720   5.448  1.8312 -0.2655  0.5768
14939TIP3   OH266307   3.487   1.142   3.528 -0.3075 -0.4801  0.2223
14939TIP3    H166308   3.429   1.075   3.491  0.8734 -1.2785 -0.2210
14939TIP3    H266309   3.427   1.213   3.553 -1.3914 -0.8846 -1.0662
14940TIP3   OH266310   5.856   2.460   5.040 -0.2977 -0.4072  0.4494
14940TIP3    H166311   5.895   2.478   4.955 -1.5366 -2.2637 -0.5675
14940TIP3    H266312   5.817   2.544   5.066  0.1911  0.2186 -0.7580
14941TIP3   OH266313   0.789   2.985   0.021 -0.3276 -0.4881  0.5569
14941TIP3    H166314   0.792   3.065   0.074 -0.1576 -0.3286  0.3085
14941TIP3    H266315   0.751   2.919   0.079 -0.0769 -0.3332  0.9009
14942TIP3   OH266316   2.684   2.057   2.855 -0.3333 -0.1156 -0.1274
14942TIP3    H166317   2.655   1.976   2.897 -1.4971  0.4306  0.1613
14942TIP3    H266318   2.634   2.060   2.773 -0.1377  0.2074 -0.2381
14943TIP3   OH266319   1.864   0.409  13.479  0.0288  0.0523 -0.2635
14943TIP3    H166320   1.881   0.489  13.430 -1.5210  0.2780 -0.4756
14943TIP3    H266321   1.859   0.437  13.570  1.0653 -0.0740 -0.1567
14944TIP3   OH266322   4.223   5.006   3.380  0.8265 -0.2180  0.2400
14944TIP3    H166323   4.145   4.996   3.327  0.5434 -0.1126  0.6326
14944TIP3    H266324   4.295   5.012   3.317  0.6538 -1.4591 -0.0956
14945TIP3   OH266325   0.475   4.523   0.847  0.6963 -0.5983  0.4023
14945TIP3    H166326   0.557   4.544   0.803  1.4185 -0.5581  1.7097
14945TIP3    H266327   0.478   4.573   0.928 -1.6804  1.2340 -0.5109
14946TIP3   OH266328   6.496   4.879  16.123 -0.0800 -0.0708  0.1958
14946TIP3    H166329   6.577   4.868  16.172 -0.1369  1.7323  0.7534
14946TIP3    H266330   6.517   4.848  16.035  0.3857 -2.1773  0.9967
14947TIP3   OH266331   3.774   1.942  17.040 -0.1464  0.1581 -0.1739
14947TIP3    H166332   3.682   1.946  17.016 -0.2324  1.9749  0.3322
14947TIP3    H266333   3.788   1.851  17.065 -1.3035 -0.5903 -2.0721
14948TIP3   OH266334   4.986   1.172  15.786 -0.2763  0.5923  0.3709
14948TIP3    H166335   4.965   1.088  15.744  0.3413  0.6662 -0.0980
14948TIP3    H266336   4.985   1.152  15.880  2.0146 -0.5118  0.2314
14949TIP3   OH266337   6.312   0.566  16.047  0.2066 -0.1713  0.2759
14949TIP3    H166338   6.276   0.639  16.098  0.8395  0.9455 -0.8288
14949TIP3    H266339   6.311   0.492  16.108 -0.7050  0.6758  1.3428
14950TIP3   OH266340   5.607   6.044  15.082 -0.2399  0.1306 -0.1876
14950TIP3    H166341   5.647   6.093  15.154  2.5076 -2.6882  0.4088
14950TIP3    H266342   5.514   6.037  15.107  0.2402  0.9000  2.0885
14951TIP3   OH266343   5.492   3.743  16.301 -0.1655 -0.4159  0.2054
14951TIP3    H166344   5.514   3.801  16.229 -0.8867 -1.2996 -0.7535
14951TIP3    H266345   5.572   3.738  16.354  0.2785  0.4546 -0.3707
14952TIP3   OH266346   6.532   2.940   2.797 -0.0663  0.5540  0.7466
14952TIP3    H166347   6.550   3.021   2.749  0.7338 -1.4007 -2.5855
14952TIP3    H266348   6.617   2.898   2.807 -0.5019 -0.0411  2.1773
14953TIP3   OH266349   5.984   2.699  15.372 -0.0829 -0.2820  0.1798
14953TIP3    H166350   5.967   2.785  15.410 -0.5574  0.4453 -1.5591
14953TIP3    H266351   5.919   2.691  15.302  0.4899 -1.6944 -0.2179
14954TIP3   OH266352   0.699   3.029   4.279  0.6476  0.6649 -0.5830
14954TIP3    H166353   0.698   3.030   4.374 -0.7215 -0.1468 -0.5630
14954TIP3    H266354   0.771   3.088   4.255  2.2088 -0.5123  0.9540
14955TIP3   OH266355   2.261   3.791  16.745  0.7151  0.0293  0.3723
14955TIP3    H166356   2.266   3.708  16.792  0.9233 -1.1946 -1.7185
14955TIP3    H266357   2.170   3.818  16.753  1.1622  1.1288  3.4201
14956TIP3   OH266358   0.678   6.238   2.699  0.7186 -0.0853 -0.0248
14956TIP3    H166359   0.733   6.163   2.721 -1.2111 -1.9490 -1.1024
14956TIP3    H266360   0.679   6.241   2.603 -2.0012 -1.0696 -0.1683
14957TIP3   OH266361   1.760   6.697  16.298  0.0803  0.2049  0.2534
14957TIP3    H166362   1.721   6.619  16.257  0.0362  0.0046  0.6708
14957TIP3    H266363   1.688   6.735  16.349  0.3491 -0.0007  0.7893
14958TIP3   OH266364   4.225   1.609   4.584  0.1492  0.1805  0.0225
14958TIP3    H166365   4.143   1.560   4.589 -0.3041  0.9824  0.6994
14958TIP3    H266366   4.251   1.603   4.492 -1.4690  1.1857 -0.5506
14959TIP3   OH266367   0.588   0.766  13.723 -0.2003 -0.5106 -0.3967
14959TIP3    H166368   0.618   0.750  13.633  1.5094 -0.8182  0.1905
14959TIP3    H266369   0.648   0.832  13.757 -0.8946 -0.3182  0.4987
14960TIP3   OH266370   4.142   3.312  15.896 -0.4162 -0.3454  0.1756
14960TIP3    H166371   4.115   3.402  15.918 -0.0714 -0.1302 -0.2592
14960TIP3    H266372   4.184   3.321  15.810 -1.5578 -1.1263 -0.4969
14961TIP3   OH266373   2.742   3.631  13.990  0.1861  0.2141 -0.7712
14961TIP3    H166374   2.663   3.662  13.946 -0.1957 -1.7863 -1.6267
14961TIP3    H266375   2.735   3.663  14.079 -0.0139  2.7185 -1.6230
14962TIP3   OH266376   4.629   4.293   0.730  0.1055 -0.1161 -0.5110
14962TIP3    H166377   4.584   4.246   0.660 -1.2591 -0.6917  0.7017
14962TIP3    H266378   4.568   4.291   0.804  1.5069  0.4386  0.7206
14963TIP3   OH266379   2.467   2.275   4.286  0.1953  0.1990  0.0824
14963TIP3    H166380   2.408   2.349   4.269 -0.4291 -0.4013 -0.3964
14963TIP3    H266381   2.495   2.287   4.377  0.2555  1.1319 -0.0471
14964TIP3   OH266382   5.564   1.735  14.470 -0.2405  0.0525 -0.1776
14964TIP3    H166383   5.620   1.709  14.398  3.1714  2.1576  1.4437
14964TIP3    H266384   5.577   1.667  14.537 -1.2126 -0.4448 -0.4697
14965TIP3   OH266385   3.035   4.673  11.839  0.6135 -0.1161  0.5339
14965TIP3    H166386   3.129   4.689  11.847  0.5962  0.0207  0.4699
14965TIP3    H266387   3.015   4.690  11.747  0.4709  0.1463  0.6133
14966TIP3   OH266388   6.486   5.309  13.531  0.3435  0.3615 -0.4305
14966TIP3    H166389   6.407   5.335  13.577 -0.5760  0.4857 -1.9836
14966TIP3    H266390   6.482   5.214  13.527 -0.5672  0.4230 -1.8206
14967TIP3   OH266391   1.695   4.905   2.448 -0.5370  0.5182 -0.2750
14967TIP3    H166392   1.765   4.873   2.504 -1.2013 -2.6665 -1.0747
14967TIP3    H266393   1.708   5.000   2.446  1.1794  0.5114  2.9315
14968TIP3   OH266394   4.436   4.328  16.011  0.2470 -0.2170  0.1179
14968TIP3    H166395   4.384   4.330  16.091 -1.9467 -2.0668 -1.1489
14968TIP3    H266396   4.413   4.410  15.966  1.0891  0.5778  1.0833
14969TIP3   OH266397   4.222   5.506   4.292 -0.0183  0.5721  0.3974
14969TIP3    H166398   4.269   5.565   4.351 -0.9049  0.3244  1.3839
14969TIP3    H266399   4.168   5.452   4.350 -1.5313  0.8673 -0.6725
14970TIP3   OH266400   6.475   5.460   1.762  0.0846  0.1639 -0.5291
14970TIP3    H166401   6.455   5.414   1.844 -2.9057  0.2392 -1.1102
14970TIP3    H266402   6.570   5.449   1.751  0.0918 -2.6610  1.2566
14971TIP3   OH266403   5.242   3.249   5.642 -0.1352 -0.7245  0.2076
14971TIP3    H166404   5.314   3.239   5.580  0.0383 -0.9791  0.4444
14971TIP3    H266405   5.284   3.282   5.722 -0.5558  0.9511 -0.2344
14972TIP3   OH266406   4.318   1.040  12.446  0.5294  0.1040  0.0806
14972TIP3    H166407   4.351   0.958  12.409 -0.1096 -0.1075 -0.0424
14972TIP3    H266408   4.394   1.079  12.489  1.6445  0.9837 -2.4701
14973TIP3   OH266409   4.354   1.199   0.432  0.4394  0.2312 -0.3541
14973TIP3    H166410   4.309   1.233   0.509  2.7871  0.4304  1.0204
14973TIP3    H266411   4.339   1.266   0.365  0.7126  1.4908  0.7848
14974TIP3   OH266412   5.464   1.912  10.412 -0.4274 -0.1625 -0.3056
14974TIP3    H166413   5.414   1.934  10.491 -0.3912  2.2543 -0.8729
14974TIP3    H266414   5.438   1.979  10.348 -0.3001 -1.9093 -2.3210
14975TIP3   OH266415   4.770   3.647   5.736 -0.1118  0.3667  0.2874
14975TIP3    H166416   4.691   3.625   5.785 -0.6184  1.9598  0.2688
14975TIP3    H266417   4.755   3.613   5.648 -1.0300  1.1154  0.1425
14976TIP3   OH266418   1.307   0.107  16.426 -0.1399  0.1551  0.0747
14976TIP3    H166419   1.320   0.192  16.385 -0.7559  0.9711  1.5101
14976TIP3    H266420   1.276   0.127  16.514  0.3361 -1.5487  0.6689
14977TIP3   OH266421   6.779   2.138   0.131 -0.3725 -0.1839 -0.0986
14977TIP3    H166422   6.795   2.227   0.101  1.2329 -0.1957  0.6466
14977TIP3    H266423   6.721   2.100   0.064 -0.0004  0.9914 -1.1208
14978TIP3   OH266424   2.670   0.915  11.383  0.0395 -0.3318  0.2062
14978TIP3    H166425   2.600   0.884  11.325 -1.3366  1.0930  1.0156
14978TIP3    H266426   2.664   1.011  11.378  1.1597 -0.1850  1.2150
14979TIP3   OH266427   2.374   4.778   0.568 -0.7488 -0.3721  0.6864
14979TIP3    H166428   2.453   4.743   0.527  0.4089  2.2435  0.4893
14979TIP3    H266429   2.311   4.788   0.496 -1.2905 -2.3572  0.8274
14980TIP3   OH266430   0.036   3.983  16.441  0.2701 -0.3866 -0.4487
14980TIP3    H166431   0.025   4.073  16.473 -1.6763 -1.0475  0.9191
14980TIP3    H266432   0.037   3.930  16.521 -2.6449 -1.9325 -1.3199
14981TIP3   OH266433   0.493   4.348  13.132  0.1068 -0.0378 -0.5202
14981TIP3    H166434   0.487   4.444  13.129 -0.3796 -0.0777 -0.9576
14981TIP3    H266435   0.473   4.320  13.043 -1.5555 -0.6252 -0.0057
14982TIP3   OH266436   2.099   5.198  13.484  0.3058 -0.4228  0.2007
14982TIP3    H166437   2.132   5.278  13.444 -1.4923  0.6147  0.6769
14982TIP3    H266438   2.112   5.131  13.417  0.9131  0.4586 -0.5948
14983TIP3   OH266439   0.050   1.871  14.176 -0.4954  0.3831  0.0355
14983TIP3    H166440   0.016   1.893  14.263  0.8465  0.8064  0.4642
14983TIP3    H266441  -0.003   1.925  14.116 -1.7206 -0.2315  0.5261
14984TIP3   OH266442   3.651   4.475   3.817 -0.3209 -0.7066  0.0353
14984TIP3    H166443   3.582   4.530   3.854  1.3609 -0.6243  3.5483
14984TIP3    H266444   3.731   4.526   3.830  0.6485 -1.4819 -2.3712
14985TIP3   OH266445   4.420   5.852  13.562  0.2533 -0.1390 -0.2494
14985TIP3    H166446   4.419   5.762  13.595 -0.2536 -0.1987 -0.4181
14985TIP3    H266447   4.503   5.888  13.594 -0.2599 -0.1659  1.1810
14986TIP3   OH266448   1.045   2.931  11.438 -0.2329  0.3305 -0.1405
14986TIP3    H166449   1.072   2.996  11.374 -0.3835  0.3886 -0.1448
14986TIP3    H266450   1.111   2.935  11.507  1.5161 -1.6502 -1.5867
14987TIP3   OH266451   4.514   1.195  11.486  0.2466  0.1377  0.2167
14987TIP3    H166452   4.572   1.265  11.517  0.6454 -0.4233  0.7355
14987TIP3    H266453   4.570   1.118  11.478 -0.0454  0.0153 -0.9746
14988TIP3   OH266454   3.100   0.139  12.529  0.3547 -0.1685  0.1664
14988TIP3    H166455   3.195   0.146  12.519  0.2970  0.8885  0.2238
14988TIP3    H266456   3.066   0.217  12.486 -0.4976 -0.5973  0.0504
14989TIP3   OH266457   3.509   0.829   0.859 -0.1522  0.6674  0.1874
14989TIP3    H166458   3.555   0.812   0.941 -0.9721  0.8377  0.6897
14989TIP3    H266459   3.459   0.749   0.843  1.2146 -0.0061 -0.9920
14990TIP3   OH266460   5.233   1.306  16.812 -0.2245 -0.1277 -0.3736
14990TIP3    H166461   5.281   1.387  16.826 -0.7265  0.0582  0.3264
14990TIP3    H266462   5.253   1.281  16.722  0.1906  0.5963 -0.4846
14991TIP3   OH266463   1.351   6.421  13.017 -0.0470  0.0028  0.0596
14991TIP3    H166464   1.376   6.507  12.985  0.1021 -0.2879 -0.6193
14991TIP3    H266465   1.258   6.414  12.999 -0.7176  1.1224  2.6770
14992TIP3   OH266466   1.946   5.200   2.214 -0.0491 -0.2203 -0.0371
14992TIP3    H166467   2.013   5.216   2.147 -0.9918 -1.0205 -1.2010
14992TIP3    H266468   1.991   5.148   2.281  0.3789 -1.1908 -1.0543
14993TIP3   OH266469   2.995   2.883   1.402  0.6390 -0.3012  0.1628
14993TIP3    H166470   3.081   2.870   1.362  0.2645  2.3588 -1.7391
14993TIP3    H266471   2.933   2.857   1.334 -0.0166  1.2873  0.1126
14994TIP3   OH266472   5.466   2.354  14.713 -0.0471 -0.7492  0.3572
14994TIP3    H166473   5.394   2.294  14.731 -1.0308 -0.1951 -1.4904
14994TIP3    H266474   5.538   2.297  14.687 -0.3262 -1.2232  0.6030
14995TIP3   OH266475   2.662   1.664  16.618 -0.4521 -0.3188  0.2223
14995TIP3    H166476   2.713   1.700  16.691 -1.0688  0.0309  0.4915
14995TIP3    H266477   2.571   1.685  16.640 -0.7450 -1.2548 -0.0635
14996TIP3   OH266478   3.281   5.155  11.400 -0.0677  0.2384  0.3812
14996TIP3    H166479   3.256   5.247  11.388  0.4979  0.0544 -2.9966
14996TIP3    H266480   3.377   5.157  11.404 -0.0462 -0.2029  0.1545
14997TIP3   OH266481   5.311   1.031   3.125  0.8071 -0.1298 -0.3373
14997TIP3    H166482   5.235   0.998   3.173  1.5930 -2.0724 -0.3368
14997TIP3    H266483   5.294   1.125   3.115 -1.3139 -0.4103  0.1278
14998TIP3   OH266484   6.467   4.024   2.984 -0.2705  0.0582 -0.2233
14998TIP3    H166485   6.470   3.960   3.054  1.6640 -0.4549 -0.7311
14998TIP3    H266486   6.442   3.973   2.906  0.6017  0.0222 -0.4914
14999TIP3   OH266487   5.554   3.947  14.879 -0.6126  0.3129  0.2152
14999TIP3    H166488   5.614   3.982  14.945 -2.0490  0.8382  1.2969
14999TIP3    H266489   5.477   3.920  14.928 -0.8070 -1.5323 -0.9782
15000TIP3   OH266490   1.986   4.236  14.073  0.6544 -0.2030  0.0988
15000TIP3    H166491   1.967   4.172  14.004  1.1206 -1.3570  0.9894
15000TIP3    H266492   2.073   4.270  14.050  0.1547  0.5585 -0.6952
15001TIP3   OH266493   2.255   1.875  12.453 -0.2909  0.3760 -0.2244
15001TIP3    H166494   2.236   1.831  12.536  0.2750  0.1938 -0.1876
15001TIP3    H266495   2.340   1.840  12.426 -1.5143 -1.4213 -2.1129
15002TIP3   OH266496   1.721   6.627   3.834 -0.0260  0.1313  0.2643
15002TIP3    H166497   1.700   6.674   3.915  1.2806  0.3684  0.4791
15002TIP3    H266498   1.698   6.536   3.853 -2.6328  0.6160 -0.1746
15003TIP3   OH266499   6.269   4.038  11.950  0.6127 -0.3655 -0.2802
15003TIP3    H166500   6.210   4.015  12.022 -0.4316 -0.5886 -1.1703
15003TIP3    H266501   6.301   3.954  11.918  1.9558 -0.2174  0.6071
15004TIP3   OH266502   3.365   6.042  16.309  0.1218 -0.7297  0.4484
15004TIP3    H166503   3.362   5.986  16.231 -0.2277  0.0780 -0.1300
15004TIP3    H266504   3.445   6.015  16.354  1.2389 -0.0904 -1.0672
15005TIP3   OH266505   4.916   1.947  14.952  0.3250  0.5858  0.3735
15005TIP3    H166506   4.852   1.997  14.901  0.4625  1.0405  0.6414
15005TIP3    H266507   4.876   1.861  14.963 -0.6786  1.1657  1.3941
15006TIP3   OH266508   3.865   5.966  15.092  0.0479  0.2358 -0.6151
15006TIP3    H166509   3.783   5.943  15.136  0.2994  0.6718  0.0928
15006TIP3    H266510   3.842   5.972  15.000 -0.5201 -0.5614 -0.5345
15007TIP3   OH266511   0.513   5.598   0.299  0.0955 -0.3431 -0.3171
15007TIP3    H166512   0.534   5.557   0.215  3.2986  1.7659 -0.7135
15007TIP3    H266513   0.448   5.664   0.278  1.6731  0.9181 -1.4382
15008TIP3   OH266514   2.659   0.424  13.639  0.0585 -0.7073  0.1051
15008TIP3    H166515   2.724   0.374  13.689  0.1813 -0.0582  0.6143
15008TIP3    H266516   2.584   0.364  13.630  0.0015 -0.8106  1.1520
15009TIP3   OH266517   0.631   4.492   1.416  0.0454 -0.4041 -0.1553
15009TIP3    H166518   0.673   4.541   1.488  1.1338 -0.6836 -0.5729
15009TIP3    H266519   0.561   4.549   1.386 -0.0497 -0.0281  0.7547
15010TIP3   OH266520   0.203   4.299  13.197 -0.3468 -0.1761  1.0740
15010TIP3    H166521   0.207   4.377  13.252  1.0036  1.3624 -1.0370
15010TIP3    H266522   0.293   4.286  13.168 -1.0123 -0.7512 -0.9016
15011TIP3   OH266523   1.114   3.988  16.107  1.1971 -0.2439 -0.3172
15011TIP3    H166524   1.203   4.012  16.132  0.4558  1.5826  0.7734
15011TIP3    H266525   1.114   3.892  16.106  3.0061 -0.2842  0.2189
15012TIP3   OH266526   5.733   0.196  10.236 -0.4732  0.3205  0.8596
15012TIP3    H166527   5.660   0.166  10.183  0.2437 -0.9656  0.5721
15012TIP3    H266528   5.736   0.136  10.310 -1.1691  1.8067  2.1628
15013TIP3   OH266529   1.898   6.197  16.126  0.1538  0.2413 -0.4019
15013TIP3    H166530   1.841   6.121  16.113  0.7751 -0.3929  0.4840
15013TIP3    H266531   1.954   6.199  16.049 -0.0893 -0.0024 -0.5852
15014TIP3   OH266532   0.450   4.112   3.948  0.0491  0.3007  0.1290
15014TIP3    H166533   0.454   4.167   4.026  1.2446  0.5276 -0.0662
15014TIP3    H266534   0.540   4.083   3.934 -0.7976 -3.6539  1.5570
15015TIP3   OH266535   0.595   1.397  14.605  0.2744 -0.3809  0.0314
15015TIP3    H166536   0.560   1.357  14.525  0.1960  0.0866 -0.1727
15015TIP3    H266537   0.568   1.489  14.599  0.3175 -0.3346  0.5694
15016TIP3   OH266538   5.318   0.872   0.146 -0.6133  0.4775  0.0991
15016TIP3    H166539   5.296   0.786   0.111 -1.0553  0.6131  0.0335
15016TIP3    H266540   5.303   0.863   0.241 -0.4286  0.4113  0.1210
15017TIP3   OH266541   0.614   3.544   2.980 -0.0175 -0.3871 -0.4055
15017TIP3    H166542   0.628   3.490   3.058  0.3359 -0.3449 -0.4383
15017TIP3    H266543   0.697   3.590   2.968 -0.7739  1.2596  0.4512
15018TIP3   OH266544   2.717   4.642   2.728 -0.4735 -0.6615  0.1460
15018TIP3    H166545   2.769   4.620   2.651 -0.1960 -2.1351  0.7222
15018TIP3    H266546   2.716   4.561   2.780 -1.6525 -0.0524  1.1104
15019TIP3   OH266547   6.672   2.685  15.263  0.1778 -0.3625  0.1639
15019TIP3    H166548   6.670   2.738  15.343 -0.0342  0.8824 -0.6285
15019TIP3    H266549   6.599   2.624  15.272  0.1148 -0.1824  0.8967
15020TIP3   OH266550   5.160   0.011  12.502 -0.1563  0.3390  0.3535
15020TIP3    H166551   5.233  -0.050  12.490  0.1207  0.6553  0.4241
15020TIP3    H266552   5.157   0.026  12.596  0.8926  1.7915  0.1812
15021TIP3   OH266553   2.807   6.694  13.733 -0.2683 -0.7026 -0.0805
15021TIP3    H166554   2.754   6.675  13.655  1.5579 -1.0910 -1.2756
15021TIP3    H266555   2.851   6.776  13.712 -0.9874  0.0431  1.2363
15022TIP3   OH266556   1.594   1.881   3.096  0.0334 -0.4116  0.5186
15022TIP3    H166557   1.547   1.830   3.162  0.8503 -1.3115  0.4266
15022TIP3    H266558   1.526   1.918   3.040 -0.5881 -1.0291  0.8621
15023TIP3   OH266559   6.616   6.287   0.133  0.3285  0.2465 -0.2001
15023TIP3    H166560   6.605   6.271   0.039  0.5179 -0.4605 -0.1141
15023TIP3    H266561   6.537   6.251   0.173 -0.4375  1.8494 -0.1905
15024TIP3   OH266562   5.526   2.118   2.327 -0.7384 -0.1382  0.4755
15024TIP3    H166563   5.610   2.095   2.287 -1.5939 -1.1690 -0.7988
15024TIP3    H266564   5.498   2.197   2.280 -0.6958 -0.0404  0.6114
15025TIP3   OH266565   2.547   6.344   4.183 -0.2388 -0.1302 -0.1658
15025TIP3    H166566   2.544   6.265   4.128 -0.7188  0.4335 -0.9691
15025TIP3    H266567   2.484   6.328   4.252  1.5691 -1.5756  1.2750
15026TIP3   OH266568   3.822   6.058  11.640  0.4717 -0.1666  0.2009
15026TIP3    H166569   3.882   6.005  11.587  0.7393 -1.0308  1.3272
15026TIP3    H266570   3.791   6.126  11.581 -0.5941 -2.1023 -1.5866
15027TIP3   OH266571   1.379   4.398   1.826  0.4755 -0.5781  0.6425
15027TIP3    H166572   1.340   4.348   1.754 -0.0548  0.0093  0.5172
15027TIP3    H266573   1.473   4.381   1.818  0.4191 -0.5666 -0.1522
15028TIP3   OH266574   4.933   3.492   2.426 -0.0949  0.1454  0.0910
15028TIP3    H166575   4.993   3.456   2.361  0.5301 -0.2015  0.8392
15028TIP3    H266576   4.854   3.438   2.420 -0.0489  0.1303 -0.3859
15029TIP3   OH266577   3.666   1.409   1.428  0.1827 -0.8479  0.4516
15029TIP3    H166578   3.678   1.323   1.467 -1.9745 -1.9796 -1.2018
15029TIP3    H266579   3.584   1.442   1.466 -0.8459 -1.0752 -1.4607
15030TIP3   OH266580   1.933   0.162   0.151 -0.1665  0.1439  0.0477
15030TIP3    H166581   1.985   0.128   0.079  2.1581  0.6196  1.4219
15030TIP3    H266582   1.870   0.092   0.169 -0.6334 -0.1037 -2.1944
15031TIP3   OH266583   0.925   1.914  14.277 -0.7551  0.2397  0.5267
15031TIP3    H166584   0.987   1.954  14.338  0.5646  0.9318 -1.1954
15031TIP3    H266585   0.961   1.932  14.190 -2.8270 -0.2743 -0.5071
15032TIP3   OH266586   3.396   2.295  17.051  0.3894  0.0356  0.5229
15032TIP3    H166587   3.469   2.334  17.101  0.7286  0.6878 -0.4588
15032TIP3    H266588   3.400   2.202  17.072  1.0719  0.1698  1.0336
15033TIP3   OH266589   6.136   5.089   4.146  0.1690 -0.2811 -0.1228
15033TIP3    H166590   6.122   5.026   4.075  1.5379 -1.2651  0.4298
15033TIP3    H266591   6.218   5.132   4.123 -0.6077  1.1279 -0.3432
15034TIP3   OH266592   6.565   6.242  17.131 -0.3380  0.6983 -0.1114
15034TIP3    H166593   6.534   6.277  17.047 -0.6038  0.4584 -0.1153
15034TIP3    H266594   6.505   6.170  17.150 -1.8250  2.2457  1.4716
15035TIP3   OH266595   5.171   6.067   5.921 -0.1144  0.0374 -0.3388
15035TIP3    H166596   5.122   6.078   6.003  0.1926  0.9228 -0.2637
15035TIP3    H266597   5.263   6.065   5.948  0.0120  0.7268 -0.6892
15036TIP3   OH266598   5.737   3.426  11.537 -0.1816  0.5422  0.2380
15036TIP3    H166599   5.681   3.449  11.612  1.0711 -0.1419  1.4277
15036TIP3    H266600   5.677   3.422  11.463 -1.5880  0.5920  1.3310
15037TIP3   OH266601   4.101   1.108   4.659 -0.0168 -0.0440 -0.1856
15037TIP3    H166602   4.084   1.124   4.566 -0.5569  1.8280  0.2067
15037TIP3    H266603   4.126   1.015   4.663 -2.1896 -0.7852 -1.8834
15038TIP3   OH266604   1.881   5.256   3.717 -0.4041 -0.0547  0.2348
15038TIP3    H166605   1.825   5.332   3.732 -1.2260 -0.5552 -0.2393
15038TIP3    H266606   1.946   5.287   3.653 -1.1769  0.0505 -0.5178
15039TIP3   OH266607   4.442   1.398   2.929  0.2430 -0.6864 -0.4848
15039TIP3    H166608   4.427   1.492   2.937  0.7598 -0.3584 -2.7408
15039TIP3    H266609   4.377   1.358   2.987 -0.2788  1.0322  0.1656
15040TIP3   OH266610   4.561   1.775  14.220 -0.0748 -0.1595  0.1178
15040TIP3    H166611   4.516   1.843  14.269 -0.9320 -0.4856 -0.1999
15040TIP3    H266612   4.499   1.702  14.216  0.2611 -0.4183 -0.8055
15041TIP3   OH266613   6.431   5.275   1.062  0.4872  0.0122 -0.8194
15041TIP3    H166614   6.481   5.214   1.116  0.6456  1.0513  0.2355
15041TIP3    H266615   6.356   5.299   1.117 -0.0424  0.1027 -1.5690
15042TIP3   OH266616   1.530   2.271   5.949 -0.5212  0.5084  0.3728
15042TIP3    H166617   1.504   2.182   5.974  1.1814 -0.2701 -0.4636
15042TIP3    H266618   1.452   2.308   5.907 -0.5003 -1.5140 -1.5728
15043TIP3   OH266619   3.327   0.566  10.364 -0.6972  0.5960  0.7048
15043TIP3    H166620   3.343   0.619  10.286  0.9824  0.1223  0.6909
15043TIP3    H266621   3.239   0.592  10.393 -0.5055  2.3265 -0.1229
15044TIP3   OH266622   3.687   1.105   4.083 -1.0083 -0.2863  0.2106
15044TIP3    H166623   3.632   1.168   4.037 -2.3598  2.6782  5.1007
15044TIP3    H266624   3.627   1.034   4.106 -1.3674  0.1775  0.7295
15045TIP3   OH266625   6.249   2.542   0.604  0.0509  0.2573 -0.1994
15045TIP3    H166626   6.274   2.535   0.696 -1.6385 -1.5790  0.1659
15045TIP3    H266627   6.310   2.485   0.558 -0.3262 -0.3521  0.0476
15046TIP3   OH266628   3.928   2.990   5.937  0.4337 -0.0024  0.0383
15046TIP3    H166629   3.912   2.908   5.983  1.9975  0.3003  1.1882
15046TIP3    H266630   3.883   2.979   5.853 -1.4157 -1.0613  1.0968
15047TIP3   OH266631   1.896   5.407   2.477 -0.4538  0.2893  0.1377
15047TIP3    H166632   1.970   5.347   2.466 -0.0865  0.6958  0.3901
15047TIP3    H266633   1.856   5.380   2.560 -0.6140  0.0500 -0.0140
15048TIP3   OH266634   5.931   2.044  16.475  0.0657 -0.5188 -0.5087
15048TIP3    H166635   5.908   2.097  16.398 -0.5393 -1.3905 -0.9492
15048TIP3    H266636   6.000   2.094  16.519  0.2296  0.1303 -1.4711
15049TIP3   OH266637   2.361   4.976   5.950 -0.4617 -0.4257  0.3575
15049TIP3    H166638   2.366   5.066   5.919 -2.4961  0.1062  1.4073
15049TIP3    H266639   2.337   4.983   6.042  0.5999 -2.0420  0.8041
15050TIP3   OH266640   4.014   2.204   3.162  0.3536 -0.3535 -0.1288
15050TIP3    H166641   3.948   2.136   3.169 -1.3152  1.1373 -0.6974
15050TIP3    H266642   4.040   2.203   3.069  2.2059 -1.8310  0.3389
15051TIP3   OH266643   2.256   2.005   0.727 -0.2279  0.3156 -0.6474
15051TIP3    H166644   2.287   2.086   0.686 -1.7002  0.8130 -0.8039
15051TIP3    H266645   2.163   2.002   0.709 -0.7788  0.0480  1.7999
15052TIP3   OH266646   3.766   1.562  13.846 -0.2466 -0.9448 -0.5250
15052TIP3    H166647   3.715   1.625  13.795  0.5255 -1.1456 -1.5660
15052TIP3    H266648   3.701   1.500  13.878 -1.1430  0.7139  1.1225
15053TIP3   OH266649   5.955   5.966   0.039 -0.1560  0.2903  0.1329
15053TIP3    H166650   5.972   5.915  -0.040  0.2330  2.1562 -1.0604
15053TIP3    H266651   6.023   5.938   0.100 -0.0069 -0.6611 -0.4517
15054TIP3   OH266652   0.463   2.620  11.597 -0.7351  0.1403 -0.1914
15054TIP3    H166653   0.400   2.670  11.649  0.0939 -1.1986  2.2604
15054TIP3    H266654   0.430   2.530  11.599  0.3289 -0.2657 -0.3544
15055TIP3   OH266655   1.531   0.088   5.352 -0.2348 -0.6345 -0.3129
15055TIP3    H166656   1.467   0.042   5.406 -0.0697  1.4909  1.8948
15055TIP3    H266657   1.501   0.179   5.352  3.0244  0.6149  1.4058
15056TIP3   OH266658   0.395   3.867  12.771  0.0756  0.1006 -0.3768
15056TIP3    H166659   0.471   3.824  12.811  0.6107  1.5691  0.2516
15056TIP3    H266660   0.428   3.901  12.688 -0.2710 -0.4245 -0.7372
15057TIP3   OH266661   6.255   2.691  11.929  0.3771 -0.1290  0.3124
15057TIP3    H166662   6.306   2.676  12.009 -0.5113 -0.8456  0.7650
15057TIP3    H266663   6.163   2.683  11.957  0.0183  0.5582 -0.5961
15058TIP3   OH266664   6.750   1.687  16.246 -0.7007  0.1279 -0.4297
15058TIP3    H166665   6.744   1.716  16.337  1.1603 -0.1032 -0.1964
15058TIP3    H266666   6.675   1.727  16.202 -1.4719  0.4580  1.1392
15059TIP3   OH266667   3.182   2.063   2.634 -0.0475  0.8318  0.1213
15059TIP3    H166668   3.103   2.049   2.687 -1.6961  0.5047 -2.2290
15059TIP3    H266669   3.149   2.099   2.551  2.2848  0.5833 -1.0005
15060TIP3   OH266670   3.932   0.944  11.366 -0.2006 -0.5725 -0.2180
15060TIP3    H166671   3.956   0.860  11.326 -0.6558 -0.1857 -1.3391
15060TIP3    H266672   4.016   0.981  11.395 -0.0974 -1.8872  1.3100
15061TIP3   OH266673   1.714   2.497   5.990  0.7563 -0.3837  0.1944
15061TIP3    H166674   1.645   2.432   6.005 -0.7732  1.7574  3.7012
15061TIP3    H266675   1.674   2.560   5.929  1.9997 -2.1564 -2.6629
15062TIP3   OH266676   2.080   0.294  16.913 -0.0150  0.0208  0.1417
15062TIP3    H166677   2.038   0.329  16.835  0.2342  0.5630  0.2450
15062TIP3    H266678   2.023   0.320  16.985 -0.1891 -0.3871  0.1554
15063TIP3   OH266679   2.492   1.665  15.389 -0.8402 -0.1900  0.6980
15063TIP3    H166680   2.482   1.716  15.469 -1.1641 -0.3833  0.7796
15063TIP3    H266681   2.564   1.604  15.409 -0.0996  0.5718  0.4215
15064TIP3   OH266682   3.029   5.146  13.738 -0.1538 -0.0203 -0.0261
15064TIP3    H166683   3.054   5.203  13.811  1.3411  1.2860 -1.5094
15064TIP3    H266684   2.949   5.186  13.703  1.1780  1.5686 -1.3958
15065TIP3   OH266685   5.500   3.866  11.896 -0.2219 -0.2066  0.1698
15065TIP3    H166686   5.569   3.883  11.961 -0.0678  1.0460 -0.2888
15065TIP3    H266687   5.419   3.862  11.948  0.0197 -0.2154  0.5507
15066TIP3   OH266688   0.414   4.581  16.392 -0.3141  0.5594  0.3688
15066TIP3    H166689   0.485   4.638  16.362  0.1886 -0.7929 -1.1958
15066TIP3    H266690   0.457   4.498  16.414 -1.2248  0.2290  0.9920
15067TIP3   OH266691   4.525   1.645   3.638  0.3456  0.8114  0.2024
15067TIP3    H166692   4.507   1.693   3.718 -0.4630  1.2956 -0.2607
15067TIP3    H266693   4.604   1.593   3.658  0.7485  1.6982  0.9687
15068TIP3   OH266694   5.203   0.248   0.314 -0.5357 -0.6995  0.1345
15068TIP3    H166695   5.230   0.157   0.325  1.6966 -0.0586  0.3466
15068TIP3    H266696   5.189   0.280   0.403 -0.2138 -0.5181  0.1191
15069TIP3   OH266697   1.151   4.037  12.698  0.8008 -0.2125  0.1639
15069TIP3    H166698   1.076   4.097  12.700  1.1009  0.2136 -0.8200
15069TIP3    H266699   1.112   3.950  12.696  0.3560 -0.1022  2.0233
15070TIP3   OH266700   1.262   2.206  12.041 -0.0002  0.2998 -0.7645
15070TIP3    H166701   1.304   2.141  11.984 -1.9826 -0.4135 -1.5180
15070TIP3    H266702   1.249   2.160  12.124 -0.2529  0.1555 -0.8825
15071TIP3   OH266703   6.184   4.779  13.371  0.4564  0.3377  0.0324
15071TIP3    H166704   6.208   4.871  13.358  0.9727  0.1680 -0.2691
15071TIP3    H266705   6.255   4.743  13.424  0.6724 -0.0806 -0.5315
15072TIP3   OH266706   4.400   4.053   5.398  0.3648  0.3106  0.4787
15072TIP3    H166707   4.455   4.063   5.321 -0.3329  0.8938  0.0388
15072TIP3    H266708   4.461   4.048   5.471  0.9947  2.4440  0.1639
15073TIP3   OH266709   3.514   2.629   0.798  0.2239 -0.3188 -0.1115
15073TIP3    H166710   3.463   2.710   0.795  1.0366  0.1937 -2.1126
15073TIP3    H266711   3.600   2.656   0.829  1.0626  0.0210 -2.4862
15074TIP3   OH266712   0.236   2.836  16.428  0.2504 -0.1157 -0.1757
15074TIP3    H166713   0.277   2.763  16.381 -0.9629 -1.1703  0.3518
15074TIP3    H266714   0.259   2.913  16.377  2.0695 -0.7736 -0.4178
15075TIP3   OH266715   6.531   3.581  17.246 -0.2598  0.2251 -0.1863
15075TIP3    H166716   6.619   3.555  17.219 -1.0330 -1.0392 -1.6479
15075TIP3    H266717   6.545   3.646  17.315  1.7988 -0.3140 -0.0408
15076TIP3   OH266718   3.222   4.027   1.797  0.0666  0.7846  0.3394
15076TIP3    H166719   3.254   3.957   1.854  1.0603 -0.3683 -1.5157
15076TIP3    H266720   3.240   3.995   1.709 -1.5924  2.3973 -0.6418
15077TIP3   OH266721   4.320   5.123  14.461 -0.0972  0.3684  0.2310
15077TIP3    H166722   4.254   5.192  14.449 -1.2120 -0.9652 -1.9916
15077TIP3    H266723   4.287   5.071  14.535  0.1894  1.5390  1.2174
15078TIP3   OH266724   1.769   4.218  13.227  0.8358  0.1335 -0.4436
15078TIP3    H166725   1.841   4.248  13.283  0.4319  0.8847 -0.3004
15078TIP3    H266726   1.700   4.283  13.241  0.2356 -0.4153 -0.7981
15079TIP3   OH266727   2.446   6.284   5.864  0.0013 -0.0237  0.0744
15079TIP3    H166728   2.457   6.189   5.860 -1.9973 -0.3928  1.6458
15079TIP3    H266729   2.440   6.304   5.957 -2.6039  1.1864 -0.2677
15080TIP3   OH266730   2.910   6.401   1.227 -0.1754 -0.8628 -0.6203
15080TIP3    H166731   2.844   6.433   1.288 -1.9327 -0.1027 -2.7729
15080TIP3    H266732   2.988   6.454   1.245  0.3204 -2.4052  2.6112
15081TIP3   OH266733   5.493   2.568  16.124  0.2369 -0.0111 -0.0632
15081TIP3    H166734   5.566   2.591  16.181  0.6793 -0.8465 -0.2783
15081TIP3    H266735   5.470   2.479  16.149 -1.4429  0.6071  0.7592
15082TIP3   OH266736   1.569   5.012   5.368 -0.0178  0.7102 -0.0750
15082TIP3    H166737   1.509   5.078   5.335 -0.8305  1.4234  2.5647
15082TIP3    H266738   1.525   4.928   5.350 -1.2762  1.1637  0.7684
15083TIP3   OH266739   4.756   2.261   2.075 -0.0172 -0.3090 -0.4695
15083TIP3    H166740   4.736   2.291   2.164  2.8302  0.8054 -0.0830
15083TIP3    H266741   4.770   2.167   2.083 -0.2063 -0.2831  0.1816
15084TIP3   OH266742   1.594   6.579  16.615 -0.2103 -0.4829  0.0538
15084TIP3    H166743   1.600   6.637  16.691  0.5740 -0.9773  0.3880
15084TIP3    H266744   1.556   6.634  16.546 -0.8094  0.0114  0.7549
15085TIP3   OH266745   5.987   2.227   4.098 -0.6424 -0.6616 -0.2894
15085TIP3    H166746   5.921   2.193   4.038 -1.7350 -0.1798  0.6039
15085TIP3    H266747   5.983   2.169   4.174  0.6517 -1.2064 -0.6138
15086TIP3   OH266748   3.274   5.195   3.602  0.2286  0.2503 -0.0766
15086TIP3    H166749   3.282   5.105   3.570 -0.9445 -0.0743  0.4647
15086TIP3    H266750   3.297   5.189   3.695 -1.1437  0.2116  0.2967
15087TIP3   OH266751   1.086   0.601  14.438  0.9276  0.2408 -0.0536
15087TIP3    H166752   1.122   0.567  14.356  1.0857 -0.7560  0.4132
15087TIP3    H266753   1.161   0.606  14.497  0.7221  0.4589  0.1906
15088TIP3   OH266754   0.949   1.241  12.344 -0.2134  0.2752 -0.3740
15088TIP3    H166755   0.903   1.307  12.292  0.4221  1.8120  0.9251
15088TIP3    H266756   1.033   1.230  12.301  0.7942  2.4251  0.8673
15089TIP3   OH266757   4.691   1.897   4.747 -0.2905  0.3496  0.3100
15089TIP3    H166758   4.678   1.940   4.831 -1.2255  0.3797  0.1575
15089TIP3    H266759   4.603   1.877   4.716  0.0535  0.1140 -0.5486
15090TIP3   OH266760   5.087   4.533  16.900  0.3792  0.6017 -0.0251
15090TIP3    H166761   5.089   4.586  16.821 -0.2943  1.7798  0.7221
15090TIP3    H266762   5.167   4.557  16.947  0.2515  0.6826  0.1484
15091TIP3   OH266763   0.200   5.645  12.474  0.6260  0.1733 -0.8542
15091TIP3    H166764   0.147   5.567  12.494  0.8411  0.2704  0.1929
15091TIP3    H266765   0.261   5.651  12.548  0.6754  1.2787 -0.9683
15092TIP3   OH266766   3.956   3.472   2.581 -0.2826  0.6433 -0.4543
15092TIP3    H166767   3.893   3.442   2.647 -0.3932  1.5470 -0.1321
15092TIP3    H266768   3.943   3.413   2.507 -0.4425 -0.1374  0.1760
15093TIP3   OH266769   6.238   6.016  14.042  0.2731  0.0534 -0.2220
15093TIP3    H166770   6.180   5.963  14.097  1.0724 -0.1678  0.4329
15093TIP3    H266771   6.180   6.059  13.980 -0.3780 -1.8792 -1.0311
15094TIP3   OH266772   2.216   0.398   5.801 -0.0374  0.4818 -0.8756
15094TIP3    H166773   2.236   0.474   5.855 -1.1332  0.3825 -0.3108
15094TIP3    H266774   2.153   0.347   5.852  1.5225 -1.4255 -0.7123
15095TIP3   OH266775   4.230   3.915  15.710 -0.4038  0.0512 -0.0961
15095TIP3    H166776   4.217   3.982  15.644 -0.6547  0.7887  0.6739
15095TIP3    H266777   4.322   3.922  15.734 -0.3366 -0.1486 -0.2943
15096TIP3   OH266778   0.905   6.472   5.936  0.4114 -0.0607  0.2267
15096TIP3    H166779   0.922   6.537   6.005 -0.5353  1.2660 -0.7363
15096TIP3    H266780   0.942   6.511   5.857 -1.6949  0.1420 -0.7153
15097TIP3   OH266781   4.032   0.865  11.091 -0.2019  0.2884 -0.1613
15097TIP3    H166782   4.003   0.856  11.000  1.4743 -2.1667 -0.5465
15097TIP3    H266783   4.089   0.942  11.090  1.0413 -0.5761 -1.6200
15098TIP3   OH266784   6.685   1.268   5.527  0.2338  0.2316 -0.1745
15098TIP3    H166785   6.689   1.364   5.530 -2.0251  0.3439  1.0998
15098TIP3    H266786   6.719   1.241   5.613 -1.5595  0.0586  0.5125
15099TIP3   OH266787   5.510   4.430  15.244 -0.5202  0.1837 -0.3379
15099TIP3    H166788   5.424   4.441  15.285 -1.2327 -1.7730 -1.1869
15099TIP3    H266789   5.494   4.445  15.151 -0.0307 -0.5326 -0.5452
15100TIP3   OH266790   2.607   6.690  13.214 -0.0160 -0.1067 -0.2043
15100TIP3    H166791   2.636   6.704  13.123  0.2854 -0.7710 -0.2183
15100TIP3    H266792   2.524   6.644  13.205  0.2628 -0.6233 -0.1383
15101TIP3   OH266793   2.593   5.787  15.119  0.0613 -0.0699 -0.0195
15101TIP3    H166794   2.581   5.801  15.213  0.3896 -2.3104  0.4117
15101TIP3    H266795   2.688   5.790  15.107 -0.0210  2.7007 -0.7995
15102TIP3   OH266796   0.996   4.687  16.469  0.3916 -0.5079 -0.1257
15102TIP3    H166797   1.025   4.757  16.528 -0.0235 -0.9311  0.6006
15102TIP3    H266798   0.930   4.728  16.413  0.7080 -0.1285 -0.2246
15103TIP3   OH266799   1.233   0.013   2.650 -0.2106  0.3441 -0.0176
15103TIP3    H166800   1.261   0.032   2.739  1.8034 -0.3923 -0.4532
15103TIP3    H266801   1.183  -0.068   2.657  0.8716 -0.3131  0.3182
15104TIP3   OH266802   2.155   5.314   2.530  0.0716 -0.3209 -0.6744
15104TIP3    H166803   2.194   5.334   2.445  2.3349  0.4865  0.4698
15104TIP3    H266804   2.212   5.357   2.594 -2.3352  0.3109  1.2234
15105TIP3   OH266805   3.548   0.105   2.375 -0.2491 -0.1235  0.5723
15105TIP3    H166806   3.580   0.172   2.315  1.2365 -1.7180 -0.5289
15105TIP3    H266807   3.591   0.125   2.458  1.8896 -0.8320 -0.2765
15106TIP3   OH266808   2.363   1.215   0.491  0.9089 -0.3062  0.9867
15106TIP3    H166809   2.403   1.129   0.508 -1.5255 -1.7335  0.1239
15106TIP3    H266810   2.417   1.253   0.422  1.4548 -1.6425  0.6316
15107TIP3   OH266811   5.715   0.566  12.986  0.2494  0.4860  0.3829
15107TIP3    H166812   5.762   0.627  13.042 -1.5814  1.5490  0.8639
15107TIP3    H266813   5.664   0.623  12.927  2.0999 -0.5788 -2.4314
15108TIP3   OH266814   2.156   2.157   4.506  0.2692  0.0629  0.2487
15108TIP3    H166815   2.193   2.091   4.448 -0.1647 -0.3973  0.4850
15108TIP3    H266816   2.091   2.110   4.558 -0.2164  0.7262  0.2580
15109TIP3   OH266817   3.258   6.326  14.273 -0.9508 -0.0914  0.8476
15109TIP3    H166818   3.324   6.260  14.251 -1.6572 -0.4983 -0.1904
15109TIP3    H266819   3.295   6.375  14.346  1.1591  0.6851 -0.6558
15110TIP3   OH266820   0.195   2.890   0.826  0.0775  0.3066  0.5474
15110TIP3    H166821   0.231   2.815   0.873 -0.4386 -0.5410 -0.3595
15110TIP3    H266822   0.102   2.890   0.848 -0.3531 -0.6364 -1.1026
15111TIP3   OH266823   2.993   3.177  13.172 -0.0075  0.2367  0.2435
15111TIP3    H166824   2.983   3.230  13.251  1.5157  1.5524 -0.3958
15111TIP3    H266825   2.905   3.144  13.154 -0.6310  0.9985  1.7212
15112TIP3   OH266826   2.012   6.089  14.335  0.2258  0.1367 -0.1841
15112TIP3    H166827   1.982   5.999  14.318  0.4242  0.1058 -0.3766
15112TIP3    H266828   1.931   6.140  14.343  0.0565 -0.3232  1.4825
15113TIP3   OH266829   6.753   1.575   3.563  0.3411 -0.3860 -0.0208
15113TIP3    H166830   6.764   1.481   3.571 -0.5555 -0.3381  3.0202
15113TIP3    H266831   6.658   1.588   3.569 -0.0484  0.5510 -4.5458
15114TIP3   OH266832   5.572   3.881   3.663 -0.4610  0.0417 -0.1361
15114TIP3    H166833   5.581   3.975   3.679 -1.6470  0.1458  0.0352
15114TIP3    H266834   5.620   3.840   3.735 -1.6529  0.5327  1.0025
15115TIP3   OH266835   3.736   6.617   6.031 -0.1928 -0.4548 -0.0662
15115TIP3    H166836   3.776   6.548   5.978 -0.8872 -1.5501  0.7687
15115TIP3    H266837   3.680   6.665   5.970 -0.5984 -1.3812 -0.4533
15116TIP3   OH266838   3.905   4.753  14.588 -0.4102 -0.2305 -0.0023
15116TIP3    H166839   3.828   4.799  14.555  0.1664  3.0982  2.7008
15116TIP3    H266840   3.869   4.685  14.645 -1.3262 -0.3599 -0.7068
15117TIP3   OH266841   0.208   4.350   1.226  0.1726 -0.0040  1.1207
15117TIP3    H166842   0.186   4.435   1.264  0.9629  0.4272  0.6534
15117TIP3    H266843   0.303   4.341   1.240  0.1955 -0.5451  0.6713
15118TIP3   OH266844   2.766   5.293   3.904 -0.0698  0.0801  0.1236
15118TIP3    H166845   2.798   5.207   3.932 -1.0651 -0.9139 -1.5812
15118TIP3    H266846   2.846   5.344   3.886  0.5325 -0.4332  1.2840
15119TIP3   OH266847   0.731   0.760  15.890 -0.3902  0.2141  0.0268
15119TIP3    H166848   0.669   0.699  15.850  0.2861 -1.1373  0.9849
15119TIP3    H266849   0.814   0.743  15.845  0.7297 -2.2692  2.6825
15120TIP3   OH266850   0.740   2.468  13.301  0.0095 -0.8089 -0.1198
15120TIP3    H166851   0.808   2.534  13.289  0.0586 -0.9109 -0.3919
15120TIP3    H266852   0.712   2.445  13.213  0.0771 -1.2410 -0.0312
15121TIP3   OH266853   3.679   6.193  15.095 -0.1699  0.2897  0.2183
15121TIP3    H166854   3.628   6.269  15.125 -1.1532 -0.9455  1.8269
15121TIP3    H266855   3.769   6.213  15.120 -0.7310  0.0227  2.6633
15122TIP3   OH266856   3.449   6.379  10.926  0.4526  0.4860  0.0167
15122TIP3    H166857   3.524   6.354  10.872  0.7719  0.0542  0.6422
15122TIP3    H266858   3.432   6.302  10.981  0.2841  0.9955  0.6901
15123TIP3   OH266859   3.249   1.437  13.821  0.0438  0.2945 -0.3539
15123TIP3    H166860   3.312   1.421  13.751 -0.3753  0.9016 -0.8845
15123TIP3    H266861   3.258   1.362  13.879  0.4259 -0.1957 -1.0333
15124TIP3   OH266862   1.381   6.645   4.707 -0.0255  0.0321 -0.0087
15124TIP3    H166863   1.437   6.581   4.664  0.5189  0.1464  0.5159
15124TIP3    H266864   1.304   6.651   4.651 -0.4871 -1.7110  0.3656
15125TIP3   OH266865   4.099   0.701  12.316 -0.3509 -0.2774 -0.0416
15125TIP3    H166866   4.194   0.705  12.309 -0.1473 -1.8792  1.3361
15125TIP3    H266867   4.075   0.781  12.364  0.5481 -0.9612  1.6012
15126TIP3   OH266868   3.256   0.120   6.009  0.2478  0.4079 -0.4286
15126TIP3    H166869   3.299   0.097   5.927 -1.3805 -1.6476 -0.7921
15126TIP3    H266870   3.175   0.068   6.009 -0.6592  1.6970  1.6648
15127TIP3   OH266871   0.514   4.135  15.499 -0.3296 -0.0108 -0.0835
15127TIP3    H166872   0.423   4.123  15.469 -0.8292  2.6832  0.1332
15127TIP3    H266873   0.560   4.171  15.423  0.7918 -1.9634 -0.3949
15128TIP3   OH266874   1.005   4.301  12.761 -0.3329 -0.2233 -0.4233
15128TIP3    H166875   0.999   4.302  12.856  1.5417  0.9820 -0.2711
15128TIP3    H266876   0.970   4.386  12.734  0.1407 -0.1215 -0.7244
15129TIP3   OH266877   0.681   6.724   3.981  0.0094 -0.3516 -0.5636
15129TIP3    H166878   0.761   6.744   4.030 -0.9507  2.8702 -0.1176
15129TIP3    H266879   0.712   6.697   3.894  1.5959 -2.4641  0.5496
15130TIP3   OH266880   2.027   5.351  12.543 -0.5975 -0.1097  0.3770
15130TIP3    H166881   1.954   5.399  12.504 -0.7400 -1.3144 -0.9284
15130TIP3    H266882   2.104   5.405  12.524 -0.9537  0.4169  0.4101
15131TIP3   OH266883   6.146   5.477   2.558 -0.1839 -0.1500 -0.0018
15131TIP3    H166884   6.186   5.406   2.609  0.0467  0.5645  0.8352
15131TIP3    H266885   6.151   5.446   2.467 -0.5007 -1.3980  0.3807
15132TIP3   OH266886   4.232   2.556   0.269  0.7583  0.5022 -0.2141
15132TIP3    H166887   4.226   2.625   0.202  1.6706 -0.1145 -0.9639
15132TIP3    H266888   4.277   2.484   0.225 -0.9935 -0.9722  0.2440
15133TIP3   OH266889   1.906   3.108  12.947 -0.2701  0.2737  0.3913
15133TIP3    H166890   1.818   3.133  12.917  0.6491  0.5830 -2.3371
15133TIP3    H266891   1.945   3.062  12.872  2.0260  0.4832  1.3736
15134TIP3   OH266892   1.772   3.783   4.084  0.0105  0.5237 -0.1618
15134TIP3    H166893   1.791   3.836   4.006 -1.0383 -1.3649 -1.8170
15134TIP3    H266894   1.806   3.834   4.157  0.6684  2.5948 -1.8115
15135TIP3   OH266895   2.186   4.409  11.917 -0.3934 -0.5731  0.1887
15135TIP3    H166896   2.160   4.367  11.835 -1.3212  1.0820 -0.3953
15135TIP3    H266897   2.281   4.411  11.913 -0.4227 -0.5052 -0.8687
15136TIP3   OH266898   4.954   3.195   2.663 -0.3449 -0.3264 -0.0386
15136TIP3    H166899   4.864   3.177   2.633  0.5595 -1.0450 -2.5396
15136TIP3    H266900   4.953   3.288   2.686 -2.0795 -0.6573  1.5633
15137TIP3   OH266901   3.350   1.089   6.009  0.4270  0.5706 -0.1823
15137TIP3    H166902   3.406   1.063   6.082 -0.0866  0.8004  0.2989
15137TIP3    H266903   3.402   1.071   5.931  1.4986  1.5419  0.2792
15138TIP3   OH266904   0.664   4.695  14.269  0.4830  0.2260 -0.6182
15138TIP3    H166905   0.624   4.614  14.239  1.1904 -0.8922  1.2484
15138TIP3    H266906   0.690   4.677  14.359  2.8120  1.7362 -0.8885
15139TIP3   OH266907   5.701   0.871   1.131 -0.4684  0.5483 -0.0539
15139TIP3    H166908   5.793   0.846   1.118  0.2807  1.6040  2.5397
15139TIP3    H266909   5.658   0.848   1.049  1.8329 -1.2178 -0.8682
15140TIP3   OH266910   0.529   3.833  16.791  0.0077 -0.2768 -0.2975
15140TIP3    H166911   0.550   3.919  16.756  0.5523 -0.2897 -0.0131
15140TIP3    H266912   0.456   3.802  16.737  0.0904  0.1786 -0.6760
15141TIP3   OH266913   1.190   0.444  14.152 -0.4965  0.4528 -0.3749
15141TIP3    H166914   1.146   0.391  14.219  0.7252 -0.9123 -0.6104
15141TIP3    H266915   1.177   0.396  14.071 -0.9945  1.5254 -0.9646
15142TIP3   OH266916   2.030   4.628  15.824  0.6592 -0.1790  0.0237
15142TIP3    H166917   2.083   4.674  15.758  0.8214 -0.7055 -0.2183
15142TIP3    H266918   2.037   4.536  15.801 -0.6342 -0.2408 -0.1999
15143TIP3   OH266919   6.364   1.915  11.566 -0.4803  1.1625  0.0127
15143TIP3    H166920   6.345   1.984  11.630 -0.9087  2.0924 -1.0856
15143TIP3    H266921   6.305   1.934  11.493  0.2563  0.3414 -0.8109
15144TIP3   OH266922   4.144   4.910  13.226 -0.0998  0.3858  0.0840
15144TIP3    H166923   4.231   4.902  13.265  0.6575 -0.0743 -1.6075
15144TIP3    H266924   4.089   4.851  13.279  1.4939 -2.4517 -1.1511
15145TIP3   OH266925   0.465   2.292   3.362  0.5374  0.7762 -0.0430
15145TIP3    H166926   0.523   2.244   3.421  0.8826 -0.2166 -1.1337
15145TIP3    H266927   0.517   2.368   3.334  0.3946  1.2154  0.8591
15146TIP3   OH266928   3.670   5.992   6.248  0.1927 -0.1058 -0.8159
15146TIP3    H166929   3.686   5.920   6.186 -2.0670 -0.4682 -1.0396
15146TIP3    H266930   3.584   5.973   6.286 -0.5460  2.5453 -0.9873
15147TIP3   OH266931   5.449   6.700   0.069  0.1550  0.1015 -0.1049
15147TIP3    H166932   5.432   6.791   0.093  1.1837  0.3807 -0.3771
15147TIP3    H266933   5.528   6.677   0.118  1.3861  0.1748 -1.9523
15148TIP3   OH266934   0.141   5.346   1.223  0.2995  0.3838  0.1857
15148TIP3    H166935   0.234   5.368   1.233  0.3343  1.3594 -1.7304
15148TIP3    H266936   0.121   5.370   1.132 -1.0565 -2.6466 -0.4442
15149TIP3   OH266937   5.027   6.111   4.727 -0.1355 -1.0293 -0.0494
15149TIP3    H166938   5.012   6.086   4.818 -0.5179  0.6890  0.4043
15149TIP3    H266939   4.978   6.192   4.716 -0.8340 -1.6495 -2.0650
15150TIP3   OH266940   6.725   4.993   0.923  0.7764 -0.0089  0.9551
15150TIP3    H166941   6.808   4.980   0.970  1.0938 -1.4439  0.0653
15150TIP3    H266942   6.752   5.020   0.835  0.3551 -1.2140  0.4367
15151TIP3   OH266943   0.345   5.816   3.569  0.0104  0.4013 -0.4179
15151TIP3    H166944   0.431   5.838   3.533 -0.0751  0.7174 -0.4298
15151TIP3    H266945   0.286   5.883   3.534 -0.4721 -0.4625 -1.3533
15152TIP3   OH266946   2.224   5.171  16.845  0.0932  0.2947  0.0400
15152TIP3    H166947   2.233   5.229  16.921 -0.4245 -0.7654  0.9449
15152TIP3    H266948   2.143   5.199  16.803 -0.5359 -0.2139  0.8884
15153TIP3   OH266949   2.620   2.071  12.335  0.5115  0.1733  0.6138
15153TIP3    H166950   2.589   1.982  12.320 -2.0473  1.4020 -2.3546
15153TIP3    H266951   2.712   2.068  12.308  0.6263 -1.6123  1.0345
15154TIP3   OH266952   2.267   5.843   5.701  0.5454  0.5302  0.3102
15154TIP3    H166953   2.223   5.774   5.650 -1.4437  2.2261 -0.4189
15154TIP3    H266954   2.213   5.852   5.780  0.3716  1.6835  0.0730
15155TIP3   OH266955   4.180   5.871   0.088 -0.0110 -0.1247 -0.1277
15155TIP3    H166956   4.161   5.849  -0.003 -0.3947 -0.2817 -0.0092
15155TIP3    H266957   4.131   5.952   0.105  0.8296  0.4436 -0.3484
15156TIP3   OH266958   0.658   0.171  13.319  0.1464  0.2452  0.2191
15156TIP3    H166959   0.566   0.196  13.312  0.6125  1.7925 -0.9440
15156TIP3    H266960   0.702   0.250  13.349  1.2274 -0.2247 -0.0873
15157TIP3   OH266961   3.343   0.279   2.850  0.3347  0.3611  0.2727
15157TIP3    H166962   3.391   0.253   2.928  0.7560 -0.8861 -0.3700
15157TIP3    H266963   3.269   0.330   2.882 -0.6410 -1.7908  1.6540
15158TIP3   OH266964   6.167   5.960  12.580 -0.6093 -0.4638 -0.0270
15158TIP3    H166965   6.120   6.000  12.507  0.7714  1.8749  0.2655
15158TIP3    H266966   6.259   5.975  12.560 -0.1689 -0.5441  1.7683
15159TIP3   OH266967   1.074   0.996   1.437 -0.0086  0.2268 -0.3262
15159TIP3    H166968   1.069   0.910   1.397 -0.6803 -0.0382  0.2905
15159TIP3    H266969   0.985   1.013   1.468 -0.2145  1.7477 -1.6635
15160TIP3   OH266970   4.446   1.401   2.655  0.0944  0.1300 -0.0160
15160TIP3    H166971   4.499   1.344   2.711 -0.0890  1.0658  1.1558
15160TIP3    H266972   4.508   1.465   2.620  0.0799  0.0017 -0.2757
15161TIP3   OH266973   5.823   2.472   4.135  0.4234  0.3585  0.5505
15161TIP3    H166974   5.846   2.389   4.093  0.2112  0.2993  0.5519
15161TIP3    H266975   5.904   2.501   4.177  2.0884  2.7566 -3.7098
15162TIP3   OH266976   1.511   0.385  12.979 -0.0881 -0.3916 -0.3385
15162TIP3    H166977   1.476   0.302  12.946  1.6721 -1.0162 -0.7683
15162TIP3    H266978   1.580   0.408  12.916  0.5264  0.5725  0.6498
15163TIP3   OH266979   1.652   3.098   1.212  0.8568 -0.2047 -0.3122
15163TIP3    H166980   1.607   3.177   1.243 -0.5167 -1.0783  0.0056
15163TIP3    H266981   1.670   3.049   1.292  0.5342 -0.8177 -0.6148
15164TIP3   OH266982   4.010   4.001  13.042 -0.5400  0.2087 -0.2367
15164TIP3    H166983   3.988   3.998  13.135  0.7696  0.9796  0.1207
15164TIP3    H266984   3.980   4.087  13.013 -1.4379 -0.2377 -0.6777
15165TIP3   OH266985   4.058   6.633   4.629  0.3589 -0.6550  0.5147
15165TIP3    H166986   4.123   6.659   4.696 -2.5142  1.4759  2.7551
15165TIP3    H266987   4.017   6.554   4.665  0.2293 -0.7312  0.2013
15166TIP3   OH266988   2.852   3.539   4.711 -0.2110 -0.1381  0.0524
15166TIP3    H166989   2.858   3.443   4.716  0.3956 -0.0535  1.2167
15166TIP3    H266990   2.939   3.567   4.683 -0.4487  0.0674 -0.4904
15167TIP3   OH266991   6.288   3.435   0.022 -0.2574  0.8961  0.0513
15167TIP3    H166992   6.367   3.486   0.004 -0.2575  1.1670  0.7849
15167TIP3    H266993   6.241   3.485   0.088  0.6504 -0.9512  2.2131
15168TIP3   OH266994   5.393   1.553  12.368 -0.4603  0.1474 -0.4388
15168TIP3    H166995   5.393   1.470  12.321  0.5148  0.3609 -0.8236
15168TIP3    H266996   5.310   1.595  12.343 -0.1976  0.0229 -1.5505
15169TIP3   OH266997   1.703   0.731   2.266  0.6519 -0.0490 -0.1924
15169TIP3    H166998   1.681   0.649   2.220 -0.7729 -0.0341  0.4036
15169TIP3    H266999   1.620   0.777   2.274  1.2940  1.0733  0.2515
15170TIP3   OH267000   4.985   4.212   5.883 -0.0025 -0.2018  0.0416
15170TIP3    H167001   4.897   4.240   5.910 -0.1783 -0.1562 -0.5828
15170TIP3    H267002   5.005   4.138   5.941 -1.2046 -1.4201 -1.0247
15171TIP3   OH267003   4.201   5.967  14.269 -0.5485 -0.1064  0.3706
15171TIP3    H167004   4.252   6.038  14.232 -1.1779 -0.3384 -1.0137
15171TIP3    H267005   4.264   5.915  14.319  0.0599  0.9763  0.7618
15172TIP3   OH267006   2.750   3.291   5.409 -0.2239 -0.3336  0.4628
15172TIP3    H167007   2.733   3.200   5.431 -0.5353 -0.1252  1.1279
15172TIP3    H267008   2.845   3.297   5.399 -0.2969 -0.9628 -0.6849
15173TIP3   OH267009   5.477   1.907   1.524 -0.6626 -0.4015 -0.2821
15173TIP3    H167010   5.448   1.849   1.595 -1.0583 -0.1507 -0.2338
15173TIP3    H267011   5.483   1.851   1.447  1.8952 -1.1838  0.3765
15174TIP3   OH267012   0.540   0.298   5.934  0.5884  0.0231 -0.6703
15174TIP3    H167013   0.615   0.296   5.876  1.6742  0.9256  0.6352
15174TIP3    H267014   0.569   0.349   6.010 -0.2510 -2.3287  1.3615
15175TIP3   OH267015   1.500   4.387   2.894 -0.5209  0.0417  0.3810
15175TIP3    H167016   1.505   4.384   2.798 -0.5896 -0.8087  0.3985
15175TIP3    H267017   1.556   4.316   2.924  0.7012  1.2180  1.0364
15176TIP3   OH267018   6.579   0.663  14.430 -0.3085  0.1155  0.3891
15176TIP3    H167019   6.505   0.690  14.484 -1.3254 -0.7370 -0.5353
15176TIP3    H267020   6.587   0.732  14.363 -0.1229  0.3124  0.6113
15177TIP3   OH267021   5.585   0.349   3.861 -0.4334  0.0200  0.4324
15177TIP3    H167022   5.534   0.424   3.832  0.2377 -0.4358 -2.2544
15177TIP3    H267023   5.614   0.307   3.779  1.5048 -1.5697  1.8278
15178TIP3   OH267024   1.791   5.309  13.656  0.1536 -0.5887  0.1084
15178TIP3    H167025   1.781   5.272  13.568 -1.5462 -0.9919  0.4473
15178TIP3    H267026   1.703   5.310  13.692  0.9711 -1.6026  2.2976
15179TIP3   OH267027   5.988   3.082  17.177  0.2033  0.0212 -0.3760
15179TIP3    H167028   5.898   3.111  17.195  0.0304 -0.2172 -0.8317
15179TIP3    H267029   6.042   3.134  17.236 -0.2747 -0.1591  0.2288
15180TIP3   OH267030   0.292   0.876  13.022  0.0516  0.1551 -0.8765
15180TIP3    H167031   0.260   0.847  12.937  1.2699 -0.3754 -1.1777
15180TIP3    H267032   0.321   0.966  13.008  0.0596  0.1364 -0.9807
15181TIP3   OH267033   2.756   0.781  15.698 -0.1271 -0.1239 -0.3133
15181TIP3    H167034   2.825   0.843  15.674  0.2523 -0.3731  0.1132
15181TIP3    H267035   2.797   0.724  15.763  0.1857 -2.1062 -2.1635
15182TIP3   OH267036   4.691   1.575  13.209  0.3616  0.7839  0.4780
15182TIP3    H167037   4.640   1.620  13.276 -0.6536  0.0137  0.2387
15182TIP3    H267038   4.685   1.631  13.132 -2.3097 -0.4648 -0.3448
15183TIP3   OH267039   0.213   3.044   1.694  0.5343 -0.6106  0.0706
15183TIP3    H167040   0.244   3.134   1.704 -1.3085 -0.0455  1.2927
15183TIP3    H267041   0.118   3.051   1.703  0.3091 -2.6163 -0.4073
15184TIP3   OH267042   4.587   3.559  11.742 -0.1217  0.8604  1.2917
15184TIP3    H167043   4.665   3.533  11.693 -1.4043 -1.3605  0.2732
15184TIP3    H267044   4.619   3.586  11.828  1.6802 -0.8333  1.1926
15185TIP3   OH267045   2.553   4.962   1.517 -0.8200 -0.2342  0.0903
15185TIP3    H167046   2.559   4.928   1.428 -1.7415 -1.3316  0.4289
15185TIP3    H267047   2.480   4.914   1.556 -0.8381  0.6922  1.2377
15186TIP3   OH267048   1.890   4.177   4.296 -0.1528  0.5129 -0.3788
15186TIP3    H167049   1.831   4.235   4.345  1.4272  1.8538  0.0262
15186TIP3    H267050   1.976   4.191   4.335  0.4382 -1.5616 -0.8000
15187TIP3   OH267051   4.088   0.518   1.036 -0.2768  0.4277  0.0396
15187TIP3    H167052   4.182   0.507   1.051 -0.1473 -2.2176 -1.9302
15187TIP3    H267053   4.076   0.500   0.942 -2.9093 -1.1455  0.5531
15188TIP3   OH267054   5.451   0.470   4.893 -0.5136  0.1840 -0.2241
15188TIP3    H167055   5.521   0.415   4.928 -0.3334 -0.0174 -0.8777
15188TIP3    H267056   5.491   0.556   4.881 -1.1549  0.8723  2.0730
15189TIP3   OH267057   1.900   1.676   3.350  0.1274 -0.1164  0.3295
15189TIP3    H167058   1.959   1.702   3.279  1.6420 -1.6981  0.9339
15189TIP3    H267059   1.854   1.599   3.315  1.5995 -1.5173  1.3385
15190TIP3   OH267060   2.933   5.887  16.144  0.0396  0.7177  0.2052
15190TIP3    H167061   3.000   5.911  16.080  0.8333  0.8415  1.0658
15190TIP3    H267062   2.966   5.921  16.227  0.2878 -1.6194  1.1394
15191TIP3   OH267063   2.783   1.017  13.506  0.4339  0.3305 -0.2318
15191TIP3    H167064   2.825   0.944  13.460 -0.5470 -0.9357  0.7993
15191TIP3    H267065   2.690   1.004  13.490  0.2846  2.1238 -1.0779
15192TIP3   OH267066   1.007   5.779   3.587 -0.1348  0.1116  0.2449
15192TIP3    H167067   0.933   5.797   3.645 -0.2453  2.2905 -0.4925
15192TIP3    H267068   0.981   5.816   3.502  0.3976 -2.1866 -1.0148
15193TIP3   OH267069   1.825   5.111  16.036 -0.2768  0.1766 -0.9646
15193TIP3    H167070   1.734   5.101  16.064  0.1606 -0.6502  0.2289
15193TIP3    H267071   1.833   5.053  15.960 -0.5287 -0.4061 -0.5526
15194TIP3   OH267072   1.062   3.813  13.624  0.2620  0.5188  0.5794
15194TIP3    H167073   1.041   3.767  13.705 -0.9866 -0.0276 -0.0220
15194TIP3    H267074   0.985   3.868  13.608  0.4481  0.5328 -0.2904
15195TIP3   OH267075   6.264   6.525   0.514 -0.0604 -0.3612  0.8967
15195TIP3    H167076   6.177   6.547   0.479  0.2045  0.1314  0.5375
15195TIP3    H267077   6.249   6.448   0.568 -0.6139 -0.6881  0.2988
15196TIP3   OH267078   4.007   1.852   5.475 -0.1755  0.4399 -0.2228
15196TIP3    H167079   4.026   1.788   5.406 -0.0635  1.1435 -0.8578
15196TIP3    H267080   3.950   1.806   5.536  0.3658 -0.4454 -0.3760
15197TIP3   OH267081   3.168   0.661  14.769 -0.5101  0.3594 -0.2437
15197TIP3    H167082   3.162   0.650  14.864  1.6713  1.6397  0.1255
15197TIP3    H267083   3.077   0.668  14.739 -1.2912 -1.3440  1.5534
15198TIP3   OH267084   2.972   0.986  14.507 -0.1266 -0.3508  0.1738
15198TIP3    H167085   3.002   0.907  14.463  0.4660 -0.5173  0.8463
15198TIP3    H267086   2.974   0.964  14.600  0.6895  0.6517  0.4157
15199TIP3   OH267087   5.616   3.717   2.896 -0.7991  0.0424 -0.2472
15199TIP3    H167088   5.625   3.791   2.956 -0.5784 -1.0875  1.1646
15199TIP3    H267089   5.605   3.641   2.953  0.3352 -1.2040 -1.6032
15200TIP3   OH267090   2.324   2.567   1.062  0.6219 -0.7307  0.2734
15200TIP3    H167091   2.343   2.534   0.974  4.9863 -2.6338  1.6734
15200TIP3    H267092   2.376   2.647   1.069 -0.7456  0.1603  0.7812
15201TIP3   OH267093   0.956   2.729  15.638  0.2189 -0.0543 -0.2027
15201TIP3    H167094   0.933   2.691  15.723  2.2594  0.8291  0.8142
15201TIP3    H267095   1.042   2.692  15.618  0.2617  0.6161 -1.3545
15202TIP3   OH267096   4.438   3.125   3.362 -0.1425  0.6036 -0.6479
15202TIP3    H167097   4.366   3.071   3.393 -0.2480  1.2311  0.2247
15202TIP3    H267098   4.462   3.087   3.277 -0.0704 -0.9326  0.0395
15203TIP3   OH267099   1.949   2.791   1.525  0.0448 -0.5096  0.0254
15203TIP3    H167100   1.918   2.704   1.549 -0.4677 -0.3600 -0.0904
15203TIP3    H267101   2.042   2.778   1.503 -0.1882 -1.1543 -0.6349
15204TIP3   OH267102   6.587   3.603   6.092  0.3840  0.1850 -0.0414
15204TIP3    H167103   6.538   3.572   6.017  1.4901 -0.7740 -0.3937
15204TIP3    H267104   6.521   3.644   6.149 -0.7562 -0.8301 -0.5998
15205TIP3   OH267105   5.279   0.011  15.187 -0.0172 -0.1912 -0.8837
15205TIP3    H167106   5.240   0.003  15.100 -2.1999 -1.7324  0.1443
15205TIP3    H267107   5.212  -0.021  15.247  1.4569  0.6838  1.3971
15206TIP3   OH267108   0.602   3.888   5.309 -0.4094  0.1751 -0.3909
15206TIP3    H167109   0.662   3.814   5.306 -0.7299 -0.2222  1.5240
15206TIP3    H267110   0.515   3.849   5.298 -0.5754  0.2563  0.5746
15207TIP3   OH267111   5.311   4.929   1.255 -0.3336 -0.3858 -0.2645
15207TIP3    H167112   5.269   4.951   1.172  0.0417 -2.4320 -1.0412
15207TIP3    H267113   5.243   4.944   1.321 -1.4377 -1.1212 -1.2093
15208TIP3   OH267114   6.724   5.337  11.701 -0.6830  0.5034  0.0226
15208TIP3    H167115   6.789   5.295  11.645 -0.1388  2.2858 -0.7251
15208TIP3    H267116   6.653   5.363  11.642 -0.6558  1.3163  0.3320
15209TIP3   OH267117   4.419   3.803   3.422 -0.4182  0.5111 -0.1868
15209TIP3    H167118   4.437   3.880   3.368 -0.3428  2.0501  1.9042
15209TIP3    H267119   4.424   3.729   3.362  0.4492  2.0527 -2.0950
15210TIP3   OH267120   5.487   4.870   0.717  0.4520 -0.4554 -0.4865
15210TIP3    H167121   5.467   4.784   0.754  0.2991 -0.4471 -0.5496
15210TIP3    H267122   5.570   4.895   0.758 -1.5163  1.2715  2.8804
15211TIP3   OH267123   1.371   2.484  11.474  0.3572  0.1587 -0.5085
15211TIP3    H167124   1.318   2.408  11.453  0.5235 -0.1204  0.0673
15211TIP3    H267125   1.308   2.551  11.502  0.2961 -0.1182  0.0188
15212TIP3   OH267126   1.345   3.625   3.768 -0.3324 -0.1985  0.0989
15212TIP3    H167127   1.311   3.536   3.784 -0.5147 -0.0300  0.6686
15212TIP3    H267128   1.434   3.623   3.803 -0.1481 -0.3086 -0.3691
15213TIP3   OH267129   2.982   4.229  14.193 -1.3857 -0.3376  0.1746
15213TIP3    H167130   3.061   4.249  14.244 -0.5266  0.0433 -1.2601
15213TIP3    H267131   2.931   4.310  14.195  0.0176  0.7114 -1.9214
15214TIP3   OH267132   6.613   1.526  13.144  0.1394  0.0786 -0.4600
15214TIP3    H167133   6.613   1.431  13.135 -1.2556  0.0227 -0.0010
15214TIP3    H267134   6.521   1.550  13.155  0.4257  1.5298 -0.9873
15215TIP3   OH267135   2.761   2.173   4.323 -0.3313  0.2336  0.0436
15215TIP3    H167136   2.734   2.236   4.390 -0.0525  1.6140 -1.0777
15215TIP3    H267137   2.812   2.108   4.370  0.8965  1.8166  1.0104
15216TIP3   OH267138   3.277   2.779  13.126  0.7884 -0.2102  0.0845
15216TIP3    H167139   3.297   2.764  13.034  1.2365  0.2510  0.1028
15216TIP3    H267140   3.361   2.803  13.165  0.8780 -1.6459  0.8744
15217TIP3   OH267141   1.390   5.692  17.002  0.0344 -0.5442  0.1773
15217TIP3    H167142   1.439   5.625  17.050  1.0943 -0.0345 -0.1599
15217TIP3    H267143   1.439   5.773  17.017 -0.8653  0.0368  0.0456
15218TIP3   OH267144   1.364   2.921  14.238 -0.5761  0.2679 -0.1913
15218TIP3    H167145   1.460   2.915  14.234 -0.6637 -1.5058 -0.5108
15218TIP3    H267146   1.335   2.876  14.159 -1.6947  0.3656  0.1563
15219TIP3   OH267147   6.017   4.698  12.598 -0.5219 -0.9278  0.1241
15219TIP3    H167148   6.039   4.697  12.691  2.8797  0.5748 -0.5192
15219TIP3    H267149   5.924   4.719  12.596 -0.8405 -1.5137  3.1526
15220TIP3   OH267150   1.306   5.611   1.465 -0.1856  0.3760 -0.0011
15220TIP3    H167151   1.294   5.588   1.373 -0.2476 -1.0220  0.3357
15220TIP3    H267152   1.294   5.529   1.512  1.3254  0.7507  1.1373
15221TIP3   OH267153   5.035   0.408  16.553  0.1084  0.2306 -1.1768
15221TIP3    H167154   4.963   0.426  16.494 -0.8585  0.1044 -0.0789
15221TIP3    H267155   5.020   0.466  16.628  1.1348  0.1781 -0.9071
15222TIP3   OH267156   3.989   5.660   4.596 -0.6729  0.2394  1.0978
15222TIP3    H167157   4.055   5.602   4.635  0.0009  1.1422  1.3364
15222TIP3    H267158   4.039   5.717   4.537 -1.4521 -0.0183  0.1592
15223TIP3   OH267159   1.510   5.333   3.562  0.5035  0.1813  0.9232
15223TIP3    H167160   1.464   5.268   3.614  0.4300 -0.4950  0.0339
15223TIP3    H267161   1.441   5.390   3.527  0.4690  0.0575  0.7890
15224TIP3   OH267162   4.686   5.440  13.549  0.1727 -0.1502 -0.2671
15224TIP3    H167163   4.634   5.385  13.490 -2.4998  1.9147 -0.0317
15224TIP3    H267164   4.737   5.378  13.600 -2.5445 -2.4844 -0.1107
15225TIP3   OH267165   1.296   4.247  13.299  0.7483  0.4024  0.1692
15225TIP3    H167166   1.362   4.299  13.253  1.4213 -0.2786  0.3288
15225TIP3    H267167   1.322   4.156  13.282 -0.1430  0.1267  0.2600
15226TIP3   OH267168   1.777   6.393   3.039  0.5289  0.0214 -0.0980
15226TIP3    H167169   1.705   6.449   3.067  2.0311  1.7476  0.5165
15226TIP3    H267170   1.756   6.371   2.948 -0.9657  0.0976  0.1931
15227TIP3   OH267171   0.607   3.781  11.095  0.1155  0.1064 -0.0034
15227TIP3    H167172   0.589   3.687  11.096  0.8125 -0.1408 -2.8368
15227TIP3    H267173   0.542   3.819  11.155 -0.2099 -2.1241  1.1594
15228TIP3   OH267174   6.713   0.285  13.002 -0.0691 -0.6767 -0.2317
15228TIP3    H167175   6.729   0.202  12.956  1.0644 -0.1319 -0.8742
15228TIP3    H267176   6.622   0.307  12.982 -0.3971 -1.7891 -0.0011
15229TIP3   OH267177   5.298   3.654  15.469  0.3337  0.0790 -0.5503
15229TIP3    H167178   5.388   3.677  15.448  0.2399  2.4337  1.1184
15229TIP3    H267179   5.256   3.638  15.385  2.3892 -1.5965 -1.3156
15230TIP3   OH267180   6.291   6.570   2.535  0.3330 -0.1550  0.1358
15230TIP3    H167181   6.382   6.565   2.565  0.3603 -1.9549 -0.1664
15230TIP3    H267182   6.239   6.561   2.616  0.4333 -2.6913 -0.0026
15231TIP3   OH267183   3.286   2.065   0.907 -0.2649 -0.2137 -0.2587
15231TIP3    H167184   3.248   2.150   0.925  0.7458  0.5427 -1.5248
15231TIP3    H267185   3.223   2.022   0.848 -0.8714 -0.4344  0.5438
15232TIP3   OH267186   5.156   1.312   3.642  0.6127  0.5840 -0.1956
15232TIP3    H167187   5.216   1.296   3.715 -1.7402  0.0032  1.7502
15232TIP3    H267188   5.154   1.230   3.594  1.6778  0.7605 -0.5755
15233TIP3   OH267189   6.728   5.173  13.731 -0.0730 -0.3290  0.1092
15233TIP3    H167190   6.722   5.078  13.727 -0.6616 -0.3255  0.7289
15233TIP3    H267191   6.648   5.201  13.776  0.7053  0.3659  1.1205
15234TIP3   OH267192   6.535   5.739  16.827 -0.2756  0.5068 -0.0100
15234TIP3    H167193   6.514   5.728  16.734 -1.9349  0.4076  0.3402
15234TIP3    H267194   6.508   5.828  16.848  1.2940  0.9737  0.0953
15235TIP3   OH267195   0.364   6.632   0.264 -0.0181 -0.1807  0.0490
15235TIP3    H167196   0.397   6.720   0.279 -0.9054  0.1066  0.3446
15235TIP3    H267197   0.443   6.581   0.242  0.3736  0.9024 -1.2350
15236TIP3   OH267198   5.110   4.561  13.119 -0.2102 -0.2087  0.2169
15236TIP3    H167199   5.112   4.602  13.206  0.5546 -0.1679  0.1868
15236TIP3    H267200   5.181   4.497  13.121 -0.7413 -0.8231 -0.0915
15237TIP3   OH267201   6.024   0.633  16.269 -0.2449 -0.0055  0.6142
15237TIP3    H167202   5.986   0.593  16.190  1.4409 -0.0635 -0.2026
15237TIP3    H267203   5.967   0.604  16.340 -0.6621 -1.5906 -0.3209
15238TIP3   OH267204   2.483   2.139   5.617 -0.2656 -0.3472  0.8494
15238TIP3    H167205   2.576   2.120   5.603 -0.1678  0.4815  0.2970
15238TIP3    H267206   2.447   2.059   5.655  0.4904 -0.9860  0.2407
15239TIP3   OH267207   6.134   6.736   2.919 -0.1768 -0.2823 -0.7602
15239TIP3    H167208   6.153   6.825   2.890  2.9035  0.0570  1.7933
15239TIP3    H267209   6.040   6.737   2.939 -0.5729  1.8420 -2.3758
15240TIP3   OH267210   3.345   0.900   3.365 -0.1650  0.0352  0.0828
15240TIP3    H167211   3.436   0.884   3.341  0.1287 -2.2799  2.2904
15240TIP3    H267212   3.296   0.893   3.283  1.4640 -0.0203 -0.9237
15241TIP3   OH267213   0.614   1.976  14.280 -0.3031  0.2837  0.0004
15241TIP3    H167214   0.639   2.045  14.218 -0.3135 -0.5206 -0.9357
15241TIP3    H267215   0.697   1.936  14.306 -0.2601  0.9382  0.9119
15242TIP3   OH267216   5.845   2.808  12.676  0.2354 -0.1486 -0.0311
15242TIP3    H167217   5.801   2.741  12.728  2.1159 -1.8718 -0.5261
15242TIP3    H267218   5.913   2.843  12.734 -0.6885  1.3630  0.2025
15243TIP3   OH267219   5.234   2.903  14.480 -0.0417 -0.3269 -0.3598
15243TIP3    H167220   5.268   2.876  14.566 -1.0801 -0.8362 -0.0872
15243TIP3    H267221   5.231   2.998  14.485  3.1875 -0.0544 -1.1370
15244TIP3   OH267222   0.409   1.710   5.709  0.2904  0.0795 -0.7437
15244TIP3    H167223   0.483   1.664   5.749 -0.0557 -0.7783 -1.0741
15244TIP3    H267224   0.333   1.685   5.761  0.0378 -0.0354 -1.1647
15245TIP3   OH267225   6.275   3.496   5.600  0.7747  0.3452  0.0800
15245TIP3    H167226   6.313   3.509   5.687  0.2561  0.1229  0.3426
15245TIP3    H267227   6.243   3.405   5.600  0.8805  0.3010 -0.3863
15246TIP3   OH267228   4.564   4.161  15.529 -0.2010  0.3629 -0.4746
15246TIP3    H167229   4.639   4.121  15.484 -1.0885 -1.3694 -0.5167
15246TIP3    H267230   4.602   4.227  15.586  1.6026 -1.6655  0.8423
15247TIP3   OH267231   5.880   1.163   3.629  0.2930  0.0297  0.0770
15247TIP3    H167232   5.889   1.250   3.590 -1.0048 -0.8332 -2.3259
15247TIP3    H267233   5.959   1.116   3.602  0.7285  0.2538  0.9111
15248TIP3   OH267234   2.099   4.961  12.348 -0.8171  0.1018 -0.2674
15248TIP3    H167235   2.098   5.057  12.351  0.3221  0.1050  0.8368
15248TIP3    H267236   2.068   4.939  12.260  1.6033  1.5673 -1.5701
15249TIP3   OH267237   4.243   4.860  14.024 -0.2208 -0.2988  0.1494
15249TIP3    H167238   4.328   4.831  14.058  0.1347 -0.4347 -0.8171
15249TIP3    H267239   4.206   4.914  14.093  0.8109  0.0384  0.4448
15250TIP3   OH267240   5.727   6.205   1.393  0.1661  0.4934  0.4414
15250TIP3    H167241   5.706   6.143   1.464 -0.7911  0.3836  0.0805
15250TIP3    H267242   5.706   6.291   1.430 -0.1965  0.4480  0.3456
15251TIP3   OH267243   1.044   6.664   3.439  0.2568  0.4707 -0.7720
15251TIP3    H167244   1.036   6.578   3.482  1.7664  1.3027  1.3142
15251TIP3    H267245   0.954   6.697   3.436 -0.0325 -0.0662  0.8879
15252TIP3   OH267246   5.987   5.003  15.567 -0.2638 -0.5200  0.2908
15252TIP3    H167247   5.921   4.963  15.624  0.6662 -2.0090  0.3939
15252TIP3    H267248   6.070   4.983  15.610  0.2716  2.0976  0.6581
15253TIP3   OH267249   1.858   6.673  15.716 -0.1495  0.3662  0.9605
15253TIP3    H167250   1.919   6.688  15.788 -2.1197  0.5941  2.7038
15253TIP3    H267251   1.798   6.748  15.720 -1.2548 -0.4313  0.1326
15254TIP3   OH267252   5.681   4.801  12.886 -0.1769  0.5714 -0.3795
15254TIP3    H167253   5.745   4.856  12.933  0.1195 -0.9545  1.1063
15254TIP3    H267254   5.613   4.784  12.951  0.8982 -2.7209  0.0550
15255TIP3   OH267255   0.691   3.230  11.128 -0.0656  0.1044 -1.1458
15255TIP3    H167256   0.648   3.256  11.047 -1.5467 -0.3074 -0.5209
15255TIP3    H267257   0.740   3.308  11.155 -1.6315  1.1278 -1.1060
15256TIP3   OH267258   5.022   1.281  17.092 -0.1862  0.1109  0.0570
15256TIP3    H167259   5.052   1.365  17.057  1.0923 -1.3350 -2.6338
15256TIP3    H267260   4.984   1.236  17.016 -3.4167 -0.7587  1.9834
15257TIP3   OH267261   5.226   2.250  14.364  0.7228  0.8025 -0.2676
15257TIP3    H167262   5.239   2.302  14.284 -0.8753 -0.2234 -1.2476
15257TIP3    H267263   5.251   2.161  14.338  0.3702  0.4952  0.4392
15258TIP3   OH267264   4.909   4.071   5.560 -0.3116  0.2490 -0.8384
15258TIP3    H167265   4.946   4.130   5.495  0.0681  0.2691 -0.6029
15258TIP3    H267266   4.908   3.985   5.517 -2.4664  0.6992 -1.8311
15259TIP3   OH267267   3.002   0.790   5.443 -0.2447  0.1552 -0.1989
15259TIP3    H167268   3.037   0.704   5.467 -2.3271 -1.0416 -1.1815
15259TIP3    H267269   3.079   0.844   5.430  1.1424 -1.5858  0.3320
15260TIP3   OH267270   1.451   4.144   5.736  0.2104  0.1224  0.2299
15260TIP3    H167271   1.489   4.211   5.794  1.5488  0.0996 -0.5968
15260TIP3    H267272   1.474   4.061   5.777 -0.1275  0.1275  0.4379
15261TIP3   OH267273   6.726   3.114  14.241 -0.1678 -0.1426 -0.6688
15261TIP3    H167274   6.724   3.144  14.332  0.0990 -0.6771 -0.4812
15261TIP3    H267275   6.815   3.135  14.210  0.7570 -2.5483  0.1150
15262TIP3   OH267276   5.596   1.337  16.846  0.3983  0.2544 -0.2489
15262TIP3    H167277   5.596   1.286  16.926  0.8229 -1.6572 -1.4009
15262TIP3    H267278   5.626   1.424  16.872  1.8351 -0.6860  1.4399
15263TIP3   OH267279   1.546   0.839  12.711 -0.2264  0.1183 -0.0037
15263TIP3    H167280   1.468   0.883  12.676 -1.2289 -0.8851  0.9186
15263TIP3    H267281   1.572   0.894  12.785 -0.2033  0.3186 -0.1570
15264TIP3   OH267282   3.217   1.865   5.683  0.7688 -0.6707 -0.2347
15264TIP3    H167283   3.154   1.856   5.754 -0.8126 -0.5291 -1.5737
15264TIP3    H267284   3.302   1.845   5.724 -0.0141 -0.0782  1.7844
15265TIP3   OH267285   5.084   0.704   5.075  0.4290 -0.1909  0.3596
15265TIP3    H167286   5.053   0.743   5.157 -1.1411 -0.9580  0.1675
15265TIP3    H267287   5.165   0.659   5.099  1.0598  1.2434  1.0557
15266TIP3   OH267288   3.030   3.128   5.172  0.2174  0.0209 -0.3130
15266TIP3    H167289   2.974   3.067   5.122 -1.3821  1.7132 -0.7238
15266TIP3    H267290   3.049   3.082   5.253 -0.0322 -1.4373 -1.0379
15267TIP3   OH267291   3.338   3.677   2.491 -0.3163 -1.1016 -0.0152
15267TIP3    H167292   3.400   3.612   2.459  2.5365  0.9249  0.9967
15267TIP3    H267293   3.327   3.655   2.584  0.6164 -0.2418  0.3171
15268TIP3   OH267294   4.170   3.370   2.745  0.1933 -0.6180  0.0154
15268TIP3    H167295   4.261   3.400   2.745 -0.1090  0.3972  1.4445
15268TIP3    H267296   4.128   3.419   2.674  0.5820 -0.5329 -0.1559
15269TIP3   OH267297   5.486   3.397  16.414 -0.1384 -0.2996 -0.0744
15269TIP3    H167298   5.419   3.463  16.397 -1.1771 -1.0231  1.0668
15269TIP3    H267299   5.477   3.376  16.507  1.3404 -0.7917 -0.0139
15270TIP3   OH267300   4.906   6.569  10.255 -0.1137  0.1089  0.4838
15270TIP3    H167301   4.957   6.491  10.275 -0.0156 -0.0047 -0.1931
15270TIP3    H267302   4.951   6.610  10.181  1.7637  2.6290  2.8387
15271TIP3   OH267303   5.461   1.607  11.906 -0.5317 -0.3876 -0.4361
15271TIP3    H167304   5.433   1.557  11.830  4.0746  0.7745 -3.3565
15271TIP3    H267305   5.479   1.695  11.872 -0.4432  0.8863  2.5584
15272TIP3   OH267306   4.114   3.215   1.648 -0.7231  0.3201 -0.4072
15272TIP3    H167307   4.061   3.290   1.677  0.5907  1.7741 -1.6113
15272TIP3    H267308   4.050   3.146   1.630 -1.8949  0.7133  1.8383
15273TIP3   OH267309   6.039   4.679  12.878 -0.0913 -0.2307 -0.0718
15273TIP3    H167310   6.094   4.601  12.887  0.8854  0.5263  0.7131
15273TIP3    H267311   6.036   4.716  12.966 -2.3464 -0.5391  0.0377
15274TIP3   OH267312   3.750   5.520   4.596 -0.0668 -0.1500  0.2775
15274TIP3    H167313   3.834   5.562   4.579  0.0012 -0.4260 -0.0697
15274TIP3    H267314   3.739   5.525   4.691  1.1883 -1.6992  0.5404
15275TIP3   OH267315   0.266   2.384   4.042  0.5328 -0.3829 -0.2877
15275TIP3    H167316   0.237   2.303   4.000 -0.2720  0.9704 -2.4736
15275TIP3    H267317   0.195   2.405   4.103  0.5578 -1.0913 -0.0033
15276TIP3   OH267318   3.787   4.140   0.039  0.3526  0.4096 -0.2761
15276TIP3    H167319   3.861   4.192   0.007 -1.5412  2.2877 -1.9036
15276TIP3    H267320   3.735   4.201   0.091 -0.4787 -0.6671  0.2146
15277TIP3   OH267321   0.274   6.067  13.096  0.0059  0.1494  1.2483
15277TIP3    H167322   0.287   6.159  13.072  0.5250 -0.1163  0.4505
15277TIP3    H267323   0.274   6.021  13.012 -0.4815 -0.5507  1.6320
15278TIP3   OH267324   2.355   5.606   4.667  0.3467  0.1208 -0.2614
15278TIP3    H167325   2.387   5.606   4.757 -0.4176  1.4995  0.0476
15278TIP3    H267326   2.353   5.699   4.643  1.7165 -0.2873 -2.1428
15279TIP3   OH267327   0.876   1.887   0.012  0.1332 -0.0963  0.7809
15279TIP3    H167328   0.828   1.837   0.078  1.1282 -2.2660 -0.0460
15279TIP3    H267329   0.960   1.842   0.005  0.1134  0.1596 -1.8652
15280TIP3   OH267330   1.992   4.699  11.219  0.2092 -0.1697  0.8185
15280TIP3    H167331   1.980   4.728  11.128 -2.4637  1.2011  1.5319
15280TIP3    H267332   2.041   4.617  11.211  0.0910 -0.0673 -1.8514
15281TIP3   OH267333   0.752   1.942  17.019 -0.2888 -0.6826 -0.0638
15281TIP3    H167334   0.746   2.028  16.977  2.8205 -0.2474  0.1957
15281TIP3    H267335   0.765   1.961  17.112 -1.1013 -1.5163  0.2420
15282TIP3   OH267336   1.224   3.443   4.859 -0.0783  0.2789  0.4017
15282TIP3    H167337   1.225   3.363   4.912  1.1405  1.0481  1.6155
15282TIP3    H267338   1.300   3.434   4.801  1.2795  1.3756  1.9182
15283TIP3   OH267339   3.672   1.147   1.463  0.5006 -0.1492  0.0825
15283TIP3    H167340   3.722   1.114   1.387  1.7162  1.5053  0.1006
15283TIP3    H267341   3.696   1.087   1.534  0.6685 -0.7292 -0.4441
15284TIP3   OH267342   2.705   1.107   5.706 -0.0106 -0.0819  0.4531
15284TIP3    H167343   2.773   1.082   5.643 -0.5415 -0.6773  0.1022
15284TIP3    H267344   2.753   1.143   5.780  0.8428 -2.6498  1.2298
15285TIP3   OH267345   1.549   5.551  16.681 -0.3642 -0.4161 -0.2279
15285TIP3    H167346   1.619   5.617  16.675 -0.3930 -0.3315  0.3420
15285TIP3    H267347   1.594   5.470  16.703 -0.4426 -0.3667  0.1162
15286TIP3   OH267348   6.719   0.977  12.948 -0.3838  0.6299  0.1599
15286TIP3    H167349   6.736   1.060  12.904 -1.9576  0.5316 -0.6985
15286TIP3    H267350   6.721   0.999  13.041 -1.8228  1.8912 -0.0621
15287TIP3   OH267351   4.596   4.378  11.309  0.2998 -0.0221 -0.2568
15287TIP3    H167352   4.663   4.310  11.307  1.6235  1.2268 -2.3452
15287TIP3    H267353   4.547   4.365  11.228 -1.2425 -0.1262  0.6447
15288TIP3   OH267354   0.807   1.248  12.728 -0.2031 -0.1238  0.4172
15288TIP3    H167355   0.900   1.248  12.703 -0.5480 -1.9332 -1.0773
15288TIP3    H267356   0.793   1.162  12.767 -1.4313 -0.1797 -0.1175
15289TIP3   OH267357   1.742   6.127   3.858  0.4696  0.0764  0.1608
15289TIP3    H167358   1.698   6.115   3.773 -1.2345 -0.1790  1.0291
15289TIP3    H267359   1.776   6.040   3.879  0.2086 -0.0444  0.0950
15290TIP3   OH267360   1.293   3.627  16.549  0.2959 -0.0944  0.0255
15290TIP3    H167361   1.374   3.630  16.499  0.0230  0.4147 -0.3874
15290TIP3    H267362   1.287   3.536  16.578  0.6245 -0.3139 -0.5793
15291TIP3   OH267363   4.223   0.764   5.084 -0.2767 -0.4334  0.4406
15291TIP3    H167364   4.157   0.725   5.028  0.0825  0.4438 -0.6304
15291TIP3    H267365   4.175   0.826   5.139 -0.5219 -0.7157  0.5431
15292TIP3   OH267366   1.272   6.761   0.604  0.0727  0.1318  0.1437
15292TIP3    H167367   1.365   6.738   0.615  0.3360  1.6530  1.6748
15292TIP3    H267368   1.272   6.828   0.537  0.2035  0.6817  0.6807
15293TIP3   OH267369   3.916   4.632  11.691 -0.4474 -0.0511  0.0016
15293TIP3    H167370   3.951   4.595  11.772 -0.4487 -0.0447  0.0052
15293TIP3    H267371   3.881   4.717  11.716 -0.8721 -0.2488  0.0856
15294TIP3   OH267372   5.734   3.170   4.049 -0.4347 -0.3138  0.3640
15294TIP3    H167373   5.765   3.200   4.135  0.8508  0.4340 -0.3262
15294TIP3    H267374   5.753   3.243   3.990  0.0116 -1.3483 -0.8150
15295TIP3   OH267375   3.074   2.387   1.219 -0.2812 -0.3557  0.1086
15295TIP3    H167376   3.021   2.452   1.266 -1.9427 -2.6226  1.5953
15295TIP3    H267377   3.164   2.408   1.243 -0.6875  1.7615  0.0026
15296TIP3   OH267378   3.138   5.327   2.375  0.2316  0.0425 -0.1506
15296TIP3    H167379   3.214   5.383   2.353 -0.5046  1.1041 -0.0856
15296TIP3    H267380   3.159   5.293   2.462  0.2109  1.1178  0.2920
15297TIP3   OH267381   4.469   1.130   1.435  0.7114  0.0969  0.2508
15297TIP3    H167382   4.433   1.058   1.487 -1.2136  1.6254  1.1708
15297TIP3    H267383   4.403   1.147   1.368  0.9636  1.1809  0.2512
15298TIP3   OH267384   1.662   5.706   1.688  0.5185 -0.6634 -0.1633
15298TIP3    H167385   1.724   5.762   1.642  0.2867 -0.2854 -0.0257
15298TIP3    H267386   1.671   5.731   1.780 -0.2887 -0.1384 -0.2082
15299TIP3   OH267387   3.090   6.185   1.313  0.5109 -1.0947 -0.1038
15299TIP3    H167388   3.064   6.107   1.361 -0.5707  0.0431  1.2660
15299TIP3    H267389   3.023   6.195   1.246  0.1845 -0.9170  0.2419
15300TIP3   OH267390   1.187   6.332  16.675  0.0690  0.4834  0.4382
15300TIP3    H167391   1.195   6.239  16.654 -1.7716  0.8183 -2.3035
15300TIP3    H267392   1.241   6.377  16.609 -0.3942  1.4166  0.6708
15301TIP3   OH267393   4.231   6.466  15.728  0.1517  0.4010 -0.5580
15301TIP3    H167394   4.232   6.518  15.647  0.9299 -0.6006 -1.2143
15301TIP3    H267395   4.319   6.429  15.733 -0.4805 -1.1293 -0.2851
15302TIP3   OH267396   2.063   5.464   1.084 -0.0933 -0.2103  0.3357
15302TIP3    H167397   2.014   5.545   1.099 -0.8222 -0.5063 -0.3442
15302TIP3    H267398   1.997   5.403   1.050  0.7592 -0.6123 -0.6341
15303TIP3   OH267399   5.655   3.832  15.867 -0.0249 -0.2265 -0.1573
15303TIP3    H167400   5.722   3.899  15.854 -0.8079  0.0038 -4.9593
15303TIP3    H267401   5.702   3.749  15.860  0.3320 -0.2033  1.4890
15304TIP3   OH267402   2.594   4.466  15.292  0.1725  0.1724  0.3701
15304TIP3    H167403   2.685   4.452  15.317  1.1652  1.0019 -2.3260
15304TIP3    H267404   2.559   4.378  15.277  1.0561 -0.1026 -0.1409
15305TIP3   OH267405   1.162   0.279   3.422 -0.3222 -0.4995 -0.8956
15305TIP3    H167406   1.084   0.270   3.367 -1.3578  2.0625 -0.0144
15305TIP3    H267407   1.139   0.235   3.504 -1.6822  1.7526  0.0384
15306TIP3   OH267408   0.912   1.079  14.530  0.3755 -0.3837 -0.4365
15306TIP3    H167409   0.824   1.050  14.506  0.5521 -1.9660  0.6358
15306TIP3    H267410   0.968   1.003  14.510  1.1357 -0.2277  0.9514
15307TIP3   OH267411   0.849   4.972   5.967  0.1566  0.2736 -0.6236
15307TIP3    H167412   0.807   4.985   6.052  1.6001  0.3435  0.0944
15307TIP3    H267413   0.791   4.911   5.921 -0.9051  0.6259  0.2016
15308TIP3   OH267414   3.638   3.796   2.133 -0.4027 -0.3320  0.4191
15308TIP3    H167415   3.728   3.806   2.164 -0.0946 -0.4838 -0.3781
15308TIP3    H267416   3.635   3.848   2.052 -0.6583 -1.3448 -0.2399
15309TIP3   OH267417   3.691   2.209  11.667 -0.1515 -0.4528  0.4372
15309TIP3    H167418   3.684   2.179  11.576 -0.0497  0.1654  0.2235
15309TIP3    H267419   3.785   2.224  11.680 -0.4502  3.0025 -0.5383
15310TIP3   OH267420   1.805   6.760   0.027 -0.2972  0.5418  0.0150
15310TIP3    H167421   1.731   6.710  -0.008  1.0065 -0.1643 -1.8754
15310TIP3    H267422   1.866   6.694   0.059 -0.1839  1.1020  1.0252
15311TIP3   OH267423   6.346   1.934  15.873  0.8549  0.1662  0.2777
15311TIP3    H167424   6.429   1.980  15.858  0.9596  0.1700  0.8444
15311TIP3    H267425   6.323   1.957  15.963  1.5433 -1.9020  1.0297
15312TIP3   OH267426   3.642   5.536   0.962 -0.2966 -0.5382 -0.1783
15312TIP3    H167427   3.551   5.566   0.966 -0.2985 -0.5582 -0.0706
15312TIP3    H267428   3.680   5.562   1.045 -0.1256 -0.2816 -0.3346
15313TIP3   OH267429   4.683   3.498  13.528 -0.0589  0.7097 -0.2012
15313TIP3    H167430   4.732   3.580  13.525  0.2353  0.5529  0.2569
15313TIP3    H267431   4.689   3.470  13.619  2.4911 -1.3930 -0.8866
15314TIP3   OH267432   2.459   5.894  17.049 -0.7951  0.3899 -0.2654
15314TIP3    H167433   2.460   5.859  17.138 -0.6520  0.7479 -0.1206
15314TIP3    H267434   2.446   5.818  16.993  2.8123 -0.4910 -0.2071
15315TIP3   OH267435   2.384   1.717  16.695  0.5206 -0.0404 -0.1610
15315TIP3    H167436   2.291   1.725  16.717  0.0809 -0.6267 -1.6543
15315TIP3    H267437   2.429   1.761  16.766 -0.7868 -1.3994  1.6207
15316TIP3   OH267438   6.415   0.476   0.335  0.3586  0.5899  0.0082
15316TIP3    H167439   6.483   0.538   0.361 -1.3032  1.4129  2.9530
15316TIP3    H267440   6.385   0.438   0.418 -2.2986 -0.2151 -1.2148
15317TIP3   OH267441   6.071   4.046  12.475 -0.4973 -0.1436  0.4972
15317TIP3    H167442   6.137   3.977  12.462  0.5118  0.7695  0.5683
15317TIP3    H267443   6.092   4.111  12.408  0.3767  1.4033  2.1974
15318TIP3   OH267444   0.505   5.543  14.263 -0.0707  0.1111  0.2420
15318TIP3    H167445   0.481   5.587  14.181 -0.1605 -0.0097  0.2024
15318TIP3    H267446   0.531   5.614  14.322  1.3211  0.1062 -0.3249
15319TIP3   OH267447   1.956   0.078  12.787  0.4864 -0.1030  0.6120
15319TIP3    H167448   1.938   0.127  12.868  0.6072 -0.4907  0.8767
15319TIP3    H267449   2.048   0.052  12.795  0.2427 -0.9244  0.7704
15320TIP3   OH267450   6.236   1.437   2.332 -0.1324 -0.0153  0.8817
15320TIP3    H167451   6.230   1.449   2.237  0.9078 -1.0099  0.6673
15320TIP3    H267452   6.245   1.526   2.366 -2.9396  0.5968  0.3031
15321TIP3   OH267453   0.762   2.103   0.663  0.6561  0.4887 -0.1727
15321TIP3    H167454   0.787   2.015   0.691  0.6760  0.7938  0.8113
15321TIP3    H267455   0.837   2.133   0.611  0.0592 -0.5831 -1.7126
15322TIP3   OH267456   1.546   6.386   3.825 -0.2104 -0.2985 -0.2596
15322TIP3    H167457   1.599   6.311   3.851  1.2179  0.2407 -1.5209
15322TIP3    H267458   1.555   6.391   3.730  2.0346  3.0476 -0.0365
15323TIP3   OH267459   6.017   0.533  14.462 -0.1549 -0.4930  0.1120
15323TIP3    H167460   6.111   0.547  14.447 -0.3913  0.5342 -0.5294
15323TIP3    H267461   5.992   0.468  14.397 -0.1766  0.3552 -0.7609
15324TIP3   OH267462   4.099   6.726   1.080  0.2476  0.1096 -0.2556
15324TIP3    H167463   4.152   6.647   1.073  2.2681  1.2571  0.8869
15324TIP3    H267464   4.131   6.769   1.160 -0.7645  2.0612 -0.8238
15325TIP3   OH267465   2.220   2.091   1.943  0.1626  0.3772 -0.5154
15325TIP3    H167466   2.183   2.154   1.881  0.7784  0.3423 -0.9255
15325TIP3    H267467   2.271   2.032   1.889 -1.2545 -1.1446 -0.2851
15326TIP3   OH267468   6.258   3.042  13.164  0.3128 -0.2839  0.3253
15326TIP3    H167469   6.215   3.126  13.144  0.5705  0.2273  1.8012
15326TIP3    H267470   6.185   2.981  13.177  0.1098 -0.8636 -2.7338
15327TIP3   OH267471   1.495   6.014   3.349 -0.3043  0.6463  0.5653
15327TIP3    H167472   1.410   6.049   3.374 -0.3861  1.3967 -0.6767
15327TIP3    H267473   1.513   6.053   3.263  1.9580  1.6848  1.4311
15328TIP3   OH267474   5.819   3.935   0.635 -0.7534 -0.1444  0.3998
15328TIP3    H167475   5.786   3.919   0.546  0.5929 -0.4228 -0.0713
15328TIP3    H267476   5.803   3.853   0.681 -1.2692 -0.0712  0.3504
15329TIP3   OH267477   5.998   4.617   2.902 -0.1513  0.1476 -0.1795
15329TIP3    H167478   6.034   4.554   2.839  1.0627 -0.0896  0.7182
15329TIP3    H267479   5.906   4.593   2.910 -1.0014  1.6182 -3.5868
15330TIP3   OH267480   5.295   2.498  11.637 -0.3501 -0.1325 -0.0591
15330TIP3    H167481   5.296   2.403  11.625 -0.7150 -0.0666 -0.6166
15330TIP3    H267482   5.229   2.530  11.575  0.5946  0.5944 -0.7141
15331TIP3   OH267483   4.389   5.252   3.354  0.0354 -0.3803  0.2950
15331TIP3    H167484   4.417   5.214   3.271 -1.3895 -2.2335  0.5909
15331TIP3    H267485   4.434   5.336   3.359 -0.3596  0.0931 -2.6828
15332TIP3   OH267486   2.902   0.712  12.323  0.8386  0.1215  0.4808
15332TIP3    H167487   2.930   0.681  12.409  2.6778 -0.8304 -0.4137
15332TIP3    H267488   2.927   0.642  12.263 -1.7519  0.0840 -0.6868
15333TIP3   OH267489   3.598   1.799   3.065  0.3380 -0.1418 -0.1666
15333TIP3    H167490   3.521   1.839   3.024  0.7432 -0.1449 -0.9431
15333TIP3    H267491   3.593   1.707   3.041 -1.3003 -0.9464  2.6785
15334TIP3   OH267492   4.543   4.175  14.469 -0.3514  0.2739 -0.8397
15334TIP3    H167493   4.554   4.084  14.442 -0.6107 -0.1323  0.3712
15334TIP3    H267494   4.629   4.202  14.501 -0.6835 -0.1409  0.4832
15335TIP3   OH267495   1.906   4.066  16.521  0.4723  0.2325  0.0630
15335TIP3    H167496   1.823   4.110  16.540  1.0473  0.9583  1.0270
15335TIP3    H267497   1.948   4.122  16.456  0.5268  0.2862  0.1418
15336TIP3   OH267498   5.158   5.846   4.163 -0.1053 -0.0444 -0.2987
15336TIP3    H167499   5.241   5.799   4.171  0.3482  0.8335  0.3116
15336TIP3    H267500   5.097   5.796   4.217  0.1860 -0.3421 -0.2393
15337TIP3   OH267501   3.371   1.403  17.121 -0.1673  0.4971  0.0125
15337TIP3    H167502   3.419   1.482  17.147 -2.1071  2.5660 -2.2247
15337TIP3    H267503   3.285   1.413  17.162 -0.5408 -0.2878 -0.5635
15338TIP3   OH267504   5.416   0.144  11.163  0.3498 -0.0600  0.3380
15338TIP3    H167505   5.511   0.128  11.169 -0.1256 -3.6136  0.5167
15338TIP3    H267506   5.377   0.066  11.203 -2.6919  1.4714  0.5817
15339TIP3   OH267507   4.763   1.299  13.225  0.2274  0.3026  0.0665
15339TIP3    H167508   4.714   1.253  13.293 -0.2567  0.0913 -0.4234
15339TIP3    H267509   4.728   1.388  13.226 -1.0688 -0.1620 -1.1259
15340TIP3   OH267510   6.406   3.883   2.747 -0.2524  0.2733  0.0715
15340TIP3    H167511   6.313   3.887   2.770 -0.3993 -0.4492 -0.3844
15340TIP3    H267512   6.408   3.891   2.652  0.0807 -0.7014 -0.0113
15341TIP3   OH267513   2.614   6.540  15.866  0.3300  0.0770  0.0511
15341TIP3    H167514   2.585   6.630  15.880  1.0561  0.1790  1.0053
15341TIP3    H267515   2.545   6.486  15.904 -1.3269  0.0851 -2.6375
15342TIP3   OH267516   5.152   6.025   0.900  0.0234 -0.3259 -0.1853
15342TIP3    H167517   5.065   6.006   0.936 -0.6409  2.1690 -0.3247
15342TIP3    H267518   5.148   5.994   0.810 -0.8461  0.0498 -0.2848
15343TIP3   OH267519   5.732   1.019  14.901 -0.2713  0.1410  0.1550
15343TIP3    H167520   5.659   1.027  14.840 -0.5772  2.2908  0.7273
15343TIP3    H267521   5.700   1.056  14.983  0.6169 -1.3353  1.2055
15344TIP3   OH267522   2.089   4.387  14.453  0.2192  1.2073  0.0713
15344TIP3    H167523   2.054   4.463  14.407  0.2900  0.4215 -1.3344
15344TIP3    H267524   2.162   4.422  14.504 -0.8795  2.3819  0.9113
15345TIP3   OH267525   4.791   2.958  16.470  0.1716  0.2587  0.3223
15345TIP3    H167526   4.840   2.876  16.460  1.3331  0.9249  0.3743
15345TIP3    H267527   4.724   2.938  16.535  0.8672 -0.4866  0.8333
15346TIP3   OH267528   6.098   6.697   1.278 -0.6026  0.1102  0.6729
15346TIP3    H167529   6.098   6.769   1.215 -0.5385  0.9678  1.6219
15346TIP3    H267530   6.049   6.627   1.235 -2.0747  1.2859  0.3573
15347TIP3   OH267531   6.517   2.779  16.970  0.2058 -0.4714 -0.1773
15347TIP3    H167532   6.492   2.733  16.890  0.0973  1.1044 -1.0857
15347TIP3    H267533   6.442   2.835  16.990  0.6539 -0.0896  0.4612
15348TIP3   OH267534   2.282   6.341   0.577 -0.6751  0.2506  0.4546
15348TIP3    H167535   2.207   6.314   0.631 -0.9933  0.9406  0.3640
15348TIP3    H267536   2.325   6.409   0.629  0.4493 -0.7805  0.9318
15349TIP3   OH267537   4.466   1.366  14.282 -0.4809 -0.8948 -0.1116
15349TIP3    H167538   4.557   1.387  14.260 -1.2841  0.8931 -2.1251
15349TIP3    H267539   4.455   1.275  14.254  0.5280 -0.9210 -0.4545
15350TIP3   OH267540   6.633   0.159  16.172 -0.2501  0.4263 -0.0362
15350TIP3    H167541   6.607   0.233  16.117 -0.5713  1.7343  1.8003
15350TIP3    H267542   6.692   0.108  16.116  2.3111  3.5780 -0.5354
15351TIP3   OH267543   3.948   1.049  14.016 -0.0410  0.0357 -0.2159
15351TIP3    H167544   3.946   1.116  13.947  0.6672  0.9821  0.6592
15351TIP3    H267545   3.856   1.038  14.042 -0.6803 -1.9631 -2.7745
15352TIP3   OH267546   3.704   3.194  11.796  0.0396  0.4853  0.0863
15352TIP3    H167547   3.786   3.234  11.769  2.1297 -3.6319 -0.5116
15352TIP3    H267548   3.669   3.155  11.716 -0.2309 -1.3499  1.0449
15353TIP3   OH267549   4.330   2.056   3.060 -0.0122  0.3342 -0.2620
15353TIP3    H167550   4.395   2.109   3.106  0.4010 -0.7987  0.4921
15353TIP3    H267551   4.314   1.982   3.118 -0.3996 -0.4955 -1.3889
15354TIP3   OH267552   3.047   2.194  11.367 -0.5226 -0.0924  0.4551
15354TIP3    H167553   3.045   2.223  11.458 -0.2332 -0.1567  0.4834
15354TIP3    H267554   3.113   2.124  11.365 -1.4089 -0.9529  0.4460
15355TIP3   OH267555   2.553   6.189  15.157  0.3168  0.6523 -0.2319
15355TIP3    H167556   2.459   6.198  15.147  0.1554 -0.9129 -0.2773
15355TIP3    H267557   2.565   6.118  15.219  1.4726  0.8307 -0.2229
15356TIP3   OH267558   4.824   6.323  12.155 -0.0385 -0.2641  0.0677
15356TIP3    H167559   4.834   6.251  12.218 -1.2365  1.3819  2.2726
15356TIP3    H267560   4.912   6.334  12.118  0.2888 -2.4930  0.0167
15357TIP3   OH267561   4.228   4.069  14.970  0.5741 -0.4924 -0.4930
15357TIP3    H167562   4.254   4.143  14.914  0.6007 -1.0423 -1.2325
15357TIP3    H267563   4.219   3.996  14.909 -2.7242 -0.3782 -0.3476
15358TIP3   OH267564   3.145   3.983   5.433  0.3978  0.4226 -0.4257
15358TIP3    H167565   3.201   4.002   5.358  2.1735 -3.0370 -0.2294
15358TIP3    H267566   3.207   3.973   5.506 -1.0882  1.7311  1.0954
15359TIP3   OH267567   2.507   3.856  15.821 -0.0104 -0.1987  0.1363
15359TIP3    H167568   2.453   3.859  15.742  0.9744 -1.9152 -0.6520
15359TIP3    H267569   2.560   3.936  15.817  0.0267 -0.2658 -0.9365
15360TIP3   OH267570   6.656   1.806  15.839 -0.0800 -0.9293 -0.0836
15360TIP3    H167571   6.744   1.767  15.838 -0.9229 -2.9545 -0.7617
15360TIP3    H267572   6.614   1.771  15.760 -1.7208 -0.5658  0.5944
15361TIP3   OH267573   2.720   0.171  12.392 -0.1545  0.2285 -0.6204
15361TIP3    H167574   2.637   0.217  12.381 -1.7064 -2.3653 -0.5872
15361TIP3    H267575   2.714   0.132  12.479  0.6096 -0.8914 -1.0548
15362TIP3   OH267576   0.003   1.647   2.279  0.3124 -0.2411  0.5991
15362TIP3    H167577  -0.064   1.586   2.311 -0.5388  0.6087  0.4783
15362TIP3    H267578   0.066   1.591   2.233 -0.1442 -1.0973  0.9864
15363TIP3   OH267579   3.549   2.960  15.820 -0.0904 -0.4319  0.3810
15363TIP3    H167580   3.491   2.935  15.747 -0.4667  1.5291 -0.0570
15363TIP3    H267581   3.520   3.047  15.844  1.1647 -0.3608  1.7738
15364TIP3   OH267582   5.133   6.175  15.441  0.2475 -0.4735 -0.1843
15364TIP3    H167583   5.201   6.177  15.507  1.0469  1.0701 -1.0017
15364TIP3    H267584   5.137   6.086  15.405  2.1620 -0.2832 -0.5311
15365TIP3   OH267585   3.612   1.694  15.650  0.2580 -0.2297  0.0536
15365TIP3    H167586   3.698   1.663  15.679 -0.1758 -0.7884  0.7903
15365TIP3    H267587   3.615   1.686  15.555  1.0814 -0.0702  0.0557
15366TIP3   OH267588   5.348   0.183   3.642  0.6446  0.0827 -0.2272
15366TIP3    H167589   5.359   0.169   3.736  2.2478 -1.3544 -0.5613
15366TIP3    H267590   5.432   0.156   3.604  0.0745  0.7232 -2.0686
15367TIP3   OH267591   3.249   4.726  16.211 -0.3121  0.5915  0.0166
15367TIP3    H167592   3.173   4.677  16.243  0.9914 -0.3619  1.8992
15367TIP3    H267593   3.240   4.726  16.116 -1.3171 -1.7794  0.0526
15368TIP3   OH267594   4.075   0.491   2.670 -0.0679  0.5769  0.2288
15368TIP3    H167595   4.120   0.413   2.703 -0.5825 -0.1181 -0.6584
15368TIP3    H267596   4.074   0.551   2.745  2.0783  0.5425  0.3514
15369TIP3   OH267597   0.265   3.828   4.014 -0.8640  0.0414  0.2205
15369TIP3    H167598   0.285   3.738   3.990 -0.5157  0.5832 -1.6393
15369TIP3    H267599   0.350   3.867   4.036 -1.2220 -0.6476  3.4214
15370TIP3   OH267600   2.799   4.795  15.865 -0.0270 -0.2634 -0.5689
15370TIP3    H167601   2.722   4.796  15.808 -0.3381 -0.4126 -0.1557
15370TIP3    H267602   2.825   4.703  15.867 -1.3585 -0.6645  1.2929
15371TIP3   OH267603   6.480   2.684  13.732 -0.5294 -0.4184  0.5274
15371TIP3    H167604   6.479   2.725  13.818  2.5569  0.1327  0.4344
15371TIP3    H267605   6.476   2.757  13.670 -1.5131 -0.7299  0.2079
15372TIP3   OH267606   3.012   0.118  11.628  0.1248  0.7990 -0.0389
15372TIP3    H167607   3.087   0.160  11.585  1.4543 -1.6943 -0.3894
15372TIP3    H267608   3.015   0.151  11.718  2.5962 -0.2506  0.3525
15373TIP3   OH267609   2.533   6.156  11.388  0.3072  0.6807  0.0846
15373TIP3    H167610   2.499   6.109  11.464  1.3658  1.0810  0.8268
15373TIP3    H267611   2.465   6.146  11.321  0.0161 -0.9447  0.5821
15374TIP3   OH267612   6.547   2.905  11.376 -0.3067 -0.3556 -0.3918
15374TIP3    H167613   6.595   2.984  11.400 -1.0201 -0.1510  0.4417
15374TIP3    H267614   6.476   2.899  11.441 -0.8639 -1.1319 -1.0383
15375TIP3   OH267615   5.953   6.053   3.147  0.5152  0.5034  0.3675
15375TIP3    H167616   5.908   6.122   3.099  0.1383  0.6498  0.9158
15375TIP3    H267617   5.994   6.099   3.221 -0.0066  0.1063  0.9180
15376TIP3   OH267618   0.275   2.690   3.091 -0.2399 -0.4006  0.0047
15376TIP3    H167619   0.291   2.721   3.180  0.2736  0.4862 -0.3883
15376TIP3    H267620   0.209   2.621   3.101  0.8226 -1.2677  1.2132
15377TIP3   OH267621   0.666   2.369  12.763  0.3296 -0.1007 -0.2791
15377TIP3    H167622   0.632   2.280  12.771 -0.0479  0.0629 -0.0285
15377TIP3    H267623   0.666   2.403  12.852  0.2505  0.2317 -0.4030
15378TIP3   OH267624   2.525   1.389  16.462  0.7470  0.3194  0.7894
15378TIP3    H167625   2.488   1.416  16.547  1.1705  1.8165  0.5300
15378TIP3    H267626   2.457   1.411  16.399  1.2671  1.2324  0.5264
15379TIP3   OH267627   3.381   6.168   6.226 -0.3855  0.1862  0.0874
15379TIP3    H167628   3.431   6.197   6.149 -1.7365  1.0977 -0.4866
15379TIP3    H267629   3.432   6.199   6.300  0.3416  0.3503 -0.4667
15380TIP3   OH267630   0.113   1.326  13.491 -0.1605  0.3336 -0.0026
15380TIP3    H167631   0.195   1.375  13.498 -0.5059  1.2273 -1.7986
15380TIP3    H267632   0.057   1.363  13.560  0.4416  0.7515  0.2639
15381TIP3   OH267633   0.010   4.562   4.494 -0.3717 -0.9121  0.3321
15381TIP3    H167634   0.035   4.559   4.402 -1.0111 -2.5272  0.1728
15381TIP3    H267635  -0.085   4.563   4.493 -0.3800 -0.3835  0.9833
15382TIP3   OH267636   6.607   0.141   5.040  0.5875  0.1299  0.3743
15382TIP3    H167637   6.540   0.163   4.976  2.0316  3.4411 -0.1904
15382TIP3    H267638   6.582   0.190   5.119  1.3720 -0.0798  0.7677
15383TIP3   OH267639   3.209   5.572  13.274  0.7465  0.4332  0.0899
15383TIP3    H167640   3.132   5.520  13.297 -0.6524  2.6887  0.8385
15383TIP3    H267641   3.196   5.596  13.183  1.3286 -0.4044 -0.2200
15384TIP3   OH267642   0.535   4.304  16.487  0.0117  0.4277  0.0269
15384TIP3    H167643   0.544   4.212  16.461  0.6136 -0.1130  1.9999
15384TIP3    H267644   0.443   4.313  16.513 -0.0764  0.4204 -0.2796
15385TIP3   OH267645   5.475   6.147   3.890 -0.3549  0.5445  0.5410
15385TIP3    H167646   5.394   6.186   3.920 -0.1559  1.0195  0.4728
15385TIP3    H267647   5.499   6.084   3.958  0.9283  2.7267  2.2203
15386TIP3   OH267648   3.212   5.394  17.068  0.0030 -0.1357  0.0768
15386TIP3    H167649   3.257   5.478  17.069 -1.3336  0.6206  1.5387
15386TIP3    H267650   3.120   5.416  17.054 -0.3134 -1.4051  0.0015
15387TIP3   OH267651   4.986   1.553  12.532  1.1771 -0.2426  0.2475
15387TIP3    H167652   4.952   1.472  12.569  0.5557 -0.3355 -0.5071
15387TIP3    H267653   5.029   1.526  12.450  0.4189  0.2597 -0.3282
15388TIP3   OH267654   0.536   3.848  17.243  0.5893  0.8849 -0.1000
15388TIP3    H167655   0.605   3.827  17.307 -1.1756  0.8844  1.8853
15388TIP3    H267656   0.459   3.868  17.296 -1.0274  0.6945 -2.2511
15389TIP3   OH267657   0.425   1.232   5.667 -0.0834  0.4874  0.3075
15389TIP3    H167658   0.381   1.209   5.585  0.8561 -0.9962  0.1967
15389TIP3    H267659   0.476   1.310   5.646  2.6564 -1.6062 -1.4814
15390TIP3   OH267660   0.147   4.681  12.024 -0.3076 -0.3872 -0.3217
15390TIP3    H167661   0.105   4.754  11.977 -0.8780  0.3817  1.3218
15390TIP3    H267662   0.218   4.653  11.966 -0.0412  1.5144 -0.9753
15391TIP3   OH267663   2.523   3.090   2.566  0.0035  0.4777 -0.3514
15391TIP3    H167664   2.465   3.099   2.642  0.5574 -0.2683  0.1767
15391TIP3    H267665   2.495   3.009   2.524  1.3139 -0.4783  0.5204
15392TIP3   OH267666   0.645   1.036  14.461  0.2365  0.1494  0.7369
15392TIP3    H167667   0.591   1.006  14.534 -0.7938  0.1447 -0.0139
15392TIP3    H267668   0.606   1.119  14.434  0.3819 -0.0294 -0.0465
15393TIP3   OH267669   1.412   2.682   4.702 -0.0151  0.2019 -0.5703
15393TIP3    H167670   1.431   2.729   4.622 -0.3739 -0.4305 -1.0365
15393TIP3    H267671   1.327   2.641   4.686 -0.1742  0.2149  0.1967
15394TIP3   OH267672   4.763   1.381  11.722 -0.0322  0.2363  0.5327
15394TIP3    H167673   4.751   1.475  11.712 -0.0904  0.2001  0.2607
15394TIP3    H267674   4.700   1.356  11.790 -0.5415  0.2740  0.0780
15395TIP3   OH267675   3.272   4.118  15.418  0.7278  0.4185  0.3974
15395TIP3    H167676   3.184   4.080  15.419  1.2686 -1.3498 -3.0839
15395TIP3    H267677   3.309   4.095  15.503 -1.1622 -1.4626  0.8098
15396TIP3   OH267678   2.594   5.621  11.488 -0.1108  0.0591  0.7513
15396TIP3    H167679   2.550   5.634  11.404 -0.4682  0.6126  1.0198
15396TIP3    H267680   2.557   5.687  11.545  0.5973  0.1050  1.1726
15397TIP3   OH267681   3.402   2.688   3.490 -0.5606  0.4223  0.5221
15397TIP3    H167682   3.454   2.753   3.445  0.5325 -0.0306  1.1027
15397TIP3    H267683   3.436   2.686   3.580 -0.3511 -1.1325  0.4479
15398TIP3   OH267684   6.489   5.458  12.235  0.5633 -0.6615  0.3861
15398TIP3    H167685   6.514   5.401  12.163  1.7937  0.2746  0.0276
15398TIP3    H267686   6.394   5.464  12.229  0.6795  0.1008 -1.7412
15399TIP3   OH267687   0.996   4.587  11.826 -0.0946 -0.6167  0.4206
15399TIP3    H167688   1.048   4.551  11.754 -0.1849 -0.3183  0.2056
15399TIP3    H267689   1.044   4.665  11.854  0.8323 -1.6440  1.7944
15400TIP3   OH267690   4.427   6.566  14.574 -0.0245 -0.2580 -0.3221
15400TIP3    H167691   4.366   6.620  14.625  0.1334 -1.8565  1.6737
15400TIP3    H267692   4.455   6.497  14.635  0.9276 -1.7224 -2.3055
15401TIP3   OH267693   2.352   1.956   1.718  0.2172 -0.0913  0.0320
15401TIP3    H167694   2.375   1.879   1.770 -1.1225 -1.1795 -0.8916
15401TIP3    H267695   2.435   1.987   1.682  0.7396 -1.3514  0.1039
15402TIP3   OH267696   4.350   0.852  14.422 -0.1718 -0.2305  0.3031
15402TIP3    H167697   4.421   0.802  14.381  0.9023 -0.2821  2.1113
15402TIP3    H267698   4.282   0.786  14.439  0.5035 -0.7681  1.0421
15403TIP3   OH267699   0.285   2.132  11.144  0.1566 -0.4448 -0.3659
15403TIP3    H167700   0.316   2.216  11.111 -0.3733 -0.2828 -0.4415
15403TIP3    H267701   0.290   2.073  11.068 -2.2711  0.2299 -1.1103
15404TIP3   OH267702   3.699   2.834  11.783 -0.5368  0.0670  0.0244
15404TIP3    H167703   3.678   2.840  11.690  0.5289  0.4152 -0.2183
15404TIP3    H267704   3.779   2.887  11.792 -0.2047 -0.5705  0.9945
15405TIP3   OH267705   2.506   2.125   3.844 -0.6157 -0.4933  0.3994
15405TIP3    H167706   2.567   2.193   3.873 -0.5402 -0.9481  1.3783
15405TIP3    H267707   2.478   2.153   3.757  1.6173 -0.6828 -0.4477
15406TIP3   OH267708   3.927   5.065  11.926 -0.1885 -0.2714 -0.8327
15406TIP3    H167709   3.988   5.081  11.854  1.3226  0.1161  0.5019
15406TIP3    H267710   3.935   4.972  11.944  0.5721 -0.0964 -0.1983
15407TIP3   OH267711   1.746   5.575   5.120 -0.2120 -0.3068 -0.0245
15407TIP3    H167712   1.777   5.530   5.041  0.5976 -1.8251  1.1035
15407TIP3    H267713   1.825   5.614   5.157 -0.5888  0.4017  0.0427
15408TIP3   OH267714   5.150   2.333  13.429 -0.4425 -0.0313 -0.1071
15408TIP3    H167715   5.118   2.328  13.519 -0.3732  0.7248 -0.0272
15408TIP3    H267716   5.081   2.381  13.383 -0.7827 -0.9850 -0.6108
15409TIP3   OH267717   4.205   6.329   3.042  0.2316 -0.3407  0.2304
15409TIP3    H167718   4.195   6.328   3.137  0.8112 -1.7851  0.3022
15409TIP3    H267719   4.148   6.400   3.012 -0.7365 -0.5239  1.5781
15410TIP3   OH267720   1.153   5.331  14.863  0.0361 -0.2383  0.2221
15410TIP3    H167721   1.207   5.386  14.807  0.8166 -0.5214  0.6820
15410TIP3    H267722   1.142   5.382  14.943  1.8299 -1.2184  1.1608
15411TIP3   OH267723   2.108   6.017   6.600  0.3733 -0.2800  0.3013
15411TIP3    H167724   2.015   6.034   6.614  0.6010 -0.4381  2.3274
15411TIP3    H267725   2.139   6.091   6.548 -1.0747 -0.7621 -1.3182
15412TIP3   OH267726   5.502   4.018   2.112 -0.4665 -0.0925  0.1416
15412TIP3    H167727   5.425   4.063   2.079 -0.0388  1.3401  1.0313
15412TIP3    H267728   5.573   4.046   2.055 -0.0973  0.8275  1.0285
15413TIP3   OH267729   3.327   3.721  11.205 -0.0012 -0.3574  0.1813
15413TIP3    H167730   3.260   3.752  11.144  0.5424  0.2952 -0.0965
15413TIP3    H267731   3.317   3.626  11.206 -2.0384 -0.1824  1.4338
15414TIP3   OH267732   2.015   4.649   1.024  0.4669 -0.2223 -0.5251
15414TIP3    H167733   2.049   4.572   0.978  0.5710 -0.6146  0.1999
15414TIP3    H267734   1.999   4.619   1.113 -0.5745  0.3000 -0.5168
15415TIP3   OH267735   0.669   6.541  13.217  0.1272 -0.1727 -0.1816
15415TIP3    H167736   0.718   6.615  13.251 -0.4269  0.9353 -1.6888
15415TIP3    H267737   0.652   6.486  13.293  1.8311  0.4821  0.7187
15416TIP3   OH267738   0.255   3.182  15.497  0.0199 -0.1815 -0.1461
15416TIP3    H167739   0.164   3.206  15.478 -0.2428 -1.9164 -1.3140
15416TIP3    H267740   0.287   3.145  15.415  1.0508 -1.7365  0.9105
15417TIP3   OH267741   4.161   3.781   6.409  0.2843  0.2413  0.5130
15417TIP3    H167742   4.230   3.734   6.362 -0.2791 -0.9386  0.8324
15417TIP3    H267743   4.198   3.795   6.497  1.0126  1.7198  0.0154
15418TIP3   OH267744   5.504   5.175  13.386  0.6585 -0.1484 -0.1983
15418TIP3    H167745   5.459   5.160  13.303 -1.4415  2.0932  0.4137
15418TIP3    H267746   5.498   5.092  13.433 -2.5349 -0.1187 -0.3646
15419TIP3   OH267747   5.754   0.467   0.066 -0.1576 -1.1870 -0.3497
15419TIP3    H167748   5.702   0.427  -0.004  1.3596 -1.9326 -1.1231
15419TIP3    H267749   5.792   0.392   0.113  1.4795 -0.7012 -0.8308
15420TIP3   OH267750   2.928   2.842   5.144  0.0064  0.0202 -0.0382
15420TIP3    H167751   2.926   2.750   5.116  0.7092  0.1531 -0.5755
15420TIP3    H267752   2.922   2.838   5.240 -2.3390 -0.4487 -0.1485
15421TIP3   OH267753   3.211   4.288  15.197 -0.7668  0.1328  0.4574
15421TIP3    H167754   3.191   4.375  15.231 -4.7255 -0.5764  0.3846
15421TIP3    H267755   3.232   4.236  15.275 -1.4856  0.4307  0.8550
15422TIP3   OH267756   5.245   4.359   4.939 -0.1094  0.0470 -0.3240
15422TIP3    H167757   5.156   4.381   4.914  0.6632  1.4938 -2.0709
15422TIP3    H267758   5.283   4.443   4.966  0.9788 -0.3920 -0.4379
15423TIP3   OH267759   1.301   0.388   1.066  0.3205  0.7897 -0.0056
15423TIP3    H167760   1.280   0.473   1.106  1.0478  1.3625 -0.8134
15423TIP3    H267761   1.319   0.409   0.974  0.2649 -0.2813 -0.2655
15424TIP3   OH267762   0.463   2.156  11.858  0.2525 -0.0553 -0.3616
15424TIP3    H167763   0.558   2.147  11.856  0.3529  0.6209  0.5432
15424TIP3    H267764   0.437   2.113  11.940 -0.3683 -1.3524 -1.2119
15425TIP3   OH267765   0.124   3.785  12.306  0.3747 -0.1073  0.2543
15425TIP3    H167766   0.172   3.713  12.345  0.7316  0.3852  0.7284
15425TIP3    H267767   0.037   3.781  12.346  0.6357  0.1930  0.8553
15426TIP3   OH267768   5.109   4.478   1.501  0.1511 -0.1764  0.3221
15426TIP3    H167769   5.085   4.391   1.533 -0.2699 -0.2778 -0.2600
15426TIP3    H267770   5.180   4.462   1.439 -0.1726 -0.1366 -0.0556
15427TIP3   OH267771   3.824   6.266   3.574 -0.3608 -0.1239  0.2541
15427TIP3    H167772   3.828   6.357   3.545  0.4766  0.4968  2.1435
15427TIP3    H267773   3.731   6.250   3.589 -0.3652  1.1715  1.9656
15428TIP3   OH267774   5.555   6.656  14.032 -0.0622 -0.7294 -0.2853
15428TIP3    H167775   5.583   6.590  13.969  2.2801 -0.2761  0.1708
15428TIP3    H267776   5.591   6.627  14.115 -0.6721  0.1353  0.3008
15429TIP3   OH267777   1.401   0.628   6.205  0.1019 -0.8378  0.2712
15429TIP3    H167778   1.489   0.647   6.239 -0.5356 -1.0555  2.1595
15429TIP3    H267779   1.350   0.604   6.282 -1.9391  0.3840 -0.5942
15430TIP3   OH267780   1.904   4.523   0.184 -0.0875  0.1384  0.4889
15430TIP3    H167781   1.941   4.509   0.272  0.0362  0.7168  0.5311
15430TIP3    H267782   1.855   4.605   0.191 -1.5848 -0.7180  0.4909
15431TIP3   OH267783   4.891   5.970   2.299  0.1523 -0.7725 -0.2384
15431TIP3    H167784   4.862   6.038   2.360  2.1135  0.0914 -0.2094
15431TIP3    H267785   4.956   6.013   2.243  0.3422 -2.2406 -1.2203
15432TIP3   OH267786   3.278   0.488   5.198  0.1478 -0.6304  1.0299
15432TIP3    H167787   3.254   0.548   5.269 -1.3800  0.2264 -0.1484
15432TIP3    H267788   3.201   0.485   5.142  0.7995 -2.4200  0.1503
15433TIP3   OH267789   1.611   5.398  15.643 -0.2127  0.5625  0.0128
15433TIP3    H167790   1.549   5.325  15.642  1.1709 -0.6680 -0.1708
15433TIP3    H267791   1.685   5.368  15.590  1.2490  1.3048  1.5189
15434TIP3   OH267792   0.310   1.419  12.125 -0.2609 -0.3814 -1.4447
15434TIP3    H167793   0.256   1.437  12.201  1.0339  0.8634 -0.7694
15434TIP3    H267794   0.252   1.430  12.050 -0.6618  2.3971 -0.8426
15435TIP3   OH267795   1.750   1.242   0.417 -0.0637 -0.3785 -0.5562
15435TIP3    H167796   1.717   1.219   0.330 -0.4487  0.5707 -0.6746
15435TIP3    H267797   1.694   1.193   0.478  0.3790 -1.2564 -0.8291
15436TIP3   OH267798   0.136   2.675   2.588 -0.0437  0.8375  0.3540
15436TIP3    H167799   0.153   2.586   2.619 -0.3354  1.4881  2.5601
15436TIP3    H267800   0.041   2.681   2.586 -0.0260  1.2239  0.6259
15437TIP3   OH267801   3.397   6.650   1.996  0.0779 -0.0253  0.0521
15437TIP3    H167802   3.307   6.633   2.022 -0.5620 -0.2051 -2.1197
15437TIP3    H267803   3.423   6.571   1.948  1.2130  0.2592  0.1715
15438TIP3   OH267804   6.693   6.630   5.831  0.8159 -0.0595  0.3370
15438TIP3    H167805   6.725   6.616   5.920  0.1301 -2.3087  0.2898
15438TIP3    H267806   6.614   6.683   5.841 -1.2439 -3.0565  1.5304
15439TIP3   OH267807   4.563   1.070  16.120  0.1419 -0.0148 -0.1070
15439TIP3    H167808   4.501   0.999  16.137  1.6029 -1.5806 -0.9810
15439TIP3    H267809   4.629   1.060  16.188 -0.0363  1.0389  0.2406
15440TIP3   OH267810   2.111   4.984   3.291 -0.2746  0.2614  0.3169
15440TIP3    H167811   2.099   4.932   3.211  0.8109 -0.4739  0.6036
15440TIP3    H267812   2.181   4.939   3.338 -1.4784  0.1662  2.1172
15441TIP3   OH267813   6.410   1.348   1.343 -0.0734 -0.4274  0.3885
15441TIP3    H167814   6.424   1.275   1.282  4.0622 -0.9014  1.5799
15441TIP3    H267815   6.404   1.306   1.429 -2.3136  0.4452  0.7113
15442TIP3   OH267816   5.808   0.949  17.086 -0.1517  0.3864  0.1294
15442TIP3    H167817   5.774   0.930  16.998  0.1310 -1.3341  0.3451
15442TIP3    H267818   5.772   0.879  17.141 -1.1416  1.9966  1.6384
15443TIP3   OH267819   2.003   4.500   1.257  0.0217 -0.1133  0.2971
15443TIP3    H167820   1.973   4.436   1.193 -1.2146  2.7533 -2.2671
15443TIP3    H267821   1.962   4.473   1.339  0.2371 -2.9825 -0.4604
15444TIP3   OH267822   6.147   5.783  12.036 -0.0713  0.2322  0.3161
15444TIP3    H167823   6.234   5.779  12.075  0.5655  2.3748 -0.7072
15444TIP3    H267824   6.088   5.800  12.110  0.0213 -2.9521  1.2855
15445TIP3   OH267825   5.547   0.223  13.058  0.4730 -0.7418  0.4730
15445TIP3    H167826   5.532   0.229  12.963  5.3645 -0.8501 -0.5631
15445TIP3    H267827   5.516   0.136  13.082 -2.0714 -0.2429 -0.6228
15446TIP3   OH267828   1.743   0.160  16.934  0.0971 -0.0766  0.2836
15446TIP3    H167829   1.740   0.188  17.026 -0.1963 -0.6082  0.4384
15446TIP3    H267830   1.765   0.240  16.886  0.1825  0.2233  0.8072
15447TIP3   OH267831   0.380   6.229  13.961 -0.2695 -0.1781  0.2140
15447TIP3    H167832   0.424   6.253  14.043  1.1546 -2.9464  0.4045
15447TIP3    H267833   0.288   6.219  13.985 -0.2604  1.1972  0.9184
15448TIP3   OH267834   0.480   0.728  14.798  0.1557 -0.9628  0.4141
15448TIP3    H167835   0.485   0.799  14.734 -0.1850  0.3409  1.7884
15448TIP3    H267836   0.405   0.676  14.770  0.8279 -1.2057 -1.0057
15449TIP3   OH267837   2.411   6.531   4.051 -0.1343 -0.2666 -0.0633
15449TIP3    H167838   2.335   6.474   4.040 -1.2231  0.7258  1.8022
15449TIP3    H267839   2.483   6.471   4.071 -0.5675 -1.1604 -1.0462
15450TIP3   OH267840   6.715   5.410   5.907  0.1809 -0.2643  0.3085
15450TIP3    H167841   6.653   5.480   5.925  0.5662 -0.6668  4.0427
15450TIP3    H267842   6.792   5.455   5.872 -0.7299  0.7045 -0.5184
15451TIP3   OH267843   0.625   3.151  16.970  0.4792  0.2852 -1.0845
15451TIP3    H167844   0.539   3.187  16.991  1.0246  1.4781 -0.7781
15451TIP3    H267845   0.628   3.067  17.015 -0.1579  0.6873 -0.2521
15452TIP3   OH267846   6.636   2.024  17.185 -0.2513 -0.1891 -0.6446
15452TIP3    H167847   6.556   1.972  17.175  0.0085 -0.7427  0.0720
15452TIP3    H267848   6.645   2.070  17.101 -0.7680 -0.8978 -1.1053
15453TIP3   OH267849   6.503   0.842   3.984  0.3051  0.3803 -0.1471
15453TIP3    H167850   6.524   0.811   4.072  1.2891  0.8190 -0.2137
15453TIP3    H267851   6.560   0.792   3.926 -0.4738 -0.0420 -0.5606
15454TIP3   OH267852   6.713   3.445  15.755  0.0463 -0.0406  0.3607
15454TIP3    H167853   6.733   3.506  15.684 -2.6993  0.0328 -0.4606
15454TIP3    H267854   6.697   3.500  15.831  2.8156 -0.1104  1.0920
15455TIP3   OH267855   5.082   2.814   1.982 -0.6534 -0.3945 -0.4122
15455TIP3    H167856   5.074   2.771   2.068  0.5493 -1.8568 -0.9671
15455TIP3    H267857   5.007   2.873   1.977 -1.5341 -1.3151  1.0699
15456TIP3   OH267858   3.348   0.030   0.813 -0.1855 -0.2197 -0.1410
15456TIP3    H167859   3.315   0.040   0.902 -0.9421 -2.0496 -0.1943
15456TIP3    H267860   3.305   0.100   0.764 -1.9477 -0.9202  0.3539
15457TIP3   OH267861   4.780   5.438   4.442 -0.7933  0.2987 -0.1189
15457TIP3    H167862   4.818   5.521   4.414  0.1720  0.2731  1.0628
15457TIP3    H267863   4.691   5.440   4.407 -0.1084  0.8494 -2.0053
15458TIP3   OH267864   6.426   5.032  14.459  0.2722 -0.1537  0.4881
15458TIP3    H167865   6.474   4.962  14.504  1.6614  0.8139  0.5599
15458TIP3    H267866   6.454   5.112  14.503 -0.8663  0.5236  0.0322
15459TIP3   OH267867   3.227   0.894  10.515 -0.7098 -0.3674  0.1046
15459TIP3    H167868   3.178   0.927  10.590 -0.2994  0.2084  0.1271
15459TIP3    H267869   3.195   0.805  10.503 -0.5771 -0.5703  1.1381
15460TIP3   OH267870   2.363   3.138   4.677  0.2696 -0.2076 -0.2546
15460TIP3    H167871   2.416   3.061   4.656 -0.3652 -0.4213 -1.1116
15460TIP3    H267872   2.380   3.154   4.770 -0.5898 -2.1891  0.3005
15461TIP3   OH267873   4.442   6.447  14.314 -0.8372  0.1796 -0.1811
15461TIP3    H167874   4.468   6.449  14.406 -2.3490 -1.2822  0.3412
15461TIP3    H267875   4.387   6.524  14.303 -0.4465  0.4966  0.0691
15462TIP3   OH267876   2.486   5.490  14.482 -0.1080  0.1327 -0.2497
15462TIP3    H167877   2.415   5.550  14.502 -1.1357 -1.5972  1.7521
15462TIP3    H267878   2.563   5.530  14.522  0.0150  1.7546 -1.9685
15463TIP3   OH267879   2.361   4.363  11.102  0.4186 -0.0239 -0.1924
15463TIP3    H167880   2.354   4.274  11.067  0.6548 -0.3248  0.4959
15463TIP3    H267881   2.449   4.392  11.076  2.0325 -1.5493  2.9643
15464TIP3   OH267882   4.259   1.244   5.176  0.4745  0.3940  0.6267
15464TIP3    H167883   4.265   1.339   5.190  0.7649  0.5416 -0.4013
15464TIP3    H267884   4.266   1.234   5.082  0.2739 -0.6502  0.7170
15465TIP3   OH267885   2.514   5.863  12.845  0.5067 -0.4219 -0.6813
15465TIP3    H167886   2.532   5.837  12.755  1.1958 -2.3851 -0.0410
15465TIP3    H267887   2.428   5.904  12.842  0.6031 -0.2950 -2.2562
15466TIP3   OH267888   2.523   4.938   1.240  0.1214  0.0596 -0.2325
15466TIP3    H167889   2.612   4.906   1.254 -0.2840 -0.4302  1.4784
15466TIP3    H267890   2.530   4.997   1.165  1.4897 -1.5510 -1.4286
15467TIP3   OH267891   0.079   5.638   4.337 -0.2789 -0.2189  0.1619
15467TIP3    H167892   0.082   5.545   4.359 -1.4652 -0.3137  0.0007
15467TIP3    H267893   0.097   5.682   4.420 -1.0729 -0.5943  0.5411
15468TIP3   OH267894   4.636   3.256   3.509 -0.1890  0.3889  0.0430
15468TIP3    H167895   4.588   3.210   3.440  0.3079  0.8134 -0.5976
15468TIP3    H267896   4.724   3.221   3.505 -0.6011 -0.9848  1.7601
15469TIP3   OH267897   1.259   0.256  13.910 -0.2993  0.0694 -0.3519
15469TIP3    H167898   1.248   0.223  13.821 -0.0099 -0.9839 -0.0038
15469TIP3    H267899   1.283   0.179  13.962  1.0641  0.9332  0.3492
15470TIP3   OH267900   0.025   5.967   2.206 -0.3057  0.1257 -0.4780
15470TIP3    H167901  -0.026   6.012   2.139 -1.3481  0.0798  0.2553
15470TIP3    H267902   0.019   5.874   2.183 -0.7659  0.0992 -0.2567
15471TIP3   OH267903   1.795   3.772  14.628 -0.6263 -0.2335  0.5880
15471TIP3    H167904   1.857   3.843  14.646  0.8905 -0.7234 -2.1303
15471TIP3    H267905   1.724   3.813  14.579 -1.1001 -0.1481  1.3370
15472TIP3   OH267906   5.163   4.145  12.272  0.2047 -0.2401 -0.8275
15472TIP3    H167907   5.077   4.153  12.231 -0.5805 -2.7482  0.1153
15472TIP3    H267908   5.201   4.067  12.230  1.4151 -0.0067 -0.1993
15473TIP3   OH267909   0.731   2.230  15.164 -0.5457 -0.7892 -0.1723
15473TIP3    H167910   0.684   2.284  15.227  0.2006 -2.5424  2.0487
15473TIP3    H267911   0.751   2.149  15.212  1.9382 -1.3845 -1.9836
15474TIP3   OH267912   1.725   0.864   4.067 -0.2725 -0.4995 -0.2476
15474TIP3    H167913   1.633   0.888   4.056 -0.1715 -0.0234 -0.0852
15474TIP3    H267914   1.739   0.867   4.162  0.0358 -0.0944 -0.3046
15475TIP3   OH267915   4.748   0.985   4.803 -0.5667 -0.5106  0.3691
15475TIP3    H167916   4.840   1.008   4.821 -0.3043 -0.2848 -1.1244
15475TIP3    H267917   4.735   0.902   4.850  0.4653 -0.6419  0.4602
15476TIP3   OH267918   2.498   1.459  16.804 -0.2795  0.2208 -0.3208
15476TIP3    H167919   2.454   1.496  16.880  0.2864 -0.6484  0.4439
15476TIP3    H267920   2.427   1.443  16.741 -0.9150 -0.1673  0.4763
15477TIP3   OH267921   4.280   5.171   2.306  0.5780  0.1491  0.8058
15477TIP3    H167922   4.236   5.108   2.363  1.0269  1.4193  2.6266
15477TIP3    H267923   4.366   5.183   2.346  0.4666  1.9832  0.5596
15478TIP3   OH267924   1.163   1.221   3.612  0.5728  0.1567 -0.2587
15478TIP3    H167925   1.069   1.234   3.620  0.6150  0.4242 -0.1771
15478TIP3    H267926   1.173   1.169   3.533  0.3291 -0.2576 -0.0174
15479TIP3   OH267927   3.138   2.686  13.502  0.0210 -0.3660 -0.4811
15479TIP3    H167928   3.173   2.658  13.417 -0.0733 -3.0621  0.2871
15479TIP3    H267929   3.073   2.619  13.525 -0.7319  0.8698  1.2610
15480TIP3   OH267930   4.711   2.010   5.802 -0.4586 -0.1842 -0.0890
15480TIP3    H167931   4.648   2.001   5.730  1.2666  1.5824 -1.9608
15480TIP3    H267932   4.704   2.101   5.829  0.5573 -0.2209  0.3519
15481TIP3   OH267933   2.096   2.357  16.212  0.1898 -0.1017 -0.1614
15481TIP3    H167934   2.081   2.273  16.169  0.0540 -0.0210 -0.2670
15481TIP3    H267935   2.014   2.377  16.256 -0.4816  0.9870 -1.8210
15482TIP3   OH267936   2.804   6.198   4.382 -0.0089 -0.2140 -0.0753
15482TIP3    H167937   2.755   6.119   4.357 -1.3200  0.3453  0.6444
15482TIP3    H267938   2.850   6.173   4.462 -1.1188 -0.0229  0.6520
15483TIP3   OH267939   4.999   3.545  14.632  0.4977 -0.0973  0.2382
15483TIP3    H167940   5.061   3.475  14.650 -1.4863 -1.5022  2.1714
15483TIP3    H267941   5.023   3.614  14.694 -0.8611 -1.3897  2.3578
15484TIP3   OH267942   3.567   4.916   1.344  0.2024  0.2748  0.1785
15484TIP3    H167943   3.636   4.944   1.284  0.8443 -1.5364  0.0334
15484TIP3    H267944   3.572   4.821   1.345 -2.4095  0.0519  0.0385
15485TIP3   OH267945   4.989   6.023  16.003  0.2829 -0.4957  0.2763
15485TIP3    H167946   4.978   6.099  16.060  1.8493  1.0215 -1.3108
15485TIP3    H267947   4.902   6.005  15.970  0.1856  2.4814 -1.4892
15486TIP3   OH267948   1.138   3.381  12.684  0.3666 -0.3736  0.3490
15486TIP3    H167949   1.185   3.462  12.703  1.2934 -0.8061 -0.0464
15486TIP3    H267950   1.081   3.368  12.760  0.6018  0.3705  0.6609
15487TIP3   OH267951   2.990   5.193  15.079 -0.2782  0.2839 -0.0216
15487TIP3    H167952   3.071   5.178  15.128 -1.3235 -1.5303  1.2854
15487TIP3    H267953   2.968   5.107  15.043 -0.5030  1.2056 -2.2782
15488TIP3   OH267954   2.115   4.246   2.666 -0.4914 -0.0230  0.2500
15488TIP3    H167955   2.092   4.334   2.637 -1.6870 -0.3360  0.2137
15488TIP3    H267956   2.115   4.194   2.586  0.4992 -0.0137  0.2292
15489TIP3   OH267957   5.675   5.727  11.570  0.3153 -0.2320 -0.1787
15489TIP3    H167958   5.695   5.786  11.643  1.9138 -0.7030 -0.1962
15489TIP3    H267959   5.649   5.645  11.611 -2.6094  0.5860 -0.1418
15490TIP3   OH267960   5.419   1.236   6.162 -0.8999  0.2044 -0.6002
15490TIP3    H167961   5.410   1.191   6.078 -0.9939 -2.4473  0.7111
15490TIP3    H267962   5.498   1.197   6.200 -0.5560  1.7510  0.3264
15491TIP3   OH267963   6.749   1.780  16.531 -0.3120  0.2278 -0.3838
15491TIP3    H167964   6.760   1.756  16.622  1.4868  1.9972 -0.0488
15491TIP3    H267965   6.668   1.831  16.529  2.0774  4.7300  1.4589
15492TIP3   OH267966   3.018   2.451  12.716  0.1681 -0.0009  0.2510
15492TIP3    H167967   2.944   2.500  12.753  0.3482  1.0188 -0.6727
15492TIP3    H267968   2.981   2.404  12.642  0.1681 -0.5920  0.6263
15493TIP3   OH267969   3.382   1.898  12.370  0.3367 -0.6267  0.4068
15493TIP3    H167970   3.449   1.915  12.304  0.0101 -0.7923  0.0227
15493TIP3    H267971   3.424   1.917  12.454 -0.1911  2.9128  0.0141
15494TIP3   OH267972   2.002   6.492  11.531 -0.0374  0.6752 -0.2994
15494TIP3    H167973   2.076   6.528  11.580  1.2802  0.3297 -1.9020
15494TIP3    H267974   1.998   6.547  11.452 -0.2235 -0.5291 -1.1461
15495TIP3   OH267975   5.033   4.942   4.972  0.2637  0.0530  0.4157
15495TIP3    H167976   5.011   5.033   4.993  1.0648  0.4639 -0.4727
15495TIP3    H267977   5.123   4.931   5.002  0.8181  0.1257 -1.1345
15496TIP3   OH267978   6.372   6.065   4.352 -0.0313  0.3834  0.4618
15496TIP3    H167979   6.467   6.055   4.347  0.0537  0.3230  1.9928
15496TIP3    H267980   6.356   6.106   4.436 -1.5202 -1.8704  1.3650
15497TIP3   OH267981   3.246   1.534  11.490  0.7490 -0.0166 -0.3330
15497TIP3    H167982   3.294   1.451  11.487 -0.5241 -0.7462 -2.0622
15497TIP3    H267983   3.292   1.590  11.428  0.0981 -0.3324 -1.1228
15498TIP3   OH267984   6.427   5.845   0.758 -0.0864  0.0840  0.3751
15498TIP3    H167985   6.452   5.937   0.759 -2.3062  0.7295  1.1170
15498TIP3    H267986   6.441   5.818   0.667  0.4404  1.1740  0.1107
15499TIP3   OH267987   3.603   4.296   0.215 -0.4791  0.0350 -0.0453
15499TIP3    H167988   3.598   4.362   0.146  0.1019  1.3637  1.1309
15499TIP3    H267989   3.590   4.345   0.296  1.1808 -1.0685  0.9636
15500TIP3   OH267990   2.340   3.944   2.533  0.1075 -0.0033  0.9591
15500TIP3    H167991   2.255   3.983   2.554  0.0567 -0.6521  2.0180
15500TIP3    H267992   2.394   3.959   2.610  0.9933  0.4378  0.2844
15501TIP3   OH267993   4.887   6.330  15.462 -0.0821  0.2058 -0.5362
15501TIP3    H167994   4.839   6.258  15.503  0.1895  1.3267  1.9473
15501TIP3    H267995   4.974   6.294  15.445 -0.3052 -0.4007 -0.4150
15502TIP3   OH267996   5.919   0.863  13.526  0.7471 -0.0631  0.6519
15502TIP3    H167997   6.001   0.903  13.495  0.4398  0.2547  0.2400
15502TIP3    H267998   5.948   0.787  13.576  1.2899 -0.1296  0.2556
15503TIP3   OH267999   3.084   2.231  11.054 -0.2171 -0.1889  0.3023
15503TIP3    H168000   3.016   2.296  11.034  1.5561  2.0131  1.0180
15503TIP3    H268001   3.063   2.202  11.143  0.4971  1.5530  1.0893
15504TIP3   OH268002   1.230   2.375  17.092  0.0437  0.4314  0.3992
15504TIP3    H168003   1.287   2.419  17.155 -1.5768  1.9466  0.8737
15504TIP3    H268004   1.196   2.445  17.037 -1.9841 -0.2734  0.6609
15505TIP3   OH268005   1.007   0.902   1.745 -0.1244 -0.1292 -0.0836
15505TIP3    H168006   1.017   0.881   1.652  0.0870 -4.9439  0.7211
15505TIP3    H268007   0.923   0.863   1.769  0.3951 -0.1095  1.9636
15506TIP3   OH268008   2.031   2.884   3.137  0.3081 -0.6628 -0.2990
15506TIP3    H168009   1.989   2.913   3.219 -1.9586 -1.3402 -1.1337
15506TIP3    H268010   2.066   2.797   3.158  1.2794 -0.1296  0.3880
15507TIP3   OH268011   0.472   0.286  12.621  0.1213 -0.1195 -0.1249
15507TIP3    H168012   0.481   0.290  12.525  1.4018  2.2154  0.0406
15507TIP3    H268013   0.419   0.362  12.643  0.5199 -0.1955  1.1229
15508TIP3   OH268014   4.166   4.895  11.659 -0.0597  0.6095  0.1020
15508TIP3    H168015   4.183   4.840  11.735 -0.6674  0.1212 -0.1030
15508TIP3    H268016   4.245   4.888  11.606 -0.2848 -0.4041 -0.1218
15509TIP3   OH268017   6.351   3.337   5.001  0.2410 -0.5631 -0.3253
15509TIP3    H168018   6.445   3.321   4.991  0.1883 -0.9019 -0.2987
15509TIP3    H268019   6.344   3.429   5.023  0.7377 -0.9755  1.7916
15510TIP3   OH268020   1.481   2.397  11.986 -0.0129  0.2075  0.2475
15510TIP3    H168021   1.517   2.405  11.898 -0.8129  0.0349 -0.1059
15510TIP3    H268022   1.473   2.302  12.000  1.1075  0.1904  0.9371
15511TIP3   OH268023   6.131   5.239   3.701  0.4133  0.4691 -0.0898
15511TIP3    H168024   6.070   5.180   3.744 -0.7272  0.6110 -1.4288
15511TIP3    H268025   6.088   5.263   3.619  0.6881  3.3737  0.4834
15512TIP3   OH268026   3.362   0.149  15.514  0.6368  0.0042 -0.1356
15512TIP3    H168027   3.353   0.173  15.422  0.9099  0.8883  0.0574
15512TIP3    H268028   3.454   0.124  15.524  0.7070  0.3076 -0.0154
15513TIP3   OH268029   2.994   5.709  11.495  0.0688 -0.5456  0.2432
15513TIP3    H168030   3.015   5.740  11.407  0.0742  1.0373  0.7771
15513TIP3    H268031   3.003   5.614  11.490  0.9935 -0.4020 -1.2204
15514TIP3   OH268032   0.000   3.448   5.562 -0.7304  0.2610  0.6961
15514TIP3    H168033  -0.095   3.440   5.558 -0.8474  1.2770  1.2092
15514TIP3    H268034   0.016   3.510   5.633  0.1556  2.9884 -1.6999
15515TIP3   OH268035   5.099   3.407  15.825  0.1440 -0.4835  0.2805
15515TIP3    H168036   5.015   3.450  15.840 -0.4616 -1.4082 -0.3568
15515TIP3    H268037   5.148   3.469  15.770 -0.5403 -0.4066 -0.2579
15516TIP3   OH268038   6.119   0.595  13.456  0.3283  0.3181  0.0625
15516TIP3    H168039   6.066   0.598  13.536  0.9568 -2.7594  0.7375
15516TIP3    H268040   6.059   0.565  13.388  0.2867  0.8741 -0.1540
15517TIP3   OH268041   5.085   3.174   0.572  0.5071 -0.2347 -0.0203
15517TIP3    H168042   5.136   3.142   0.498 -0.3105 -1.5566 -0.0327
15517TIP3    H268043   5.068   3.266   0.551  1.6216 -0.1660 -0.7026
15518TIP3   OH268044   5.094   5.562  12.834 -0.3792  0.1456 -0.5118
15518TIP3    H168045   5.149   5.571  12.757  0.7953 -0.3499  0.2402
15518TIP3    H268046   5.081   5.652  12.864 -1.0695  0.3638 -1.4132
15519TIP3   OH268047   0.022   6.697   1.310 -0.6307 -0.3943  0.5468
15519TIP3    H168048   0.103   6.676   1.355 -0.3623 -0.3191  0.1065
15519TIP3    H268049  -0.047   6.666   1.369 -0.2733 -1.5807  0.3748
15520TIP3   OH268050   0.867   5.035   1.486  0.1518 -0.4425  0.6304
15520TIP3    H168051   0.804   5.106   1.502  0.1459 -0.6234  1.4695
15520TIP3    H268052   0.831   4.988   1.410  0.4462  0.7678 -0.2893
15521TIP3   OH268053   4.153   5.712   3.877 -0.5041 -0.2932 -0.7373
15521TIP3    H168054   4.086   5.777   3.897 -0.8015 -0.5716 -0.8223
15521TIP3    H268055   4.189   5.740   3.793 -1.7218 -1.1034 -1.5587
15522TIP3   OH268056   0.214   1.822  14.528  0.0768  0.8966 -0.6520
15522TIP3    H168057   0.254   1.762  14.591 -0.9519  0.8154 -0.0523
15522TIP3    H268058   0.188   1.766  14.455  0.1241  0.7892 -0.5870
15523TIP3   OH268059   2.842   1.885  16.982  0.4251  0.0658 -0.4488
15523TIP3    H168060   2.773   1.946  17.009 -0.6347 -1.5597  0.7357
15523TIP3    H268061   2.915   1.941  16.954 -0.1207  1.8636  1.5059
15524TIP3   OH268062   1.445   4.771  10.796  0.3225  0.2084 -0.7161
15524TIP3    H168063   1.479   4.689  10.762  0.1915  0.6414 -1.9652
15524TIP3    H268064   1.352   4.754  10.810  0.5063 -0.1746  0.1187
15525TIP3   OH268065   4.915   4.626   1.720  0.8764 -0.5149  0.1867
15525TIP3    H168066   4.999   4.611   1.764  0.8934 -0.7724  0.0688
15525TIP3    H268067   4.914   4.562   1.649  0.6833 -0.3524  0.0420
15526TIP3   OH268068   0.938   5.470  12.674 -0.6872  0.1253  0.5531
15526TIP3    H168069   0.918   5.425  12.756 -0.8028 -0.9462 -0.0487
15526TIP3    H268070   0.898   5.415  12.606  1.1111 -0.0900 -0.3909
15527TIP3   OH268071   5.360   2.560  14.546  0.4101 -0.4788  0.0159
15527TIP3    H168072   5.268   2.536  14.538 -0.3363  2.1475 -0.4846
15527TIP3    H268073   5.399   2.492  14.600 -2.3420 -0.5029  2.1797
15528TIP3   OH268074   0.850   5.743  15.563  0.0208 -0.0569 -0.1214
15528TIP3    H168075   0.925   5.780  15.609 -0.5842 -0.0702  0.8982
15528TIP3    H268076   0.881   5.658  15.532  0.0554 -0.6313  1.4016
15529TIP3   OH268077   2.593   6.140  14.325  0.5851  0.4592  0.3728
15529TIP3    H168078   2.664   6.204  14.324  2.0408 -1.0941 -0.1588
15529TIP3    H268079   2.539   6.162  14.250 -0.1221  2.2801  1.3615
15530TIP3   OH268080   0.545   2.117  11.038 -0.0334 -0.4411 -0.0184
15530TIP3    H168081   0.540   2.038  10.983 -1.4924 -0.1833 -0.2762
15530TIP3    H268082   0.535   2.085  11.127 -2.5119 -0.4207 -0.2216
15531TIP3   OH268083   5.437   1.346   6.499 -0.0307 -0.4068  0.4068
15531TIP3    H168084   5.472   1.270   6.545 -0.5400 -2.2862 -2.0303
15531TIP3    H268085   5.514   1.392   6.466  0.2653 -0.9729  0.2982
15532TIP3   OH268086   6.225   3.953  14.687  0.0509  0.2315 -0.4692
15532TIP3    H168087   6.145   4.000  14.661 -1.6413 -1.8113  0.7231
15532TIP3    H268088   6.239   3.979  14.779  0.4167  0.1082 -0.4893
15533TIP3   OH268089   2.324   0.567  12.680 -0.2356  0.2267 -0.1103
15533TIP3    H168090   2.282   0.646  12.645 -0.8517  0.1922  0.5348
15533TIP3    H268091   2.251   0.509  12.703  0.2075 -1.3167 -2.3029
15534TIP3   OH268092   4.347   0.888  12.772  0.8341 -0.0848 -0.1151
15534TIP3    H168093   4.322   0.967  12.725  2.5274 -0.1693 -1.2749
15534TIP3    H268094   4.378   0.919  12.857  0.3634  0.3740 -0.1090
15535TIP3   OH268095   5.291   4.373   6.186 -0.3330  0.0099  0.2172
15535TIP3    H168096   5.289   4.455   6.137  0.3606  0.0705  0.2867
15535TIP3    H268097   5.279   4.305   6.119 -0.7088  0.1534  0.1345
15536TIP3   OH268098   2.532   3.745  14.741 -0.1352 -0.3099  0.1968
15536TIP3    H168099   2.596   3.675  14.733 -0.6518 -0.8704  0.8271
15536TIP3    H268100   2.501   3.759  14.651  0.3055 -0.5674  0.0002
15537TIP3   OH268101   3.813   1.986  13.691  0.6490  0.7397 -0.2128
15537TIP3    H168102   3.765   2.066  13.670  1.2999  0.9424 -0.9907
15537TIP3    H268103   3.887   2.016  13.744  0.2471  0.5043  0.4835
15538TIP3   OH268104   3.582   5.643  13.640  0.2745  0.2545  0.1192
15538TIP3    H168105   3.648   5.636  13.571  0.2530  0.0871  0.1165
15538TIP3    H268106   3.595   5.731  13.676  0.7901  0.0659  0.4102
15539TIP3   OH268107   6.468   4.305   2.841  0.2500  0.0664 -0.1940
15539TIP3    H168108   6.421   4.264   2.769  0.1047 -1.0601  0.5087
15539TIP3    H268109   6.456   4.399   2.828 -0.3816 -0.1471 -1.2198
15540TIP3   OH268110   5.838   0.396  13.977 -0.2675  0.4105 -0.3261
15540TIP3    H168111   5.814   0.408  13.886 -1.3035 -0.6155 -0.2140
15540TIP3    H268112   5.899   0.322  13.977 -0.2385  0.4331 -0.1823
15541TIP3   OH268113   5.157   3.911  14.015 -0.0171 -0.2571  0.1306
15541TIP3    H168114   5.140   3.916  14.109  0.7707  1.0802  0.2288
15541TIP3    H268115   5.252   3.921  14.008  0.0884 -1.5751 -0.7503
15542TIP3   OH268116   5.480   0.716  12.287 -0.7270 -0.5642  0.0382
15542TIP3    H168117   5.514   0.755  12.367 -0.3875 -0.3081 -0.2310
15542TIP3    H268118   5.406   0.771  12.263  0.8974  1.1222 -1.4000
15543TIP3   OH268119   0.488   4.614   5.744  0.1020 -0.3346 -0.5154
15543TIP3    H168120   0.549   4.571   5.684  0.0020 -0.4586 -0.5317
15543TIP3    H268121   0.425   4.658   5.687  1.0724  1.1306 -0.5085
15544TIP3   OH268122   4.895   0.075  16.061  0.3336  0.2375  0.1245
15544TIP3    H168123   4.816   0.087  16.112  0.2964 -2.8616  0.9346
15544TIP3    H268124   4.902   0.156  16.010 -2.3222  1.3554  1.3337
15545TIP3   OH268125   5.435   3.501   4.418 -0.1110 -0.1095 -0.5937
15545TIP3    H168126   5.364   3.564   4.403 -0.4758 -0.6816 -1.3944
15545TIP3    H268127   5.500   3.521   4.351  1.0117  1.1004  0.8008
15546TIP3   OH268128   5.254   4.092   5.365  0.0989 -0.1535 -0.3563
15546TIP3    H168129   5.310   4.027   5.406 -0.9621 -1.0919 -0.3364
15546TIP3    H268130   5.214   4.140   5.437 -1.8847 -1.9038 -0.1992
15547TIP3   OH268131   1.882   1.999   4.954  0.2074 -0.1254  0.0739
15547TIP3    H168132   1.885   2.094   4.943  0.1358  0.1205  1.8248
15547TIP3    H268133   1.792   1.981   4.982 -0.1486 -0.8906 -1.4653
15548TIP3   OH268134   5.412   5.877   5.831 -0.0307  0.0712  0.4471
15548TIP3    H168135   5.352   5.803   5.845 -0.2348  0.4457  1.6553
15548TIP3    H268136   5.431   5.909   5.919 -0.0380  1.5356 -0.0588
15549TIP3   OH268137   1.089   1.740  13.012  0.7334 -0.1695  0.1028
15549TIP3    H168138   1.054   1.808  13.069  2.2891  1.4131 -0.7479
15549TIP3    H268139   1.037   1.662  13.033  0.0391  0.8208  2.3250
15550TIP3   OH268140   0.362   3.371   4.021 -0.2414  0.7107  0.2759
15550TIP3    H168141   0.368   3.442   3.956 -0.4776 -1.8464 -2.7834
15550TIP3    H268142   0.268   3.358   4.034 -0.3104 -0.6053 -1.1893
15551TIP3   OH268143   4.189   1.230  16.161 -1.1149 -0.4177 -0.1868
15551TIP3    H168144   4.139   1.149  16.166 -0.2033 -1.1349 -2.0616
15551TIP3    H268145   4.231   1.228  16.075  1.7526  0.3838  1.0741
15552TIP3   OH268146   4.703   0.327  15.474 -0.5534 -0.4174 -0.2038
15552TIP3    H168147   4.608   0.315  15.475 -0.8303  1.3740  1.5380
15552TIP3    H268148   4.720   0.376  15.394 -1.3561  0.7606  0.3211
15553TIP3   OH268149   3.825   5.828   3.452  0.1459  0.2953  0.1742
15553TIP3    H168150   3.799   5.757   3.393 -0.2733  0.4864  0.1266
15553TIP3    H268151   3.840   5.903   3.395  0.5210  0.2667  0.2326
15554TIP3   OH268152   0.493   2.717  12.008  0.3034 -0.5666 -0.2707
15554TIP3    H168153   0.489   2.622  12.017 -1.2476 -0.4418  0.7970
15554TIP3    H268154   0.448   2.735  11.925 -2.7366 -0.6230  1.2075
15555TIP3   OH268155   6.194   4.622   4.951  0.4222  0.3568 -0.1813
15555TIP3    H168156   6.249   4.543   4.956  0.1681  0.0921 -1.1975
15555TIP3    H268157   6.172   4.642   5.041  0.7498 -0.5665  0.1149
15556TIP3   OH268158   2.923   2.070   5.108 -0.4514  0.2786  0.1605
15556TIP3    H168159   2.978   2.146   5.086 -0.0715 -0.2037 -0.6040
15556TIP3    H268160   2.847   2.078   5.049 -0.5430  0.2079  0.2676
15557TIP3   OH268161   0.660   3.092   3.854  0.5713  0.6489 -0.4203
15557TIP3    H168162   0.579   3.136   3.827 -0.6731  0.4150  2.5205
15557TIP3    H268163   0.725   3.118   3.789 -1.1614  3.2582 -1.2523
15558TIP3   OH268164   4.456   3.167  14.803  0.5759 -0.1763 -0.1939
15558TIP3    H168165   4.428   3.121  14.724 -1.2675  0.2976  0.1457
15558TIP3    H268166   4.527   3.114  14.838  0.7950 -0.8963 -1.6461
15559TIP3   OH268167   0.211   6.465  16.199 -0.3040  0.2191  0.4203
15559TIP3    H168168   0.270   6.529  16.158  0.5127  0.4613  1.8684
15559TIP3    H268169   0.251   6.380  16.180 -0.7534  0.2208 -0.5366
15560TIP3   OH268170   5.365   5.455  14.083 -0.1441 -0.1015  0.1848
15560TIP3    H168171   5.445   5.401  14.085 -0.1792 -0.3112 -1.6344
15560TIP3    H268172   5.309   5.418  14.150 -0.6464 -3.2325 -1.7419
15561TIP3   OH268173   5.446   6.346  15.111  0.1491 -0.2112  0.7643
15561TIP3    H168174   5.486   6.323  15.027 -0.9463 -0.8466  0.4058
15561TIP3    H268175   5.517   6.389  15.159  0.3143  1.8862 -1.1717
15562TIP3   OH268176   5.228   5.862   2.261 -0.6082  0.2770 -0.1448
15562TIP3    H168177   5.321   5.883   2.248 -0.6383  0.6503  0.2269
15562TIP3    H268178   5.183   5.943   2.238 -0.7982  0.3047  0.3283
15563TIP3   OH268179   5.096   3.578   5.564  0.9491  0.0281  0.0131
15563TIP3    H168180   5.179   3.531   5.559  1.0800  0.1974  0.5547
15563TIP3    H268181   5.085   3.616   5.476  2.3824  1.5837  0.4560
15564TIP3   OH268182   0.911   0.984  12.499 -0.6576  0.1875  0.8798
15564TIP3    H168183   0.972   0.995  12.572  2.0526 -0.3372 -1.1877
15564TIP3    H268184   0.915   1.067  12.451  0.1138 -0.5832 -0.4397
15565TIP3   OH268185   5.174   0.825   1.964 -0.0028  0.0224 -0.0694
15565TIP3    H168186   5.101   0.766   1.945  0.4488 -1.2767  1.9826
15565TIP3    H268187   5.153   0.862   2.050 -0.4616  3.2543 -1.4072
15566TIP3   OH268188   3.707   5.557   4.881 -0.4044  0.4426  0.2489
15566TIP3    H168189   3.687   5.643   4.917  1.4477 -0.0111  2.7074
15566TIP3    H268190   3.621   5.515   4.869 -1.2433  1.7606  1.3743
15567TIP3   OH268191   0.821   4.044   3.503 -0.0774  0.0192  0.2094
15567TIP3    H168192   0.856   4.106   3.439 -1.5681  0.1087 -0.5642
15567TIP3    H268193   0.815   4.095   3.584  2.1194 -0.1885  0.5560
15568TIP3   OH268194   6.712   2.542   3.960  0.8810 -0.4032  0.6773
15568TIP3    H168195   6.741   2.531   4.051  2.2072  0.8136  0.4380
15568TIP3    H268196   6.625   2.582   3.967  0.2390 -1.8526  1.3954
15569TIP3   OH268197   4.885   0.907   1.268 -0.1801  0.0630 -0.4398
15569TIP3    H168198   4.970   0.948   1.253 -0.0243  0.6914  1.7577
15569TIP3    H268199   4.833   0.976   1.309 -0.5185 -1.3600  1.6719
15570TIP3   OH268200   0.515   1.419   2.723 -0.7542 -0.0434  0.1591
15570TIP3    H168201   0.554   1.447   2.806  0.1991 -0.7172 -0.0365
15570TIP3    H268202   0.558   1.474   2.657  1.9602 -2.4962 -0.3548
15571TIP3   OH268203   0.784   0.323   4.467 -0.3068  0.5158 -0.3786
15571TIP3    H168204   0.823   0.408   4.486 -0.6268  0.5708  0.0708
15571TIP3    H268205   0.812   0.267   4.540 -0.0763  0.2250 -0.6836
15572TIP3   OH268206   5.038   4.855  15.791  0.6766 -0.4850 -0.3565
15572TIP3    H168207   4.954   4.870  15.834  0.5409  0.8150 -1.0125
15572TIP3    H268208   5.017   4.802  15.715  0.7775 -1.9610  0.6147
15573TIP3   OH268209   3.358   2.923   3.712  0.1858  0.4746 -0.3383
15573TIP3    H168210   3.348   2.869   3.790  1.1022 -0.1973 -0.6717
15573TIP3    H268211   3.446   2.960   3.719 -0.3418  1.7611 -0.2350
15574TIP3   OH268212   3.870   3.948   1.309 -0.2051 -0.3402  0.1023
15574TIP3    H168213   3.813   3.913   1.241  0.0750 -1.6972  0.5305
15574TIP3    H268214   3.831   3.917   1.391  0.1143  0.2887  0.5061
15575TIP3   OH268215   5.285   1.282   3.025 -0.0901  0.3402 -0.1772
15575TIP3    H168216   5.344   1.350   2.992 -0.8738  0.8261 -0.5986
15575TIP3    H268217   5.198   1.321   3.020 -0.3775 -0.0758  1.1952
15576TIP3   OH268218   1.200   6.715   2.030  0.1625  0.4905 -0.2194
15576TIP3    H168219   1.129   6.778   2.043 -1.9401 -1.1149 -2.9218
15576TIP3    H268220   1.264   6.763   1.976 -0.8517  0.7170 -1.2580
15577TIP3   OH268221   0.467   4.857  11.672 -0.0039 -0.3458  0.5928
15577TIP3    H168222   0.458   4.762  11.667 -2.7441 -0.1447 -0.7086
15577TIP3    H268223   0.382   4.887  11.704 -0.2144  1.7534 -1.6323
15578TIP3   OH268224   0.890   1.027  15.118  0.0121 -0.4820 -0.6916
15578TIP3    H168225   0.809   0.987  15.085 -0.1798 -0.5287 -0.1621
15578TIP3    H268226   0.949   0.953  15.131  0.9088 -0.2807 -3.1323
15579TIP3   OH268227   1.267   6.071   5.352  0.2956 -0.2288  0.0299
15579TIP3    H168228   1.359   6.061   5.377 -0.0046 -2.6846  0.4229
15579TIP3    H268229   1.224   6.101   5.432  0.6627  0.6145 -0.0694
15580TIP3   OH268230   3.470   2.118   0.684  0.4363  0.0110  0.4544
15580TIP3    H168231   3.445   2.083   0.769  1.3266  0.8822  1.0999
15580TIP3    H268232   3.459   2.213   0.692 -0.0271  0.0653 -0.6008
15581TIP3   OH268233   6.069   2.862  13.183 -0.2305 -0.0468 -0.8945
15581TIP3    H168234   6.027   2.776  13.187 -0.6202  0.0701 -2.0440
15581TIP3    H268235   6.071   2.883  13.090  1.6046  0.3506 -0.8004
15582TIP3   OH268236   5.533   1.777   1.299  0.1981  0.2729  0.3211
15582TIP3    H168237   5.622   1.800   1.275 -0.7093  2.1024 -1.6194
15582TIP3    H268238   5.520   1.690   1.262  0.4993  0.9346 -1.4484
15583TIP3   OH268239   1.768   4.164  10.463 -0.0525  0.3293  0.3455
15583TIP3    H168240   1.764   4.086  10.407  0.1316  0.5687  0.0010
15583TIP3    H268241   1.746   4.237  10.405 -0.3561  0.5232  0.6989
15584TIP3   OH268242   4.528   3.727  16.436  0.0509 -0.0973 -0.1136
15584TIP3    H168243   4.507   3.809  16.390 -1.4538 -0.0780  0.5637
15584TIP3    H268244   4.511   3.746  16.528  0.0450 -1.0719  0.0950
15585TIP3   OH268245   4.734   3.155  16.107  0.0916  0.5833  0.2087
15585TIP3    H168246   4.678   3.148  16.030  0.2614  1.3643 -0.0008
15585TIP3    H268247   4.801   3.087  16.095 -1.3186 -0.9817  0.9203
15586TIP3   OH268248   4.199   3.622  13.348 -0.1164 -0.4034 -0.2780
15586TIP3    H168249   4.130   3.561  13.322  1.3287 -1.4860 -1.7676
15586TIP3    H268250   4.238   3.650  13.265 -0.3269  2.0993  0.3993
15587TIP3   OH268251   2.766   0.491  13.029 -0.1377  0.0754 -0.0130
15587TIP3    H168252   2.721   0.575  13.040 -1.4513 -0.8632  2.3686
15587TIP3    H268253   2.780   0.484  12.935 -1.0578  2.4165 -0.3910
15588TIP3   OH268254   1.100   0.790  16.678  0.5359 -0.6220 -0.1704
15588TIP3    H168255   1.090   0.701  16.712  0.4273  0.0806  1.7396
15588TIP3    H268256   1.012   0.828  16.684  0.4039 -0.6108 -1.7473
15589TIP3   OH268257   3.126   4.318   5.795  0.1969  0.3015  0.3064
15589TIP3    H168258   3.120   4.350   5.885  1.2554  2.8558 -0.4310
15589TIP3    H268259   3.105   4.225   5.801  2.3434 -0.1522  3.5459
15590TIP3   OH268260   4.154   2.126   1.947  0.3607  0.2465  0.1514
15590TIP3    H168261   4.203   2.161   2.022  1.1944  0.3414 -0.4283
15590TIP3    H268262   4.206   2.052   1.917 -1.4006 -1.6156  1.3934
15591TIP3   OH268263   1.910   0.227   3.535  0.0430 -0.0221 -0.6313
15591TIP3    H168264   1.863   0.189   3.609  2.3282 -0.4795  0.6789
15591TIP3    H268265   2.000   0.196   3.545  0.4960  0.0680 -3.5161
15592TIP3   OH268266   1.863   1.009   0.979  0.5458 -0.3075 -0.3855
15592TIP3    H168267   1.882   0.992   0.887 -1.9304 -0.5546 -0.9207
15592TIP3    H268268   1.816   0.931   1.009  1.9544 -0.5524  1.3339
15593TIP3   OH268269   4.296   4.322  14.885 -0.6730  0.1435 -0.0584
15593TIP3    H168270   4.372   4.379  14.887 -0.5920  0.0376 -0.1110
15593TIP3    H268271   4.221   4.381  14.877 -0.5686  0.2267 -0.4227
15594TIP3   OH268272   2.404   4.560  10.839 -0.4277  0.7764  0.1989
15594TIP3    H168273   2.350   4.575  10.916 -1.0153 -0.3368  0.0200
15594TIP3    H268274   2.378   4.628  10.778 -0.4946  1.2066  0.6977
15595TIP3   OH268275   0.863   3.834  12.744 -0.0333  0.1635  0.2363
15595TIP3    H168276   0.799   3.816  12.812 -0.0243  0.7116  0.3986
15595TIP3    H268277   0.820   3.899  12.688  0.1662  0.1197  0.0319
15596TIP3   OH268278   0.752   4.482   0.133  0.5617  0.0132 -0.0772
15596TIP3    H168279   0.832   4.518   0.096  0.9588 -0.2697  0.4861
15596TIP3    H268280   0.717   4.553   0.187  0.1769  0.2991 -0.6980
15597TIP3   OH268281   6.488   1.858   3.729  0.0127 -0.2662 -0.7624
15597TIP3    H168282   6.466   1.930   3.671  0.7048  0.6441  0.0562
15597TIP3    H268283   6.449   1.882   3.813  0.1952 -0.8815 -0.4942
15598TIP3   OH268284   2.920   4.553   4.014  0.1846  0.4717 -0.0407
15598TIP3    H168285   2.990   4.493   4.040 -0.4205 -0.5264 -0.6639
15598TIP3    H268286   2.955   4.640   4.032  0.8680 -0.0765  1.4154
15599TIP3   OH268287   1.171   0.384  10.783 -0.0421  0.0167 -0.3744
15599TIP3    H168288   1.158   0.307  10.728 -0.6552  0.8922 -1.4828
15599TIP3    H268289   1.242   0.433  10.740  2.0338 -1.0516  1.6019
15600TIP3   OH268290   3.184   3.931  16.604 -0.1824  0.0605 -0.4935
15600TIP3    H168291   3.152   3.939  16.694 -0.5088  0.8848 -0.6756
15600TIP3    H268292   3.276   3.956  16.610  0.3254 -1.7557 -0.0676
15601TIP3   OH268293   2.472   4.347  14.282 -0.0236 -0.1946  0.4085
15601TIP3    H168294   2.527   4.408  14.332  2.0510 -2.4586  1.0722
15601TIP3    H268295   2.519   4.334  14.200  0.0519 -1.5825  0.6583
15602TIP3   OH268296   4.957   2.373  14.046  0.4803 -0.1808 -0.1041
15602TIP3    H168297   5.017   2.304  14.019  0.0647 -0.8403  0.5953
15602TIP3    H268298   5.010   2.430  14.102  0.4919 -0.7280  0.4644
15603TIP3   OH268299   3.391   4.359  12.906  0.2798 -0.0855  0.3702
15603TIP3    H168300   3.328   4.430  12.919  0.5186  0.2875 -0.4365
15603TIP3    H268301   3.417   4.333  12.994  2.6118  3.0147  0.7746
15604TIP3   OH268302   4.443   4.736   4.922 -0.3869 -0.1091  0.2160
15604TIP3    H168303   4.439   4.696   5.008 -0.3713 -0.2410  0.1561
15604TIP3    H268304   4.422   4.665   4.861  0.8516 -0.3443  0.0295
15605TIP3   OH268305   0.059   4.868  15.940  0.1765  0.1877  0.7826
15605TIP3    H168306   0.057   4.963  15.926  1.2756 -0.1909 -3.3200
15605TIP3    H268307   0.146   4.842  15.909 -0.3080 -2.2078  1.3213
15606TIP3   OH268308   4.431   4.911  15.433 -0.0191  0.4441 -0.0093
15606TIP3    H168309   4.432   4.904  15.528  0.1205 -1.7052 -0.1132
15606TIP3    H268310   4.367   4.846  15.405  1.2317 -0.2418 -1.4229
15607TIP3   OH268311   0.795   6.017   2.104 -0.0287  0.2640 -0.3926
15607TIP3    H168312   0.874   6.069   2.122  0.5154 -0.7307  0.1755
15607TIP3    H268313   0.794   6.008   2.008  0.1735  0.8507 -0.4540
15608TIP3   OH268314   2.709   5.086  14.679 -0.8387 -0.6439 -0.2570
15608TIP3    H168315   2.766   5.162  14.663 -1.0657 -0.6235 -1.0051
15608TIP3    H268316   2.658   5.111  14.756  0.2990 -0.7477  0.5461
15609TIP3   OH268317   5.335   1.920   5.197 -0.0785 -0.4018  0.5369
15609TIP3    H168318   5.352   2.006   5.158 -0.0730  0.0135  1.4181
15609TIP3    H268319   5.369   1.858   5.133  1.6930  0.3035  0.7248
15610TIP3   OH268320   2.725   5.108   5.350  0.5747  0.5252 -0.2895
15610TIP3    H168321   2.741   5.071   5.437 -2.3870  2.8469  1.4480
15610TIP3    H268322   2.810   5.143   5.323  1.3129  1.0457  2.3919
15611TIP3   OH268323   4.138   6.672   5.053  0.0830  0.6605  0.3304
15611TIP3    H168324   4.168   6.721   4.976  0.6973 -0.7970 -0.4083
15611TIP3    H268325   4.052   6.708   5.072 -0.6775  0.2143 -1.9030
15612TIP3   OH268326   5.129   4.733   1.266  0.0547 -0.2788  0.2229
15612TIP3    H168327   5.152   4.770   1.181  2.6094  0.1555  1.0225
15612TIP3    H268328   5.213   4.712   1.307 -1.1470 -2.8179  1.6557
15613TIP3   OH268329   1.315   3.807   2.773 -0.2904 -0.1481  0.3361
15613TIP3    H168330   1.362   3.789   2.691 -0.1532  0.1029  0.3566
15613TIP3    H268331   1.229   3.837   2.744 -0.8036 -1.5820  0.3191
15614TIP3   OH268332   2.823   3.011  11.401 -0.3749  0.4236 -0.7922
15614TIP3    H168333   2.796   2.939  11.459 -1.6646  0.4188 -1.3614
15614TIP3    H268334   2.892   3.056  11.449 -0.8832 -0.0429  0.4181
15615TIP3   OH268335   1.726   5.324   2.716  0.1446 -0.2851 -0.2990
15615TIP3    H168336   1.760   5.244   2.755  0.5875 -0.3294 -0.7555
15615TIP3    H268337   1.716   5.385   2.789  0.2585 -0.6008 -0.0192
15616TIP3   OH268338   4.643   4.833   2.339  0.4254 -0.0178  0.2901
15616TIP3    H168339   4.706   4.790   2.397  0.8838  0.0425 -0.1536
15616TIP3    H268340   4.585   4.881   2.397  0.0870 -0.9870  0.7802
15617TIP3   OH268341   6.253   6.067   4.774  0.2554  0.9650 -0.3265
15617TIP3    H168342   6.163   6.056   4.743 -0.4493  1.3108  1.4916
15617TIP3    H268343   6.300   6.104   4.699 -0.3897 -1.8793 -2.2808
15618TIP3   OH268344   4.000   0.289   4.012  0.0878  0.1606 -0.2737
15618TIP3    H168345   3.912   0.254   4.027  0.5019 -0.8529 -0.1803
15618TIP3    H268346   4.029   0.317   4.099 -0.1308  0.4974 -0.3043
15619TIP3   OH268347   3.184   2.858   6.168 -0.0185  0.1177  0.3189
15619TIP3    H168348   3.269   2.850   6.212  0.1849  0.1538 -0.0698
15619TIP3    H268349   3.203   2.842   6.076  0.0467  2.8149 -0.2128
15620TIP3   OH268350   5.923   4.367  12.651 -0.2763 -0.2568  0.3759
15620TIP3    H168351   5.869   4.407  12.719  0.3677 -0.1702  0.8416
15620TIP3    H268352   5.946   4.281  12.686  1.7321  0.5566  1.1799
15621TIP3   OH268353   0.781   5.757  11.358 -0.4087 -0.3003 -0.2439
15621TIP3    H168354   0.769   5.736  11.451  3.0397 -0.6194  0.2481
15621TIP3    H268355   0.714   5.822  11.339 -0.1659  1.0481  2.9702
15622TIP3   OH268356   5.405   5.757   2.881 -0.0131  0.3471 -0.3351
15622TIP3    H168357   5.426   5.776   2.789  1.8286 -1.3154 -0.3360
15622TIP3    H268358   5.483   5.712   2.914 -0.2217  1.7106  2.3403
15623TIP3   OH268359   1.148   3.833   3.350 -0.0391  0.1797 -0.6190
15623TIP3    H168360   1.071   3.801   3.396 -1.4090  2.4956 -1.1184
15623TIP3    H268361   1.220   3.821   3.413 -1.0881 -0.5871  0.4748
15624TIP3   OH268362   2.775   2.875   1.014 -0.2659  0.1143 -0.3592
15624TIP3    H168363   2.760   2.835   1.100 -1.3836 -0.4959 -0.8208
15624TIP3    H268364   2.801   2.965   1.033 -0.6083  0.0142  0.6133
15625TIP3   OH268365   0.270   5.628   2.702  0.1266 -0.3239 -0.0457
15625TIP3    H168366   0.211   5.702   2.715 -0.3086 -0.2766 -2.0882
15625TIP3    H268367   0.233   5.579   2.630  1.7091 -1.2001 -0.3133
15626TIP3   OH268368   3.986   0.702  17.106 -0.2802 -0.4046 -0.0091
15626TIP3    H168369   4.029   0.687  17.190 -0.4963  0.0568  0.1849
15626TIP3    H268370   3.998   0.795  17.089  1.4453 -0.8324 -1.4186
15627TIP3   OH268371   1.333   3.332   2.066 -0.6009  0.4065  0.6600
15627TIP3    H168372   1.262   3.363   2.122 -0.6227  0.9909  0.3153
15627TIP3    H268373   1.306   3.355   1.978 -0.0239  0.5439  0.5137
15628TIP3   OH268374   5.383   6.378   1.017 -0.1606  0.6939 -0.1815
15628TIP3    H168375   5.368   6.399   0.924 -0.5112  1.2918 -0.0006
15628TIP3    H268376   5.400   6.284   1.018 -0.2239  0.6661 -0.8459
15629TIP3   OH268377   3.589   4.801   4.392  0.2108 -0.3889  0.3249
15629TIP3    H168378   3.577   4.886   4.435  0.8314  0.3564 -0.9041
15629TIP3    H268379   3.663   4.761   4.437  0.8634  0.3808 -0.0391
15630TIP3   OH268380   5.940   2.584   0.135  0.0563 -0.5258 -0.4021
15630TIP3    H168381   6.019   2.610   0.088 -0.0982 -1.2786 -1.0837
15630TIP3    H268382   5.958   2.495   0.164 -0.1202 -0.3100  0.3863
15631TIP3   OH268383   0.210   2.038  11.848 -0.0785  0.4575  0.0441
15631TIP3    H168384   0.288   2.043  11.792 -1.1148  2.2947 -1.3410
15631TIP3    H268385   0.245   2.037  11.937  1.5700 -1.0722 -0.5437
15632TIP3   OH268386   1.102   6.790  12.603 -0.1033 -0.3711  0.3804
15632TIP3    H168387   1.027   6.737  12.576  0.7458 -0.8257 -1.2773
15632TIP3    H268388   1.092   6.801  12.697 -0.6474 -2.9967  0.7146
15633TIP3   OH268389   5.698   4.598  15.344  0.2336  0.0628  0.2846
15633TIP3    H168390   5.637   4.535  15.303 -0.9734  0.5048  1.3231
15633TIP3    H268391   5.643   4.674  15.363  1.1233  0.4706  1.2668
15634TIP3   OH268392   4.569   3.622   4.630  0.1977 -0.1160 -0.2477
15634TIP3    H168393   4.577   3.657   4.541 -0.9142  0.0688 -0.2866
15634TIP3    H268394   4.579   3.527   4.619  0.2691 -0.0753 -0.5400
15635TIP3   OH268395   5.937   4.290   5.400  0.9527  0.3812 -0.2382
15635TIP3    H168396   5.896   4.300   5.314  0.9443 -0.1317 -0.2974
15635TIP3    H268397   6.020   4.247   5.382  0.7155 -0.2042  0.0649
15636TIP3   OH268398   6.705   3.600  12.150 -0.4537  0.5003 -0.4664
15636TIP3    H168399   6.616   3.571  12.129 -0.1389  0.3353 -1.5838
15636TIP3    H268400   6.755   3.589  12.069  0.8571 -0.4023  0.4138
15637TIP3   OH268401   4.598   5.543  14.183 -0.4745 -0.5354  0.0003
15637TIP3    H168402   4.605   5.491  14.103 -0.0413  0.7485 -0.8302
15637TIP3    H268403   4.604   5.633  14.153  0.4686 -0.0437  1.5594
15638TIP3   OH268404   4.571   1.739  14.586  0.6237 -0.2513  0.6234
15638TIP3    H168405   4.515   1.817  14.583 -0.2532 -0.8870 -0.2525
15638TIP3    H268406   4.550   1.698  14.670  0.8708  0.2882  0.9563
15639TIP3   OH268407   3.425   1.379  16.024 -0.3974 -0.1969 -0.5296
15639TIP3    H168408   3.510   1.419  16.039 -1.1499  1.0478  0.6605
15639TIP3    H268409   3.413   1.318  16.097 -0.7224 -0.0093 -0.4211
15640TIP3   OH268410   2.398   5.675   1.645 -0.6170 -0.0209 -0.4131
15640TIP3    H168411   2.390   5.592   1.691 -3.1099  0.3735 -0.0344
15640TIP3    H268412   2.470   5.720   1.689  0.9844 -2.0444 -0.8221
15641TIP3   OH268413   0.833   6.059  16.793 -0.1863 -0.2210  0.1178
15641TIP3    H168414   0.872   5.975  16.767 -0.1530  0.2211 -1.3791
15641TIP3    H268415   0.803   6.045  16.883  3.1454 -0.6880  1.3144
15642TIP3   OH268416   0.788   6.698  16.006 -0.0770  0.3982 -0.0002
15642TIP3    H168417   0.875   6.669  15.978 -0.2339 -1.9796  1.6037
15642TIP3    H268418   0.783   6.672  16.099 -2.6693 -0.0626 -0.1863
15643TIP3   OH268419   5.167   6.334   2.190  0.4557 -0.4315  0.6402
15643TIP3    H168420   5.121   6.375   2.117  1.6784 -0.5190 -0.2198
15643TIP3    H268421   5.235   6.397   2.214  1.5562 -1.3764  0.1268
15644TIP3   OH268422   2.071   0.758   0.048  0.1079  0.2373  0.3484
15644TIP3    H168423   2.038   0.817  -0.020  2.4304  1.0063 -0.2031
15644TIP3    H268424   1.994   0.737   0.101 -1.3683  1.2789 -1.2824
15645TIP3   OH268425   2.434   5.315  14.274 -0.1341 -0.4567  0.4828
15645TIP3    H168426   2.454   5.353  14.360 -0.1122 -0.9280  0.6875
15645TIP3    H268427   2.377   5.380  14.232  2.1820  1.1736 -0.3358
15646TIP3   OH268428   6.314   4.943  11.833 -0.5798  0.3979  0.7543
15646TIP3    H168429   6.242   4.907  11.782  1.0036 -0.8934 -0.6579
15646TIP3    H268430   6.332   4.876  11.900 -0.4307  0.5445  0.8617
15647TIP3   OH268431   2.911   0.013  13.470 -0.0402 -0.1701 -0.5117
15647TIP3    H168432   2.916   0.042  13.379 -3.0813  0.6006 -0.5250
15647TIP3    H268433   2.886  -0.079  13.464  0.6228 -0.3665 -0.4121
15648TIP3   OH268434   4.108   1.410   4.419 -0.3343  0.0751  0.1875
15648TIP3    H168435   4.083   1.470   4.348  1.7118  1.6716  0.7339
15648TIP3    H268436   4.151   1.337   4.374 -1.8579 -0.5025 -0.4038
15649TIP3   OH268437   5.029   4.476  14.780 -0.1707 -0.3625 -0.6286
15649TIP3    H168438   4.977   4.443  14.707 -0.8206 -1.1989  0.1829
15649TIP3    H268439   5.119   4.479  14.747 -0.6831  1.1335 -2.0754
15650TIP3   OH268440   2.907   4.864   2.651 -0.3986 -0.3462 -0.5670
15650TIP3    H168441   2.907   4.780   2.697  0.1214  0.2232  0.4903
15650TIP3    H268442   2.815   4.879   2.628 -0.8337 -0.1346  1.2252
15651TIP3   OH268443   5.199   5.532   5.449 -0.1961  0.6632  0.4176
15651TIP3    H168444   5.207   5.580   5.532  0.4714  0.0475  0.7208
15651TIP3    H268445   5.218   5.441   5.472 -1.1213  0.2965 -0.2128
15652TIP3   OH268446   3.525   4.637  17.019 -0.2024  0.5333  0.4737
15652TIP3    H168447   3.602   4.607  16.971  0.3844  1.0934  1.0412
15652TIP3    H268448   3.507   4.724  16.984  0.3896  1.0586  1.4103
15653TIP3   OH268449   2.844   4.820   1.873  0.4986 -0.1376 -0.2048
15653TIP3    H168450   2.837   4.842   1.966 -0.3488 -1.3216  0.0230
15653TIP3    H268451   2.938   4.812   1.857  0.6598  0.3087  0.4878
15654TIP3   OH268452   6.360   6.312  15.178  0.0581  0.7333 -0.1673
15654TIP3    H168453   6.338   6.255  15.251 -0.2403  0.2152 -0.6587
15654TIP3    H268454   6.330   6.399  15.205 -2.6138  0.0787 -0.7990
15655TIP3   OH268455   6.513   3.168   5.853  1.0020 -0.0200  0.0351
15655TIP3    H168456   6.530   3.091   5.799 -1.3449 -0.7673  0.2301
15655TIP3    H268457   6.599   3.196   5.883  1.9450 -2.6028  0.0117
15656TIP3   OH268458   4.643   1.574   4.686 -0.0262 -0.1942  0.2139
15656TIP3    H168459   4.587   1.506   4.724 -0.8696  0.2910 -0.1572
15656TIP3    H268460   4.583   1.632   4.639  0.8524 -0.0184 -0.7194
15657TIP3   OH268461   3.393   3.872   3.663  0.1393 -0.0133 -0.3617
15657TIP3    H168462   3.299   3.862   3.646  0.2698  0.2746 -1.3249
15657TIP3    H268463   3.413   3.804   3.726 -0.4899 -0.8579 -1.0344
15658TIP3   OH268464   1.849   0.102  15.358  0.2017  0.0762  0.1106
15658TIP3    H168465   1.772   0.159  15.357  2.1228  3.0021 -2.8942
15658TIP3    H268466   1.913   0.149  15.413  0.9308 -0.5734 -0.1612
15659TIP3   OH268467   6.486   2.848   0.344 -0.2206  0.4602 -0.1990
15659TIP3    H168468   6.506   2.777   0.406  1.6769 -0.7136 -2.0562
15659TIP3    H268469   6.412   2.894   0.385 -0.9558 -2.0133  1.5311
15660TIP3   OH268470   0.588   2.704   5.481 -0.2603 -0.0937 -0.0345
15660TIP3    H168471   0.526   2.632   5.472  2.1663 -2.4609  0.7854
15660TIP3    H268472   0.673   2.661   5.487  1.2383  2.8171  1.5089
15661TIP3   OH268473   5.557   4.578   2.443  0.0218 -0.2972 -0.7313
15661TIP3    H168474   5.635   4.573   2.387 -0.0506  3.2683 -1.3795
15661TIP3    H268475   5.592   4.587   2.532  0.4507  1.8061 -1.0666
15662TIP3   OH268476   0.133   1.107   3.721 -0.1639 -0.5733  0.0272
15662TIP3    H168477   0.125   1.196   3.754 -0.2580 -0.3035 -0.7085
15662TIP3    H268478   0.092   1.053   3.788 -0.2309 -0.0495  0.4142
15663TIP3   OH268479   0.808   4.643   6.896  0.4644 -0.0240  0.1096
15663TIP3    H168480   0.777   4.709   6.958 -0.3222 -0.8504  0.6040
15663TIP3    H268481   0.805   4.561   6.944  0.3810 -0.5950 -0.8513
15664TIP3   OH268482   1.955   2.743  15.629  0.7217  0.3181  0.4286
15664TIP3    H168483   1.901   2.686  15.683 -0.3751  0.6596 -0.2761
15664TIP3    H268484   1.895   2.776  15.562  1.5109  1.6832  0.3651
15665TIP3   OH268485   0.905   5.475   1.058  0.2449 -0.5206  0.0776
15665TIP3    H168486   0.820   5.513   1.081  1.0705  1.7172 -0.2576
15665TIP3    H268487   0.920   5.408   1.123 -1.7433 -0.9346  0.1841
15666TIP3   OH268488   1.475   0.970   2.031  0.0055  0.2388 -0.7818
15666TIP3    H168489   1.383   0.989   2.015  0.1846  1.3338 -0.5724
15666TIP3    H268490   1.482   0.969   2.127 -0.0723 -1.3338 -0.7659
15667TIP3   OH268491   1.026   5.261   5.804 -0.2565  0.5687 -0.2089
15667TIP3    H168492   1.041   5.170   5.833 -1.0246  0.7799  0.9087
15667TIP3    H268493   1.037   5.258   5.709  0.9270 -0.4503 -0.0743
15668TIP3   OH268494   5.309   4.833  12.829 -0.0667 -0.9978  0.2078
15668TIP3    H168495   5.237   4.887  12.797  0.5356 -0.5968 -0.5306
15668TIP3    H268496   5.384   4.858  12.774  0.4967 -1.8047  0.5758
15669TIP3   OH268497   1.823   6.222  13.601  0.2653 -1.0164  0.0849
15669TIP3    H168498   1.806   6.177  13.518  1.6869 -0.3164 -0.6165
15669TIP3    H268499   1.849   6.152  13.662 -1.2403 -1.5923  0.1035
15670TIP3   OH268500   2.681   6.333  13.554  0.4822 -0.1029 -0.4393
15670TIP3    H168501   2.737   6.401  13.516  1.1395  0.6776  1.7353
15670TIP3    H268502   2.600   6.380  13.575  0.7639 -0.0817  0.6401
15671TIP3   OH268503   4.715   0.229   2.387  0.6094  0.4719  0.0182
15671TIP3    H168504   4.665   0.264   2.460  0.4898  0.7989 -0.2178
15671TIP3    H268505   4.660   0.246   2.310 -0.0440 -1.3614  0.0345
15672TIP3   OH268506   2.406   1.009   4.222  0.1787  0.1299  0.4207
15672TIP3    H168507   2.317   1.020   4.255 -0.5111 -0.8754 -1.0054
15672TIP3    H268508   2.460   1.061   4.281 -1.5041  1.8708  0.5231
15673TIP3   OH268509   1.726   5.246   5.169  0.5443  0.8162  0.1622
15673TIP3    H168510   1.694   5.159   5.143  1.2965  1.0698 -1.7810
15673TIP3    H268511   1.710   5.250   5.263  0.3815 -1.3777  0.2793
15674TIP3   OH268512   4.427   5.641   2.018  0.1178  0.3682  0.4336
15674TIP3    H168513   4.522   5.645   2.027 -0.0140 -0.3438  2.9273
15674TIP3    H268514   4.394   5.685   2.096 -1.5630 -1.0909  0.6150
15675TIP3   OH268515   5.347   3.932  12.485 -0.2154 -0.2612  0.2837
15675TIP3    H168516   5.414   3.866  12.501  1.0202  1.0760  0.8676
15675TIP3    H268517   5.319   3.960  12.572  0.2910  0.9390  0.0890
15676TIP3   OH268518   6.531   2.688   0.564 -0.4254 -0.1959  0.3845
15676TIP3    H168519   6.540   2.711   0.657  1.2485  0.5182  0.0832
15676TIP3    H268520   6.436   2.679   0.551 -0.7728  0.8334  1.8827
15677TIP3   OH268521   0.187   0.696   5.416  0.5654  0.4384  0.2870
15677TIP3    H168522   0.151   0.709   5.504  0.3044  3.3948 -0.1391
15677TIP3    H268523   0.111   0.682   5.361  0.6186 -0.0032  0.3238
15678TIP3   OH268524   3.454   4.848  14.650  0.0602  0.1168 -0.3512
15678TIP3    H168525   3.370   4.893  14.644 -0.3497 -0.2259  1.7920
15678TIP3    H268526   3.506   4.903  14.708  0.4787 -0.8315  0.1884
15679TIP3   OH268527   6.469   3.523   5.875  0.0239  0.5999  0.0237
15679TIP3    H168528   6.539   3.504   5.813  1.7332 -0.2020  2.0822
15679TIP3    H268529   6.413   3.446   5.871  1.4866 -0.5798  1.1839
15680TIP3   OH268530   0.415   2.753   0.582  0.1767  0.0715 -0.4937
15680TIP3    H168531   0.499   2.792   0.606 -1.1681  1.5268  2.2637
15680TIP3    H268532   0.379   2.813   0.517  0.2377  0.7985  0.1288
15681TIP3   OH268533   0.952   6.308   0.249  0.6718 -0.0197 -0.0134
15681TIP3    H168534   0.898   6.244   0.203 -0.6746 -0.0040  1.4577
15681TIP3    H268535   0.951   6.279   0.340  2.8028  0.2573  0.1502
15682TIP3   OH268536   2.328   3.798  13.112 -0.4967  0.6488  0.1367
15682TIP3    H168537   2.294   3.862  13.174 -3.8385 -1.3788  0.6581
15682TIP3    H268538   2.250   3.756  13.076  1.4556 -2.1351 -1.2437
15683TIP3   OH268539   4.283   2.540  13.131  0.4212  0.5389 -0.8670
15683TIP3    H168540   4.279   2.616  13.188 -0.7362 -0.0344 -0.1390
15683TIP3    H268541   4.253   2.571  13.045 -1.5564  0.6173 -0.2065
15684TIP3   OH268542   0.894   0.326   1.601 -0.4929 -0.6894 -0.0164
15684TIP3    H168543   0.832   0.362   1.537 -2.3317 -1.1462  1.4228
15684TIP3    H268544   0.895   0.232   1.583 -0.5196 -0.7338  0.2111
15685TIP3   OH268545   5.405   6.096   0.992 -0.1408  0.6290 -0.5232
15685TIP3    H168546   5.330   6.054   0.948  1.1214 -2.5412  0.0456
15685TIP3    H268547   5.469   6.110   0.922 -0.3314  1.0376 -0.6165
15686TIP3   OH268548   6.149   2.426  13.015  0.3060 -0.4663  0.2963
15686TIP3    H168549   6.170   2.346  13.063 -1.8912 -1.6897 -0.6089
15686TIP3    H268550   6.075   2.464  13.064  1.2257  0.9743  0.6309
15687TIP3   OH268551   2.283   3.046   3.386  0.4923  0.3256  0.4585
15687TIP3    H168552   2.327   2.962   3.399 -0.7410 -0.2945  0.7655
15687TIP3    H268553   2.268   3.078   3.475  0.2689  0.5023  0.3551
15688TIP3   OH268554   1.663   3.015  14.933 -0.5112 -0.4004  0.0002
15688TIP3    H168555   1.668   3.064  14.851  0.6961  0.2086  0.4073
15688TIP3    H268556   1.570   3.016  14.956 -0.5479  1.7672  0.0078
15689TIP3   OH268557   2.581   0.716  17.065  0.2292 -0.1643  0.2448
15689TIP3    H168558   2.549   0.683  16.982  1.9316 -1.0270 -0.1163
15689TIP3    H268559   2.634   0.792  17.041  1.7197 -1.1235  0.3724
15690TIP3   OH268560   3.115   3.849   3.679  0.3416  0.4747  0.1696
15690TIP3    H168561   3.074   3.769   3.647  3.4357 -1.3778  0.4586
15690TIP3    H268562   3.066   3.920   3.637 -0.6372 -1.6237 -2.4918
15691TIP3   OH268563   4.312   5.061   0.467 -0.2504 -0.2163  0.6113
15691TIP3    H168564   4.276   5.060   0.556  0.5735 -3.0019  0.9785
15691TIP3    H268565   4.249   5.012   0.415  0.9192 -1.5271  0.3893
15692TIP3   OH268566   3.465   0.163  13.784  0.3740  0.1955  0.8584
15692TIP3    H168567   3.508   0.248  13.792 -0.6621  0.7361  0.8713
15692TIP3    H268568   3.512   0.106  13.845  0.1616  1.1374  1.9405
15693TIP3   OH268569   6.357   3.597   2.910  0.1980  0.5453 -0.7037
15693TIP3    H168570   6.330   3.688   2.912  0.3024  0.5781  1.2772
15693TIP3    H268571   6.299   3.556   2.846  1.1402  2.2426 -2.7700
15694TIP3   OH268572   1.214   0.343   2.787  0.5474 -0.0114  0.1027
15694TIP3    H168573   1.306   0.332   2.763  0.5719  0.9401 -0.2975
15694TIP3    H268574   1.213   0.339   2.882  0.6830 -2.1996  0.0656
15695TIP3   OH268575   5.807   0.825   4.820 -0.2522 -1.1277 -0.2056
15695TIP3    H168576   5.810   0.770   4.742  0.6132  1.0766 -1.8193
15695TIP3    H268577   5.720   0.866   4.817  0.1783 -0.2191 -0.6478
15696TIP3   OH268578   1.435   2.166  14.178 -0.0728  0.0952  0.0387
15696TIP3    H168579   1.402   2.195  14.093  0.5651  2.1427  0.4470
15696TIP3    H268580   1.465   2.076  14.163  0.1560  0.4704 -1.9294
15697TIP3   OH268581   4.263   5.363   3.739  0.7173  0.3741  0.1118
15697TIP3    H168582   4.307   5.383   3.822 -1.1214  0.1911  1.1767
15697TIP3    H268583   4.172   5.387   3.754 -0.1293 -1.8239 -1.0501
15698TIP3   OH268584   4.715   2.479   2.976  0.3938 -0.1803  0.1459
15698TIP3    H168585   4.710   2.519   2.889 -0.3308  1.2249  0.8098
15698TIP3    H268586   4.661   2.400   2.969 -0.7902  0.6420 -0.3146
15699TIP3   OH268587   1.185   4.345   3.454 -0.0330  0.2318 -0.5040
15699TIP3    H168588   1.138   4.277   3.405 -0.7275  0.7085 -0.5064
15699TIP3    H268589   1.234   4.393   3.388 -0.6433  0.6116 -0.6924
15700TIP3   OH268590   2.689   1.295  11.790  0.3496 -0.4717 -0.3304
15700TIP3    H168591   2.739   1.368  11.825  1.0944 -0.4529 -1.3999
15700TIP3    H268592   2.754   1.231  11.762 -0.2782 -1.3352  0.1134
15701TIP3   OH268593   1.188   4.258  15.533  0.3993 -0.2425 -0.2878
15701TIP3    H168594   1.182   4.276  15.627 -0.7548  0.3318 -0.4500
15701TIP3    H268595   1.098   4.269  15.501  0.8026 -0.2962 -1.4881
15702TIP3   OH268596   1.000   6.128   0.533 -0.1809  0.0917  0.1092
15702TIP3    H168597   1.045   6.052   0.570  0.3779  0.4154  0.0973
15702TIP3    H268598   1.070   6.186   0.503 -0.5882  0.9898  0.8576
15703TIP3   OH268599   2.136   1.518   5.205  0.3696  0.7121 -0.2122
15703TIP3    H168600   2.114   1.549   5.292  1.1430  0.3276  0.1327
15703TIP3    H268601   2.224   1.481   5.214  0.1602 -0.0102 -0.9840
15704TIP3   OH268602   0.766   1.064   3.256  0.2507  0.2612  0.0665
15704TIP3    H168603   0.783   1.074   3.163  1.3554 -1.2006  0.0767
15704TIP3    H268604   0.818   1.134   3.297 -0.4506  1.0743 -0.4082
15705TIP3   OH268605   4.678   4.838  11.088 -0.6325  0.2595 -0.0577
15705TIP3    H168606   4.720   4.827  11.002 -1.4371 -0.5760 -0.3603
15705TIP3    H268607   4.647   4.751  11.111 -1.4648  0.7050  0.5439
15706TIP3   OH268608   4.057   3.926   3.273 -0.2736  0.0962  0.0257
15706TIP3    H168609   4.098   3.851   3.232 -1.5889  0.4148 -2.0053
15706TIP3    H268610   3.985   3.889   3.324 -0.7042 -0.0598 -0.6889
15707TIP3   OH268611   6.484   0.035   4.433  0.2753 -0.2677 -0.4291
15707TIP3    H168612   6.454   0.114   4.389 -3.0505 -0.6947  0.7818
15707TIP3    H268613   6.418  -0.031   4.411 -0.7270 -0.9297  3.7158
15708TIP3   OH268614   1.420   4.666  11.650 -0.2927 -0.3515 -0.4645
15708TIP3    H168615   1.432   4.591  11.707 -0.0087  0.5141  0.6676
15708TIP3    H268616   1.325   4.676  11.643 -0.3394 -0.1932  0.2603
15709TIP3   OH268617   4.898   6.700  12.960  0.5010  0.9094  0.4509
15709TIP3    H168618   4.933   6.621  12.918 -1.2323  0.3542 -0.0183
15709TIP3    H268619   4.909   6.768  12.894 -3.9878 -0.3274 -1.9932
15710TIP3   OH268620   1.889   1.990  15.148  0.4841 -0.0388 -0.4815
15710TIP3    H168621   1.845   2.032  15.074  0.3636 -0.7820 -0.8395
15710TIP3    H268622   1.928   2.063  15.197  1.3547  0.4043 -1.7805
15711TIP3   OH268623   6.218   1.003   1.347 -0.5156 -0.7240 -0.2734
15711TIP3    H168624   6.307   1.040   1.345 -1.2521  1.1466 -1.0738
15711TIP3    H268625   6.231   0.909   1.358  1.6060 -0.6371 -1.5115
15712TIP3   OH268626   4.872   1.256  14.078 -0.1365  0.2212  0.1379
15712TIP3    H168627   4.862   1.162  14.062 -0.7890  0.0501  1.3745
15712TIP3    H268628   4.966   1.271  14.077  0.0553 -0.7567  1.4680
15713TIP3   OH268629   1.175   2.039   1.779  0.4184 -0.6283 -0.3816
15713TIP3    H168630   1.136   2.122   1.752  1.4225 -0.0267 -0.0366
15713TIP3    H268631   1.257   2.064   1.822  2.0206 -1.9067 -2.4911
15714TIP3   OH268632   1.283   2.542  13.527 -0.2713 -0.1616  0.0033
15714TIP3    H168633   1.231   2.515  13.452 -0.6953 -2.0220  0.8856
15714TIP3    H268634   1.369   2.502  13.512 -0.6504 -1.4015  0.9224
15715TIP3   OH268635   1.522   3.205   6.490  0.4451 -0.1736  0.9764
15715TIP3    H168636   1.599   3.220   6.436  2.0227 -0.7027  2.9821
15715TIP3    H268637   1.538   3.254   6.570 -1.4585 -0.0478  1.3269
15716TIP3   OH268638   1.816   5.814   5.370 -0.3583  0.2217  0.1411
15716TIP3    H168639   1.814   5.886   5.433 -0.4395  0.7493 -0.4648
15716TIP3    H268640   1.861   5.743   5.417  0.3366  0.8886  0.4950
15717TIP3   OH268641   3.029   1.277  15.597 -0.4112  0.0454 -0.0709
15717TIP3    H168642   3.003   1.369  15.589 -1.0786 -0.2048 -0.9380
15717TIP3    H268643   3.073   1.272  15.682  0.7706  1.4284 -0.5560
15718TIP3   OH268644   2.918   0.648   1.266  0.5095  0.2955 -0.1305
15718TIP3    H168645   2.881   0.560   1.265  1.1481 -0.0275  1.0790
15718TIP3    H268646   2.843   0.707   1.257  0.1209 -0.3653 -1.3727
15719TIP3   OH268647   5.527   3.961  16.828  0.0512 -0.0410 -0.1231
15719TIP3    H168648   5.608   3.910  16.822  0.9146  1.2277  0.4029
15719TIP3    H268649   5.554   4.045  16.864 -1.6256  0.1563  0.7595
15720TIP3   OH268650   3.093   0.641  10.466 -0.2696 -0.3613  0.2611
15720TIP3    H168651   3.051   0.586  10.532 -0.1087 -0.1587  0.5356
15720TIP3    H268652   3.024   0.701  10.437  0.3195  1.3573  2.2115
15721TIP3   OH268653   1.116   5.655  12.009 -0.1644  0.2983  0.0801
15721TIP3    H168654   1.021   5.648  11.996  0.0967 -1.7965 -1.0760
15721TIP3    H268655   1.146   5.709  11.935 -0.0836 -2.1462 -1.8092
15722TIP3   OH268656   4.829   1.173  12.357  0.2944  0.1469 -0.6249
15722TIP3    H168657   4.743   1.144  12.387 -0.2443 -0.1417 -2.3729
15722TIP3    H268658   4.861   1.229  12.428 -1.2527  0.1453  0.1195
15723TIP3   OH268659   0.907   0.613  10.304 -0.2253 -0.4853  0.8232
15723TIP3    H168660   0.814   0.618  10.326 -0.8791  0.5777 -1.7956
15723TIP3    H268661   0.919   0.528  10.263  0.2048 -0.9928  1.9465
15724TIP3   OH268662   3.285   6.796  16.461 -0.4084 -0.1532 -0.2129
15724TIP3    H168663   3.275   6.723  16.400 -3.4296  0.8689 -1.1352
15724TIP3    H268664   3.310   6.870  16.406  1.3370 -0.1405  0.5278
15725TIP3   OH268665   2.743   3.679   4.479 -0.3164  0.2204 -0.3394
15725TIP3    H168666   2.801   3.648   4.548  0.8493  0.8341 -1.0306
15725TIP3    H268667   2.752   3.614   4.409 -3.0743 -1.5798  0.7937
15726TIP3   OH268668   1.171   2.367  14.586  0.4889  0.1303  0.9423
15726TIP3    H168669   1.076   2.367  14.575  0.1905 -1.5743  2.9968
15726TIP3    H268670   1.185   2.378  14.680  2.3110 -0.3240  0.7639
15727TIP3   OH268671   4.880   4.835   1.325  0.0179  0.0861 -0.2612
15727TIP3    H168672   4.963   4.789   1.335  0.7634  1.4323 -0.0233
15727TIP3    H268673   4.902   4.916   1.278 -1.4641 -0.3677 -1.8842
15728TIP3   OH268674   4.682   3.827  14.091  0.4202  0.3080  0.2421
15728TIP3    H168675   4.746   3.866  14.033  0.5068  0.1491  0.2296
15728TIP3    H268676   4.624   3.778  14.033  0.8170 -0.2835  0.3368
15729TIP3   OH268677   2.378   0.161  16.630  0.2673  0.5071  0.5409
15729TIP3    H168678   2.320   0.119  16.694 -0.2651 -0.1471 -0.3350
15729TIP3    H268679   2.414   0.087  16.581  1.9187  0.9021  1.1143
15730TIP3   OH268680   3.763   2.640  12.440  1.4314 -0.4531 -0.3638
15730TIP3    H168681   3.699   2.583  12.483  1.3905  0.0113  0.2148
15730TIP3    H268682   3.742   2.635  12.347  0.9060 -0.7364 -0.2323
15731TIP3   OH268683   0.031   5.365  15.633 -0.2856  0.6685 -0.3080
15731TIP3    H168684   0.123   5.373  15.660 -0.2955  0.8081 -0.3130
15731TIP3    H268685   0.032   5.298  15.564 -0.2344  0.4374 -0.0859
15732TIP3   OH268686   6.389   6.178  11.105 -0.1898 -0.4989 -0.2924
15732TIP3    H168687   6.353   6.259  11.140 -0.6969 -0.5607 -0.6630
15732TIP3    H268688   6.376   6.114  11.175 -3.7629 -1.3213 -1.5204
15733TIP3   OH268689   5.528   0.855   2.725  0.2984 -0.1591 -0.2123
15733TIP3    H168690   5.462   0.914   2.763  1.9927  1.0884  1.0165
15733TIP3    H268691   5.479   0.798   2.666 -1.4949  2.4640 -1.4835
15734TIP3   OH268692   2.693   6.040  14.939 -0.3179 -0.4229 -0.5514
15734TIP3    H168693   2.725   5.971  14.998  1.5878  0.0962 -0.9266
15734TIP3    H268694   2.643   6.099  14.996  0.7660 -0.3978  0.4122
15735TIP3   OH268695   2.866   5.493  14.131  0.4272  0.0890 -0.0081
15735TIP3    H168696   2.847   5.492  14.225  0.3923  0.9735  0.0026
15735TIP3    H268697   2.919   5.571  14.118  0.4429 -0.0370 -0.7272
15736TIP3   OH268698   5.013   4.779   6.714 -0.1547 -0.0655  0.0777
15736TIP3    H168699   4.942   4.739   6.764 -0.5083 -0.9950 -1.1121
15736TIP3    H268700   5.083   4.791   6.778 -1.3052  0.7440  1.2518
15737TIP3   OH268701   4.952   5.113  13.737  0.2665  0.0856 -0.9033
15737TIP3    H168702   4.996   5.046  13.684  0.9158  0.0005 -0.2757
15737TIP3    H268703   5.023   5.174  13.761  0.3183 -0.7465  1.1961
15738TIP3   OH268704   5.649   3.718   1.134 -0.5784  0.3628 -0.2979
15738TIP3    H168705   5.669   3.665   1.057  0.2571  0.4353 -0.1432
15738TIP3    H268706   5.576   3.674   1.176  0.9844 -1.5163  0.6255
15739TIP3   OH268707   0.267   4.503  16.005  0.1870 -0.4334  0.2330
15739TIP3    H168708   0.262   4.547  16.089  0.0585 -0.8520  0.4500
15739TIP3    H268709   0.196   4.439  16.008  0.1297 -0.3913 -0.2268
15740TIP3   OH268710   1.616   4.986   4.125  0.3190 -1.2294 -0.1369
15740TIP3    H168711   1.541   5.045   4.128  1.4551  0.3902 -1.7845
15740TIP3    H268712   1.626   4.956   4.216 -1.4107 -0.3684  0.3938
15741TIP3   OH268713   6.040   0.776   6.611 -0.2836 -0.5182 -0.0993
15741TIP3    H168714   6.034   0.701   6.670  0.1433 -0.3121  0.2153
15741TIP3    H268715   5.971   0.763   6.547 -1.8279  0.0809  1.3773
15742TIP3   OH268716   6.539   0.839  16.442 -0.0213 -0.1421  0.4395
15742TIP3    H168717   6.537   0.790  16.525  2.0219  0.3340  0.8452
15742TIP3    H268718   6.473   0.908  16.453 -0.5330 -0.7372  1.2331
15743TIP3   OH268719   3.783   6.484   3.920 -0.0920 -0.0142 -0.0926
15743TIP3    H168720   3.702   6.438   3.901  0.8469 -1.1649 -1.6145
15743TIP3    H268721   3.799   6.538   3.843  0.6837  0.0244  0.0830
15744TIP3   OH268722   4.309   4.338  16.750  0.3655  0.0108 -0.0331
15744TIP3    H168723   4.294   4.426  16.714  2.5693 -0.4127 -2.2947
15744TIP3    H268724   4.356   4.353  16.832 -2.7446  0.9630  1.7158
15745TIP3   OH268725   0.822   0.408   3.316  0.1163 -0.3454  0.0574
15745TIP3    H168726   0.766   0.356   3.374 -1.4025  0.1191 -0.9547
15745TIP3    H268727   0.845   0.349   3.245 -1.4535  0.2596 -0.9943
15746TIP3   OH268728   3.826   6.665   1.128  0.1390 -0.3655  0.2384
15746TIP3    H168729   3.884   6.663   1.052 -0.4921  0.2531 -0.2790
15746TIP3    H268730   3.876   6.623   1.198  0.7096 -1.0088 -0.5307
15747TIP3   OH268731   0.625   5.141  16.060  0.1127  0.5140  0.4640
15747TIP3    H168732   0.627   5.046  16.053  0.4876  0.4524  1.3178
15747TIP3    H268733   0.706   5.170  16.019 -0.6366  0.5755 -1.0627
15748TIP3   OH268734   1.062   2.954  14.361  0.2019  0.2498 -0.4130
15748TIP3    H168735   1.156   2.939  14.353 -0.0209 -0.6653 -1.6019
15748TIP3    H268736   1.024   2.913  14.284 -1.3984 -1.3879  1.1318
15749TIP3   OH268737   6.073   4.442   0.178 -0.1294  0.2093  0.3654
15749TIP3    H168738   6.134   4.378   0.142  0.1820  0.7847 -0.1545
15749TIP3    H268739   6.023   4.473   0.103  2.1076  3.1527 -0.1169
15750TIP3   OH268740   5.556   1.842   0.341  0.0915  0.4084  0.0223
15750TIP3    H168741   5.585   1.925   0.305  1.4836  0.9050  2.0900
15750TIP3    H268742   5.463   1.855   0.360  0.3743  1.6691  0.6737
15751TIP3   OH268743   4.891   5.729   4.392  0.2229  0.6470  0.2117
15751TIP3    H168744   4.818   5.787   4.411  0.0148  0.3883  0.2178
15751TIP3    H268745   4.955   5.747   4.460  0.0632  0.7085  0.3474
15752TIP3   OH268746   5.636   4.704  15.924  0.5241  0.1663  0.8186
15752TIP3    H168747   5.586   4.736  15.999 -0.6139 -0.6341  0.4178
15752TIP3    H268748   5.654   4.612  15.945  2.3981  0.5708  1.2347
15753TIP3   OH268749   2.823   4.870   3.619 -0.0868 -0.1506  0.1495
15753TIP3    H168750   2.763   4.939   3.588 -0.4279 -0.7763 -0.6198
15753TIP3    H268751   2.771   4.819   3.681  0.6750  1.2612  2.0776
15754TIP3   OH268752   1.675   1.803   3.968 -0.0319  0.4283 -0.7709
15754TIP3    H168753   1.596   1.856   3.955  0.1616  0.5592 -1.4218
15754TIP3    H268754   1.657   1.722   3.921 -0.0105  0.2293 -0.4355
15755TIP3   OH268755   5.144   1.270   2.738  0.1823  0.5620  0.0854
15755TIP3    H168756   5.088   1.316   2.800 -1.5008  0.6873 -1.4481
15755TIP3    H268757   5.186   1.339   2.686 -2.1909  0.5106 -2.0828
15756TIP3   OH268758   0.354   0.506  14.124 -0.1981 -0.6247 -0.8791
15756TIP3    H168759   0.266   0.506  14.087 -0.7890  2.9061  0.1383
15756TIP3    H268760   0.412   0.497  14.049 -1.3817 -1.6323 -1.7081
15757TIP3   OH268761   3.083   4.753   0.885 -0.3683  0.5866  0.7967
15757TIP3    H168762   3.098   4.742   0.792 -2.3081  0.5156  0.4381
15757TIP3    H268763   3.100   4.667   0.923  0.0247  0.5111  0.4557
15758TIP3   OH268764   2.341   5.802  14.627 -0.0826 -0.7421 -0.7153
15758TIP3    H168765   2.288   5.752  14.565 -1.3118  0.5054 -0.7355
15758TIP3    H268766   2.281   5.870  14.659  1.3967  0.4549 -0.3869
15759TIP3   OH268767   4.903   1.257   4.689 -0.4670  0.1638  0.5208
15759TIP3    H168768   4.905   1.242   4.783  0.2477 -1.0703  0.3288
15759TIP3    H268769   4.810   1.253   4.665 -0.6133  0.0368  1.1037
15760TIP3   OH268770   4.854   3.370   0.692 -0.1706  0.0820 -0.0827
15760TIP3    H168771   4.899   3.392   0.611 -1.2626 -0.3762 -0.8495
15760TIP3    H268772   4.793   3.300   0.667  0.1821 -0.7717  1.3508
15761TIP3   OH268773   5.257   3.692   4.434 -0.0636 -0.1801 -0.1496
15761TIP3    H168774   5.218   3.661   4.352 -1.2055  2.5696 -0.7376
15761TIP3    H268775   5.221   3.780   4.447  0.9974 -0.0484  2.7127
15762TIP3   OH268776   2.720   0.206   0.196 -0.5449  0.0799 -0.1216
15762TIP3    H168777   2.769   0.136   0.239  0.3984  1.7605  1.6894
15762TIP3    H268778   2.772   0.229   0.119  0.1194  0.0394  0.3126
15763TIP3   OH268779   3.818   6.040  16.627  0.0691 -0.3055 -0.2945
15763TIP3    H168780   3.788   6.051  16.718  1.2373 -0.7193  0.1638
15763TIP3    H268781   3.875   6.115  16.612  0.9935 -0.9711 -0.1944
15764TIP3   OH268782   4.717   5.277  12.468 -0.3196  0.0382 -0.7271
15764TIP3    H168783   4.655   5.308  12.534  0.5822  0.8606 -0.2387
15764TIP3    H268784   4.721   5.348  12.404  1.9262  1.1476  0.5077
15765TIP3   OH268785   1.226   0.006   3.303  0.5278  0.1445 -0.0383
15765TIP3    H168786   1.296  -0.035   3.354 -0.0449 -1.2423 -0.3102
15765TIP3    H268787   1.146  -0.012   3.352  0.1665  0.2513 -0.5712
15766TIP3   OH268788   4.377   2.584  13.614  0.0065  0.5076  0.2096
15766TIP3    H168789   4.423   2.529  13.551  0.2056 -0.4427  1.1679
15766TIP3    H268790   4.389   2.540  13.698  0.2340  2.0437  1.0182
15767TIP3   OH268791   2.941   1.681  16.825  0.4674  0.0734  1.0265
15767TIP3    H168792   2.876   1.634  16.877  1.8502 -0.6201  2.2418
15767TIP3    H268793   2.925   1.773  16.843  0.8033 -0.1436  2.6222
15768TIP3   OH268794   5.632   5.341   3.506  0.0577 -0.5795 -0.5156
15768TIP3    H168795   5.636   5.398   3.430 -0.3067  2.8404  1.7749
15768TIP3    H268796   5.539   5.323   3.519  0.0416 -0.3815 -0.3554
15769TIP3   OH268797   0.682   4.009  10.923 -0.0556 -0.4808  0.3301
15769TIP3    H168798   0.773   3.985  10.908  0.7189  2.0521  0.5249
15769TIP3    H268799   0.644   3.933  10.966  1.9434 -1.6170  0.2050
15770TIP3   OH268800   3.578   4.720  16.556 -0.1441  0.0637  0.4989
15770TIP3    H168801   3.574   4.653  16.624 -1.0033 -0.5308 -0.1102
15770TIP3    H268802   3.665   4.759  16.565 -0.6655  0.8391  2.7013
15771TIP3   OH268803   0.787   6.128   5.342  0.2368 -0.0607  0.2577
15771TIP3    H168804   0.801   6.153   5.433  0.7272  1.9977 -0.3396
15771TIP3    H268805   0.751   6.039   5.347 -0.4065  0.2638  2.4734
15772TIP3   OH268806   2.474   1.258  15.372 -0.5664 -0.2882  0.1448
15772TIP3    H168807   2.547   1.209  15.333 -1.4824 -1.1358 -0.5484
15772TIP3    H268808   2.469   1.227  15.462 -0.8813 -1.1973 -0.1760
15773TIP3   OH268809   6.614   4.297   0.836 -0.0594  0.5039  0.0912
15773TIP3    H168810   6.699   4.281   0.796 -1.0154  0.2428 -1.9919
15773TIP3    H268811   6.578   4.371   0.788 -1.0089  0.6330  0.9477
15774TIP3   OH268812   4.728   4.687  14.476  0.0501 -0.5651  0.0301
15774TIP3    H168813   4.737   4.614  14.537 -0.8312 -1.3136 -0.7093
15774TIP3    H268814   4.818   4.718  14.462  0.5328 -2.0587 -0.2937
15775TIP3   OH268815   1.160   0.218  11.431 -0.3292  0.0107 -0.4602
15775TIP3    H168816   1.205   0.164  11.365 -0.8969 -1.4432  0.2876
15775TIP3    H268817   1.068   0.216  11.405 -0.5280 -0.4151  0.2677
15776TIP3   OH268818   6.556   4.437  14.513 -0.1015  0.0677 -0.4008
15776TIP3    H168819   6.646   4.435  14.481 -0.4202  1.0733 -1.4261
15776TIP3    H268820   6.564   4.461  14.605  0.8467 -3.0053  0.4520
15777TIP3   OH268821   3.552   6.811  15.989 -0.6363  0.1806  0.2872
15777TIP3    H168822   3.624   6.874  15.977  0.3729 -0.6564  1.6205
15777TIP3    H268823   3.568   6.743  15.924 -0.0587 -0.1258  0.7388
15778TIP3   OH268824   4.448   0.299   1.635 -0.3303  0.2433 -0.0104
15778TIP3    H168825   4.377   0.355   1.604  0.2416  0.7367 -0.4699
15778TIP3    H268826   4.512   0.299   1.563 -0.3070 -1.0007 -0.0180
15779TIP3   OH268827   5.219   4.472   0.622 -0.2878  0.2226 -0.1844
15779TIP3    H168828   5.198   4.474   0.716 -0.2715 -0.6963 -0.1539
15779TIP3    H268829   5.192   4.558   0.590  0.9736  1.0806  0.9253
15780TIP3   OH268830   5.776   6.722  12.582  0.6365 -0.1588  0.0413
15780TIP3    H168831   5.841   6.752  12.645  1.4724 -0.7861 -0.4956
15780TIP3    H268832   5.751   6.800  12.533  1.2100  0.0412  0.0656
15781TIP3   OH268833   1.123   5.123   0.286 -0.2171  0.0861  0.0966
15781TIP3    H168834   1.199   5.111   0.343 -1.5577 -1.0634  1.7693
15781TIP3    H268835   1.090   5.210   0.308  0.0953  0.2258  0.0155
15782TIP3   OH268836   6.662   6.197   5.849 -0.1750  0.1186 -0.2985
15782TIP3    H168837   6.757   6.194   5.858 -0.0732  0.5223 -1.1314
15782TIP3    H268838   6.630   6.212   5.938  0.5139 -0.4817  0.0591
15783TIP3   OH268839   0.125   4.093  12.096  0.6882 -0.4210  0.0132
15783TIP3    H168840   0.179   4.166  12.065  0.1866  0.1231  0.4082
15783TIP3    H268841   0.041   4.104  12.052  1.0993 -1.6941 -1.1863
15784TIP3   OH268842   4.216   3.330  11.532 -0.9269 -0.2777 -0.0435
15784TIP3    H168843   4.185   3.346  11.443  1.9274 -0.1963 -1.1346
15784TIP3    H268844   4.241   3.416  11.565 -1.0181 -0.4425  0.4781
15785TIP3   OH268845   3.161   6.230   2.902 -0.3631  0.6617 -0.2408
15785TIP3    H168846   3.198   6.183   2.828  0.0443 -0.9307  0.9252
15785TIP3    H268847   3.146   6.319   2.870  3.8367  1.2659 -1.0023
15786TIP3   OH268848   3.199   6.812  11.833  0.3165 -0.0087  0.0554
15786TIP3    H168849   3.224   6.773  11.916  2.3729 -1.9335 -1.3566
15786TIP3    H268850   3.138   6.749  11.794 -1.4483  1.3642  0.4668
15787TIP3   OH268851   1.422   1.922  13.166  0.1433 -0.2013  0.5933
15787TIP3    H168852   1.514   1.904  13.148  0.4374  1.2182  0.5032
15787TIP3    H268853   1.376   1.842  13.143  1.4921 -1.3859  1.8564
15788TIP3   OH268854   5.353   4.262  17.181 -0.1110 -0.1826  0.0337
15788TIP3    H168855   5.438   4.228  17.157  0.1513  0.7724 -0.4541
15788TIP3    H268856   5.307   4.274  17.098 -0.6227 -0.4278  0.2744
15789TIP3   OH268857   6.035   1.855  12.288 -0.1251  0.1526 -0.1111
15789TIP3    H168858   6.069   1.812  12.366  0.8174  0.6761 -0.2131
15789TIP3    H268859   5.941   1.862  12.303  0.1555  1.1527  1.4411
15790TIP3   OH268860   3.515   4.836  10.835 -0.1810  0.0353 -0.5481
15790TIP3    H168861   3.560   4.844  10.751 -0.2108 -1.8628 -0.7939
15790TIP3    H268862   3.442   4.898  10.829  0.1781  0.3736 -1.6788
15791TIP3   OH268863   0.269   1.134   2.754  0.1193 -0.0962 -0.5640
15791TIP3    H168864   0.346   1.096   2.712 -0.8812 -0.5779 -2.0352
15791TIP3    H268865   0.207   1.061   2.761 -0.2573  0.2983  0.5210
15792TIP3   OH268866   5.135   4.634  11.193  0.2354  0.4723  0.4982
15792TIP3    H168867   5.128   4.698  11.264  0.7209 -1.0060  1.9425
15792TIP3    H268868   5.226   4.603  11.198 -0.0977 -0.6176  0.0945
15793TIP3   OH268869   5.382   3.417   2.959 -0.8804 -0.3265 -0.3255
15793TIP3    H168870   5.454   3.392   2.901  0.7900 -0.2399  1.5929
15793TIP3    H268871   5.340   3.491   2.914  2.0830  1.5937 -0.2600
15794TIP3   OH268872   1.770   4.919   0.917 -0.4882 -0.2390  0.3211
15794TIP3    H168873   1.727   5.004   0.914  0.4289  0.2175 -2.1495
15794TIP3    H268874   1.840   4.930   0.981 -1.2838  0.3755  1.1125
15795TIP3   OH268875   5.744   5.330  16.013 -0.6460  0.0769 -0.0651
15795TIP3    H168876   5.829   5.287  16.011 -1.7485 -2.2799  0.0206
15795TIP3    H268877   5.721   5.334  16.106  0.1700  2.6132  0.1275
15796TIP3   OH268878   1.230   1.409  12.378  0.2032  0.2529 -0.1708
15796TIP3    H168879   1.157   1.448  12.328 -0.0438 -0.5891 -0.4829
15796TIP3    H268880   1.300   1.399  12.313 -0.3204 -1.3919 -0.5070
15797TIP3   OH268881   3.727   0.447   3.151  0.2075  0.4737 -0.3487
15797TIP3    H168882   3.700   0.525   3.199 -0.5461  0.6056 -0.9691
15797TIP3    H268883   3.647   0.396   3.141  0.0775  0.9570 -2.3675
15798TIP3   OH268884   0.041   0.653   2.168  1.0591 -0.3427  0.1420
15798TIP3    H168885   0.017   0.581   2.227 -0.3496 -1.1552 -1.3398
15798TIP3    H268886   0.024   0.732   2.219 -0.6444 -1.0171  0.6858
15799TIP3   OH268887   4.133   2.814  11.296 -0.2337  0.3100  0.1722
15799TIP3    H168888   4.159   2.895  11.340 -0.4384  1.3510 -1.5259
15799TIP3    H268889   4.214   2.763  11.290  0.0677  0.7369  0.5475
15800TIP3   OH268890   2.444   0.261  15.385 -0.3160 -0.5171 -0.3325
15800TIP3    H168891   2.356   0.232  15.359 -0.3852 -1.2567  0.6790
15800TIP3    H268892   2.434   0.295  15.473  0.3770 -0.3812 -0.3006
15801TIP3   OH268893   0.923   1.584  15.136  0.0941  0.5060  0.1540
15801TIP3    H168894   0.854   1.650  15.145 -2.2129 -1.6482 -0.8380
15801TIP3    H268895   0.899   1.533  15.059  2.7495 -0.4753 -0.1437
15802TIP3   OH268896   5.108   4.274  13.493  0.5239 -0.1183  0.7183
15802TIP3    H168897   5.201   4.260  13.477  0.5180 -0.0251  0.6026
15802TIP3    H268898   5.071   4.295  13.407  0.5057  0.4340  0.8553
15803TIP3   OH268899   2.219   1.219   3.048  0.5732  0.1419 -0.3440
15803TIP3    H168900   2.312   1.240   3.046  0.7144 -0.4890 -2.8083
15803TIP3    H268901   2.214   1.125   3.031 -0.5595  0.5465 -2.6137
15804TIP3   OH268902   1.977   0.021   3.785 -0.4488 -0.2862  0.6409
15804TIP3    H168903   1.911   0.088   3.800  0.1059  0.2098  0.9276
15804TIP3    H268904   1.956  -0.048   3.848 -2.4895 -1.5327 -1.2839
15805TIP3   OH268905   6.307   3.134   2.941 -0.2533 -0.1061  0.2361
15805TIP3    H168906   6.344   3.059   2.894  0.7361 -0.2897  1.2613
15805TIP3    H268907   6.237   3.097   2.994  1.9568 -0.9120  2.8578
15806TIP3   OH268908   3.210   0.364  12.414  0.2319  0.4569  0.7777
15806TIP3    H168909   3.118   0.389  12.426 -0.1986 -1.1516  1.1535
15806TIP3    H268910   3.245   0.360  12.503  0.5867  0.7963  0.6525
15807TIP3   OH268911   6.171   2.210   5.624 -0.0492 -1.1809  0.3021
15807TIP3    H168912   6.112   2.135   5.624  0.8600 -1.9652  1.8413
15807TIP3    H268913   6.209   2.211   5.712 -0.9556  1.8606  0.7884
15808TIP3   OH268914   3.131   0.446  15.618  0.1470 -0.1656  0.6252
15808TIP3    H168915   3.213   0.431  15.664  0.7856 -2.1380 -1.0317
15808TIP3    H268916   3.151   0.428  15.526 -1.8523  0.5245 -0.0042
15809TIP3   OH268917   1.937   0.904  16.834 -0.0587 -0.0272  0.5350
15809TIP3    H168918   1.921   0.824  16.783  1.6413  0.1581 -0.3624
15809TIP3    H268919   1.870   0.965  16.804  2.8402  1.3275 -4.4171
15810TIP3   OH268920   3.492   5.355   0.342 -0.4268  0.4969  0.1490
15810TIP3    H168921   3.427   5.416   0.306  0.5366  1.3922 -0.1154
15810TIP3    H268922   3.572   5.374   0.293  0.4370  0.4776  1.5189
15811TIP3   OH268923   6.543   5.161   1.743  0.0621 -0.7431  0.2119
15811TIP3    H168924   6.472   5.224   1.746  0.6678 -0.0451  2.3062
15811TIP3    H268925   6.577   5.165   1.654 -1.2105  0.3890 -0.2395
15812TIP3   OH268926   5.372   1.308  14.240  0.4153  0.2551 -0.0971
15812TIP3    H168927   5.457   1.324  14.282  0.7632 -0.2537 -0.5914
15812TIP3    H268928   5.394   1.266  14.157 -0.4069 -1.6479  0.5975
15813TIP3   OH268929   1.024   4.597   3.587  0.0012 -0.1538 -0.2994
15813TIP3    H168930   0.995   4.539   3.658 -1.8329  1.6812  0.5750
15813TIP3    H268931   1.118   4.605   3.599  0.0081 -1.4268  0.7270
15814TIP3   OH268932   5.841   2.336  16.387 -0.3748  0.0363 -0.9999
15814TIP3    H168933   5.794   2.410  16.348  1.6101  1.7563 -0.2656
15814TIP3    H268934   5.776   2.294  16.443 -1.6805  0.9213 -1.7966
15815TIP3   OH268935   1.342   6.747  11.783  0.5753  0.2656  0.3118
15815TIP3    H168936   1.304   6.674  11.831  0.8577  0.5087  0.9077
15815TIP3    H268937   1.344   6.717  11.692 -3.2429  1.0802 -0.2066
15816TIP3   OH268938   3.004   1.380  13.490 -0.2223  0.3388  0.0675
15816TIP3    H168939   3.037   1.315  13.553  0.4377 -0.9678 -1.5447
15816TIP3    H268940   2.912   1.356  13.477  0.0534 -0.3830 -0.6192
15817TIP3   OH268941   0.617   0.875  15.010 -0.1465 -0.2537  0.0723
15817TIP3    H168942   0.536   0.910  15.045  0.2219  2.2419 -1.3780
15817TIP3    H268943   0.594   0.842  14.923  0.5056  1.3285 -0.7407
15818TIP3   OH268944   3.741   4.026  12.339  0.0167  0.1318 -0.0537
15818TIP3    H168945   3.757   4.120  12.341  1.2093  0.2356 -4.1889
15818TIP3    H268946   3.828   3.986  12.343 -0.2510 -0.5921 -0.9344
15819TIP3   OH268947   6.809   5.560   0.604  0.0967 -0.0236 -0.0324
15819TIP3    H168948   6.896   5.553   0.564  0.4533  1.3845  0.4009
15819TIP3    H268949   6.797   5.655   0.617 -1.0402 -0.2748  0.9197
15820TIP3   OH268950   4.080   0.724  13.457 -0.2015 -0.2415  0.2580
15820TIP3    H168951   4.084   0.767  13.542 -1.5110 -0.3585  0.4008
15820TIP3    H268952   3.987   0.727  13.433  0.4662  2.7635 -2.7106
15821TIP3   OH268953   6.553   4.834   3.057 -0.0237  0.1748  0.1437
15821TIP3    H168954   6.498   4.763   3.023 -1.5161  2.3472 -2.3765
15821TIP3    H268955   6.641   4.812   3.026 -0.1227 -1.3994  0.8947
15822TIP3   OH268956   5.265   1.875   5.983 -0.1369 -0.7451  0.1189
15822TIP3    H168957   5.290   1.941   5.920  1.0034 -3.1257 -2.1127
15822TIP3    H268958   5.327   1.886   6.055 -0.6241  1.1812  0.2944
15823TIP3   OH268959   6.025   6.098   1.426 -0.0756  0.4603  0.0202
15823TIP3    H168960   6.027   6.026   1.489  0.6816 -0.4580 -1.0194
15823TIP3    H268961   5.934   6.127   1.426  0.0617  1.0512  2.1429
15824TIP3   OH268962   6.362   6.065  10.402  0.2959 -0.3703 -0.2413
15824TIP3    H168963   6.432   6.092  10.342  0.4187  0.1001  0.1111
15824TIP3    H268964   6.336   5.978  10.371  0.8897 -0.4582 -0.5020
15825TIP3   OH268965   2.265   2.535   5.684  0.6973  0.2524  0.7785
15825TIP3    H168966   2.199   2.593   5.646  0.5394  0.5727  1.5162
15825TIP3    H268967   2.289   2.577   5.767  0.7287 -0.6320  1.2305
15826TIP3   OH268968   2.432   6.518  13.612  0.9432 -0.5305  0.9318
15826TIP3    H168969   2.377   6.594  13.597 -0.2435 -1.2988  1.2480
15826TIP3    H268970   2.375   6.456  13.658  1.1357 -2.5220 -1.3551
15827TIP3   OH268971   3.823   3.107  16.100 -0.3465 -0.2773  0.1642
15827TIP3    H168972   3.840   3.092  16.007  0.0006  0.0837  0.1686
15827TIP3    H268973   3.889   3.171  16.127  0.4143 -1.3671  0.9707
15828TIP3   OH268974   5.223   4.543  16.308  0.0476 -0.8154  0.2538
15828TIP3    H168975   5.287   4.559  16.377 -0.6517 -0.0910  0.7651
15828TIP3    H268976   5.271   4.495  16.240  1.9465  2.0979 -0.6686
15829TIP3   OH268977   1.521   3.809  15.823 -0.1720  0.1242 -0.2441
15829TIP3    H168978   1.552   3.816  15.913  0.5667 -0.1469 -0.4688
15829TIP3    H268979   1.600   3.805  15.770 -0.5791  1.4940 -1.0253
15830TIP3   OH268980   4.213   4.501   4.052 -0.7235  0.1835 -0.3583
15830TIP3    H168981   4.131   4.454   4.066  0.5506 -1.5937  1.9760
15830TIP3    H268982   4.270   4.437   4.007  0.6685 -0.2637  1.8562
15831TIP3   OH268983   0.068   4.010   5.611 -0.0557 -0.0482  0.6491
15831TIP3    H168984  -0.020   3.989   5.643 -0.0422  0.3789  0.9593
15831TIP3    H268985   0.105   4.070   5.675  0.6786 -0.6534  0.8102
15832TIP3   OH268986   3.885   0.805   6.194  0.2375 -0.1434 -0.0117
15832TIP3    H168987   3.939   0.751   6.251 -0.7645 -0.3541  0.7571
15832TIP3    H268988   3.796   0.794   6.227 -0.0984  1.3084 -0.3692
15833TIP3   OH268989   2.738   2.217  13.464  0.7935  0.0244 -0.8970
15833TIP3    H168990   2.776   2.267  13.392  0.9434 -0.1704 -0.9533
15833TIP3    H268991   2.778   2.254  13.543 -1.1546  1.9258 -0.6680
15834TIP3   OH268992   5.562   1.108  12.003  0.1560 -0.4503 -0.1155
15834TIP3    H168993   5.560   1.203  11.988  0.6058 -0.5297 -0.7000
15834TIP3    H268994   5.650   1.091  12.036 -0.2425 -0.5335  0.9334
15835TIP3   OH268995   4.553   6.375   3.743 -0.0088  0.5758  0.1613
15835TIP3    H168996   4.528   6.395   3.833  0.3754 -0.9092  0.6213
15835TIP3    H268997   4.516   6.447   3.691  0.1753  1.7011  1.5490
15836TIP3   OH268998   2.412   2.877  15.137 -0.6411 -0.0448  0.0897
15836TIP3    H168999   2.473   2.858  15.208  0.6903 -0.0773 -1.0261
15836TIP3    H269000   2.326   2.855  15.173  0.1108 -1.1573  1.2995
15837TIP3   OH269001   0.251   5.146   2.614  0.3454  0.1370 -0.0272
15837TIP3    H169002   0.255   5.088   2.538  0.2318 -0.6214  0.5312
15837TIP3    H269003   0.308   5.105   2.679 -1.5482 -0.6447  1.2272
15838TIP3   OH269004   2.011   0.095  16.587 -0.5798 -0.8768  0.4001
15838TIP3    H169005   2.083   0.098  16.651  1.1254 -0.5534 -1.4207
15838TIP3    H269006   2.020   0.009  16.545 -2.1067 -1.3675  0.9905
15839TIP3   OH269007   6.209   0.695  12.956 -0.4015  0.1216 -0.3726
15839TIP3    H169008   6.151   0.619  12.967  2.2283 -1.9817  0.1091
15839TIP3    H269009   6.247   0.683  12.869  1.1990 -0.0551  0.3096
15840TIP3   OH269010   2.481   2.888   3.578 -0.5582  0.7584 -0.4758
15840TIP3    H169011   2.471   2.807   3.529 -0.5651  0.8817 -0.6801
15840TIP3    H269012   2.515   2.860   3.663 -1.6630  0.4395 -0.1307
15841TIP3   OH269013   5.761   6.201  13.254 -0.0888 -0.3196  0.6788
15841TIP3    H169014   5.855   6.213  13.264  0.4350 -0.6151 -2.6630
15841TIP3    H269015   5.744   6.112  13.286  0.6950 -0.1957  1.4777
15842TIP3   OH269016   4.850   1.208   2.737  0.0440 -0.1323  0.0556
15842TIP3    H169017   4.764   1.172   2.719  0.7765 -1.8273 -0.2949
15842TIP3    H269018   4.840   1.260   2.817 -1.5246  0.7123 -0.6479
15843TIP3   OH269019   5.945   5.594  14.288  0.0700 -0.4668  0.0161
15843TIP3    H169020   5.884   5.596  14.214 -2.1129  0.0247  1.7355
15843TIP3    H269021   5.909   5.529  14.348  1.7030 -0.7426  0.7468
15844TIP3   OH269022   2.311   2.567  12.197 -0.4787  0.2076  0.0880
15844TIP3    H169023   2.339   2.578  12.106  0.4911 -0.4034  0.2879
15844TIP3    H269024   2.231   2.515  12.192  0.1097 -0.6814 -0.3911
15845TIP3   OH269025   1.662   5.500   2.309 -0.4028  0.1521 -0.1084
15845TIP3    H169026   1.661   5.594   2.292  0.0491  0.2751  0.4893
15845TIP3    H269027   1.748   5.484   2.349 -0.7626 -0.3867  0.4738
15846TIP3   OH269028   1.554   1.605   2.623 -0.6761  0.1351  0.0826
15846TIP3    H169029   1.567   1.537   2.556  2.0471 -1.0651  1.6740
15846TIP3    H269030   1.642   1.633   2.647 -1.6580  2.5033  1.2782
15847TIP3   OH269031   1.095   4.190   0.441  0.4533  0.0634 -0.5197
15847TIP3    H169032   1.046   4.239   0.375 -0.2989 -2.8653 -2.3367
15847TIP3    H269033   1.187   4.200   0.415  0.3220  0.4597 -0.8477
15848TIP3   OH269034   2.917   6.469  11.583 -0.0054  0.2036 -0.1249
15848TIP3    H169035   2.836   6.418  11.590  0.1355  0.1792  2.7186
15848TIP3    H269036   2.933   6.476  11.489 -3.3599  0.3202 -0.8313
15849TIP3   OH269037   2.369   6.174  15.730 -0.4065 -0.0504  0.4304
15849TIP3    H169038   2.293   6.121  15.754 -1.5820  1.0564 -0.7010
15849TIP3    H269039   2.437   6.149  15.792 -0.9354 -2.7998  0.0221
15850TIP3   OH269040   2.852   1.506   4.719  0.3449  0.0085 -0.3976
15850TIP3    H169041   2.831   1.466   4.635  2.8249 -0.0104 -1.1029
15850TIP3    H269042   2.942   1.479   4.736  0.8504  2.2675  0.8991
15851TIP3   OH269043   5.192   0.614   3.795  0.5195  0.3723 -0.4176
15851TIP3    H169044   5.280   0.624   3.832 -0.2415  1.2154  1.2846
15851TIP3    H269045   5.202   0.549   3.726  1.9676 -1.8246  1.6724
15852TIP3   OH269046   4.426   1.336  16.258  1.3237 -0.4503 -0.6607
15852TIP3    H169047   4.339   1.312  16.227 -0.2994  1.9752  1.5385
15852TIP3    H269048   4.480   1.339  16.180 -0.3538 -2.6574 -2.0253
15853TIP3   OH269049   4.421   4.237  12.510  1.1732 -0.0093  0.3188
15853TIP3    H169050   4.499   4.181  12.513  2.3252  1.5108  0.0377
15853TIP3    H269051   4.432   4.289  12.431 -2.9049 -3.4894 -3.0559
15854TIP3   OH269052   6.389   0.301  15.758 -0.1563 -0.0188 -0.1168
15854TIP3    H169053   6.300   0.316  15.726 -0.0677  0.5207 -0.1188
15854TIP3    H269054   6.402   0.207  15.751 -1.2067 -0.2922  1.1308
15855TIP3   OH269055   5.836   6.216  11.035  0.2553 -0.6045  0.5256
15855TIP3    H169056   5.812   6.278  10.966 -0.5298 -2.3190 -0.8221
15855TIP3    H269057   5.879   6.269  11.102  0.6550  1.2035 -1.0888
15856TIP3   OH269058   3.002   4.011   3.898  0.7144  0.2668 -0.4519
15856TIP3    H169059   2.924   4.033   3.846  0.5695 -0.3362 -0.4971
15856TIP3    H269060   3.042   3.939   3.850 -0.3395 -1.4700  1.1335
15857TIP3   OH269061   5.282   3.017   2.055  0.1708 -0.5372  0.4777
15857TIP3    H169062   5.218   2.959   2.014  0.5649 -1.2265  0.8073
15857TIP3    H269063   5.284   3.095   2.000 -0.7605 -0.6108  0.3232
15858TIP3   OH269064   4.085   5.958  11.982  0.4983 -0.4198  0.1869
15858TIP3    H169065   4.112   6.011  11.907 -0.9490 -1.2696 -1.0001
15858TIP3    H269066   4.158   5.965  12.044  0.3731  2.9232  0.1334
15859TIP3   OH269067   6.182   5.889  15.271  0.0579  0.5225 -0.5091
15859TIP3    H169068   6.124   5.824  15.230  0.4561  0.2658 -0.6734
15859TIP3    H269069   6.217   5.845  15.348 -0.6783  1.0021  0.1081
15860TIP3   OH269070   6.412   5.958  11.774 -0.2040 -0.2689 -0.2425
15860TIP3    H169071   6.425   5.885  11.834  0.1657  0.0916  0.1250
15860TIP3    H269072   6.496   6.005  11.775 -0.7764  0.7778  0.3731
15861TIP3   OH269073   1.662   3.686  15.306  0.4310  0.1601  0.8327
15861TIP3    H169074   1.739   3.724  15.264 -0.3180  1.3019  0.4613
15861TIP3    H269075   1.672   3.591  15.292  1.3696  0.3454  0.1184
15862TIP3   OH269076   3.838   4.780  13.993 -0.3229  0.5130  0.5491
15862TIP3    H169077   3.863   4.722  14.064 -0.4676 -0.6237 -0.3002
15862TIP3    H269078   3.749   4.754  13.970 -0.1917  0.7028 -0.1994
15863TIP3   OH269079   5.472   5.218  12.426  0.4257  0.1140  0.5344
15863TIP3    H169080   5.465   5.171  12.342 -2.2727  2.9928 -1.0522
15863TIP3    H269081   5.402   5.181  12.480  0.9699 -0.4562  0.8668
15864TIP3   OH269082   0.572   2.462   3.114 -0.2181  0.2753  0.5740
15864TIP3    H169083   0.582   2.557   3.103  0.1423  0.3756  1.5861
15864TIP3    H269084   0.535   2.432   3.031 -1.1152  1.4150  0.5242
15865TIP3   OH269085   2.256   5.657   0.209  0.0448  0.1571  0.1351
15865TIP3    H169086   2.210   5.730   0.251  0.9257 -0.1542  1.7030
15865TIP3    H269087   2.217   5.579   0.247 -0.5055 -0.2135 -1.1261
15866TIP3   OH269088   4.971   2.946  15.192  0.3073 -0.4055 -0.4470
15866TIP3    H169089   4.962   2.994  15.274 -0.2566 -0.4636 -0.4698
15866TIP3    H269090   4.976   2.854  15.218 -3.3654 -0.7811 -0.5995
15867TIP3   OH269091   2.881   0.516   3.033  0.3525 -0.3386  0.0560
15867TIP3    H169092   2.906   0.551   2.948  1.8771  1.0181  1.0085
15867TIP3    H269093   2.785   0.521   3.034  0.3132 -0.2184 -1.4846
15868TIP3   OH269094   3.884   0.687   2.583 -0.8235  0.5847 -0.3279
15868TIP3    H169095   3.914   0.753   2.646  0.7813  1.7018 -2.1417
15868TIP3    H269096   3.941   0.612   2.598  0.1631  1.1797 -1.0063
15869TIP3   OH269097   5.943   0.908  16.337  0.0907  0.1220  0.4275
15869TIP3    H169098   5.938   0.816  16.363 -1.5321  0.1659  0.3468
15869TIP3    H269099   5.964   0.906  16.244  0.7409 -0.1379  0.5714
15870TIP3   OH269100   1.592   3.041   5.435  0.8096  0.1732 -0.0464
15870TIP3    H169101   1.561   2.976   5.498 -0.8868  1.4382  0.4949
15870TIP3    H269102   1.684   3.056   5.460  0.3801  0.1255  1.7033
15871TIP3   OH269103   1.075   5.279   4.272 -0.0957 -0.7368  0.0844
15871TIP3    H169104   1.036   5.206   4.225  0.3121 -1.0459  0.2148
15871TIP3    H269105   1.127   5.238   4.341  1.7731 -0.4336 -1.0696
15872TIP3   OH269106   1.585   4.930  13.202  0.9284  0.1730 -0.0888
15872TIP3    H169107   1.567   4.867  13.272 -0.4660  2.6027  1.8673
15872TIP3    H269108   1.511   4.921  13.142 -0.1258  1.0094  1.0414
15873TIP3   OH269109   3.760   3.454  11.132 -0.0391  0.1432 -0.0649
15873TIP3    H169110   3.732   3.441  11.042  1.0067  2.6212 -0.8223
15873TIP3    H269111   3.848   3.490  11.125 -0.8512  2.7655  1.8110
15874TIP3   OH269112   3.936   3.123   3.919 -0.0202 -0.2538  0.0642
15874TIP3    H169113   3.891   3.158   3.996 -1.8801  1.0381 -1.5141
15874TIP3    H269114   4.020   3.168   3.917 -0.5744  0.8237  0.5345
15875TIP3   OH269115   2.532   1.940   1.467 -0.1725  0.0269  0.1680
15875TIP3    H169116   2.551   1.859   1.419 -1.6508 -0.4912  0.4066
15875TIP3    H269117   2.439   1.934   1.488  0.0647  1.0050  1.6785
15876TIP3   OH269118   6.402   6.502  11.321 -0.3815 -0.1609  0.0363
15876TIP3    H169119   6.321   6.528  11.364  0.2203 -1.7515  2.2900
15876TIP3    H269120   6.449   6.584  11.308 -1.4800  0.5721  0.5197
15877TIP3   OH269121   2.736   4.398   5.487  0.2103 -0.1992 -0.0395
15877TIP3    H169122   2.827   4.370   5.473  0.1229 -0.9916  0.9148
15877TIP3    H269123   2.695   4.388   5.401  0.6410 -1.3129 -0.1348
15878TIP3   OH269124   1.122   1.109  13.882  0.4095  0.0229  0.1037
15878TIP3    H169125   1.048   1.077  13.934  0.5569 -1.0368 -0.3115
15878TIP3    H269126   1.090   1.190  13.843 -1.0188 -1.0335 -1.0666
15879TIP3   OH269127   4.059   6.186  13.350  0.0501 -0.5917 -0.4952
15879TIP3    H169128   4.077   6.192  13.256 -2.1015  1.4500 -0.8617
15879TIP3    H269129   3.965   6.204  13.358  0.5591  1.5880  2.2063
15880TIP3   OH269130   1.139   1.750   1.440 -0.4720 -0.0752 -0.2294
15880TIP3    H169131   1.110   1.799   1.516 -0.6722 -2.3901  1.2916
15880TIP3    H269132   1.063   1.698   1.414  0.0672 -0.5276 -0.9670
15881TIP3   OH269133   3.992   3.649  17.225  0.0779 -0.1296 -0.2652
15881TIP3    H169134   4.034   3.726  17.186 -0.1485  0.6487  0.9753
15881TIP3    H269135   4.065   3.594  17.253  0.2522  0.2350  0.0010
15882TIP3   OH269136   2.170   2.405  13.671  1.2041  0.2882 -0.1522
15882TIP3    H169137   2.105   2.350  13.714  1.4986 -0.1697 -0.2830
15882TIP3    H269138   2.207   2.350  13.602  0.5508  1.1044 -1.1768
15883TIP3   OH269139   2.767   0.669  14.721 -0.3265  0.1454 -0.2791
15883TIP3    H169140   2.834   0.728  14.755  0.0145 -1.6305  2.5449
15883TIP3    H269141   2.685   0.716  14.735 -0.0322  0.2287  1.4851
15884TIP3   OH269142   2.049   4.496  13.591  0.0134 -0.1674 -0.9711
15884TIP3    H169143   2.109   4.472  13.521  1.5665 -1.7246  0.7680
15884TIP3    H269144   2.056   4.423  13.654 -1.7610  0.8566  0.4932
15885TIP3   OH269145   1.845   2.862   3.774 -0.6245  0.1520  0.3027
15885TIP3    H169146   1.915   2.819   3.725 -0.6292 -2.8445  2.6744
15885TIP3    H269147   1.816   2.797   3.838 -3.7229  2.2407  1.2671
15886TIP3   OH269148   6.541   0.969   2.110  1.2069  0.3035 -0.7962
15886TIP3    H169149   6.474   0.921   2.158  1.1408  2.7598  1.8456
15886TIP3    H269150   6.495   1.046   2.075  1.7590 -0.2692 -2.9350
15887TIP3   OH269151   6.539   0.788   6.015  0.0709 -0.1726 -0.2069
15887TIP3    H169152   6.491   0.865   6.045  0.4437 -0.4684  1.2365
15887TIP3    H269153   6.585   0.757   6.093  0.1497 -1.6945 -0.8286
15888TIP3   OH269154   5.128   3.403   2.240 -0.3405  0.5791  0.7949
15888TIP3    H169155   5.180   3.410   2.160 -0.0409 -0.1888  0.9225
15888TIP3    H269156   5.098   3.312   2.242  0.2911  0.3860  1.9498
15889TIP3   OH269157   5.788   4.445   3.689  0.2837 -0.2528 -0.0043
15889TIP3    H169158   5.847   4.516   3.711  0.4303 -0.1746 -0.6515
15889TIP3    H269159   5.843   4.366   3.688  0.3266 -0.2191 -0.3422
15890TIP3   OH269160   0.054   2.606  14.961 -0.1259 -0.1082 -0.2147
15890TIP3    H169161   0.140   2.564  14.963 -0.3757 -0.6340 -0.1425
15890TIP3    H269162  -0.006   2.536  14.936 -0.2408  0.8147 -2.7893
15891TIP3   OH269163   3.615   4.244   4.509  0.2912 -0.3370 -0.1448
15891TIP3    H169164   3.573   4.306   4.567 -1.5441 -0.6383 -1.0805
15891TIP3    H269165   3.676   4.297   4.457  0.3671  0.2781  0.5548
15892TIP3   OH269166   4.490   4.489   5.417  0.5474 -0.5405  0.1651
15892TIP3    H169167   4.412   4.518   5.370  0.4120 -0.6896  0.2982
15892TIP3    H269168   4.462   4.409   5.462  0.4856 -0.0230  1.0570
15893TIP3   OH269169   4.445   0.831  15.328  0.2167 -0.0250 -0.5521
15893TIP3    H169170   4.453   0.848  15.422 -1.3719  0.7886 -0.5225
15893TIP3    H269171   4.414   0.740  15.323  0.8878 -0.2708 -0.3260
15894TIP3   OH269172   5.331   5.861   5.257  0.3271 -0.1725 -0.5782
15894TIP3    H169173   5.308   5.873   5.349  3.7446 -0.9701  0.5325
15894TIP3    H269174   5.392   5.932   5.238  0.0759 -0.3243 -2.0931
15895TIP3   OH269175   0.610   2.671   4.028  0.1751  0.0676 -0.0953
15895TIP3    H169176   0.559   2.747   4.056  0.3159 -0.2953  1.2344
15895TIP3    H269177   0.698   2.687   4.063  0.1388 -0.8151  0.4306
15896TIP3   OH269178   3.437   2.479  10.599  0.1248  0.8852  0.2736
15896TIP3    H169179   3.525   2.463  10.633  0.4401 -0.1018 -0.9518
15896TIP3    H269180   3.408   2.559  10.645  1.4250  0.9166  1.0942
15897TIP3   OH269181   3.584   2.724   4.883 -0.0244 -0.2958 -0.4350
15897TIP3    H169182   3.605   2.656   4.947 -3.1695  0.3303  1.4567
15897TIP3    H269183   3.512   2.688   4.831 -0.3948  0.8479 -0.7438
15898TIP3   OH269184   4.040   2.028  17.151 -0.2560  0.4353  0.2286
15898TIP3    H169185   4.134   2.015  17.149 -0.0001  1.9662  0.7542
15898TIP3    H269186   4.008   1.988  17.070  0.8151 -0.2205  0.1199
15899TIP3   OH269187   4.396   2.727   5.306 -0.1333  0.2069 -0.3006
15899TIP3    H169188   4.487   2.750   5.326  0.4461 -0.9412 -1.4625
15899TIP3    H269189   4.388   2.636   5.335 -0.9490  0.3236 -0.1426
15900TIP3   OH269190   2.542   1.488  12.532 -0.0845  0.0190 -0.0551
15900TIP3    H169191   2.551   1.394  12.520  1.6309  0.3825 -2.1480
15900TIP3    H269192   2.632   1.521  12.531 -0.6537  1.6941  0.5972
15901TIP3   OH269193   6.350   4.147   6.742  0.0416  0.3992 -0.2239
15901TIP3    H169194   6.285   4.194   6.690 -0.3947  0.5507  0.4334
15901TIP3    H269195   6.406   4.215   6.778  0.2541  0.3098 -0.3890
15902TIP3   OH269196   6.635   1.711  12.847 -0.3740 -0.1021  0.4687
15902TIP3    H169197   6.645   1.647  12.918 -1.5109 -2.2673 -1.2022
15902TIP3    H269198   6.564   1.676  12.793  1.7161  0.3309 -2.8542
15903TIP3   OH269199   4.599   1.229  16.454 -0.7112 -0.2590 -0.5785
15903TIP3    H169200   4.561   1.263  16.374 -0.5081  2.4263  0.3674
15903TIP3    H269201   4.633   1.306  16.500 -1.2451 -1.5986  2.3154
15904TIP3   OH269202   0.200   0.087   3.340  0.0833 -0.0958  0.5249
15904TIP3    H169203   0.231   0.004   3.303  0.5441  0.3369 -0.0644
15904TIP3    H269204   0.140   0.060   3.409 -0.4906 -0.9221 -0.2668
15905TIP3   OH269205   1.725   5.238   1.882  0.6715  0.2650  0.4006
15905TIP3    H169206   1.759   5.280   1.803  0.6720 -1.5344 -0.6086
15905TIP3    H269207   1.701   5.311   1.940  1.0371  1.6221 -1.0922
15906TIP3   OH269208   6.355   3.368   0.635 -0.5473 -0.2437  0.7862
15906TIP3    H169209   6.268   3.399   0.609 -0.3647  0.7403  1.2870
15906TIP3    H269210   6.338   3.300   0.701 -0.9499  0.8678  1.8796
15907TIP3   OH269211   0.489   2.642   5.743 -0.0115 -0.4981 -0.0686
15907TIP3    H169212   0.510   2.675   5.656 -1.6746 -1.8262 -1.0470
15907TIP3    H269213   0.467   2.720   5.794  0.3505  0.2479 -1.0171
15908TIP3   OH269214   5.470   6.647   0.605  0.1096 -0.1365 -0.2229
15908TIP3    H169215   5.559   6.627   0.633 -0.5417 -2.7146  0.2863
15908TIP3    H269216   5.461   6.604   0.520 -0.5981  0.2921 -0.3747
15909TIP3   OH269217   1.296   4.348  14.418 -0.3270 -0.5100 -0.2503
15909TIP3    H169218   1.311   4.386  14.332 -2.5786 -0.3124 -0.6203
15909TIP3    H269219   1.380   4.308  14.442  0.3325 -0.6489 -2.5648
15910TIP3   OH269220   2.030   1.977   1.532 -0.2582 -0.1042  0.4635
15910TIP3    H169221   2.066   1.910   1.590  0.4465  0.1204  0.2919
15910TIP3    H269222   2.106   2.023   1.498 -0.7124  0.4212  0.1379
15911TIP3   OH269223   4.980   2.372  16.809 -0.0815 -0.2031 -0.5378
15911TIP3    H169224   4.890   2.340  16.801 -0.2746  0.2014  0.0013
15911TIP3    H269225   5.030   2.316  16.749 -0.7342 -0.2435 -1.0633
15912TIP3   OH269226   5.003   4.184   4.700  0.8267 -0.3598  0.7121
15912TIP3    H169227   4.987   4.131   4.778  0.9975 -2.3894 -0.5404
15912TIP3    H269228   5.098   4.179   4.687  0.9530  0.9408  0.9818
15913TIP3   OH269229   6.187   1.123  15.256 -0.1517  0.0688 -0.1567
15913TIP3    H169230   6.279   1.138  15.232 -0.2411  1.2443  0.1543
15913TIP3    H269231   6.158   1.207  15.291 -0.8396 -0.7763  1.3973
15914TIP3   OH269232   1.589   0.927  11.774 -0.4441  0.4187 -0.5793
15914TIP3    H169233   1.648   0.976  11.831  1.1849 -1.2967 -0.6930
15914TIP3    H269234   1.635   0.922  11.690 -1.2113 -0.1138 -0.9879
15915TIP3   OH269235   1.457   6.572   4.052 -0.1474 -0.3562 -0.0922
15915TIP3    H169236   1.460   6.539   4.142  1.1227  2.8676  1.1792
15915TIP3    H269237   1.487   6.498   3.999 -0.0569 -2.0853  2.1952
15916TIP3   OH269238   1.846   0.359  12.186 -0.5932 -0.0809 -0.3185
15916TIP3    H169239   1.924   0.413  12.177  1.0136 -1.9882  1.3248
15916TIP3    H269240   1.846   0.303  12.108 -0.2061 -0.1950 -0.2376
15917TIP3   OH269241   1.865   2.282   3.377 -0.1743  0.3169 -0.5218
15917TIP3    H169242   1.830   2.297   3.289  0.3633  0.2610 -0.7448
15917TIP3    H269243   1.955   2.313   3.373  0.4080 -1.3098 -0.4936
15918TIP3   OH269244   4.194   4.204  13.672  0.5651  0.0332  0.3742
15918TIP3    H169245   4.124   4.148  13.638  0.5130 -0.0781  0.6579
15918TIP3    H269246   4.273   4.151  13.664  0.5028 -0.1146  0.7188
15919TIP3   OH269247   1.997   2.048   0.668 -0.2970  0.3455  0.6333
15919TIP3    H169248   1.927   2.014   0.612 -0.7500 -0.5567  1.6864
15919TIP3    H269249   1.950   2.086   0.743  0.1890  3.3631 -0.4659
15920TIP3   OH269250   0.035   1.307   4.850  0.6684  0.3596  0.7924
15920TIP3    H169251  -0.050   1.330   4.813  0.8010 -1.9888 -1.2124
15920TIP3    H269252   0.016   1.237   4.912  1.1146  0.0387  0.5712
15921TIP3   OH269253   2.877   5.723   0.870 -0.2826 -0.1187  0.0808
15921TIP3    H169254   2.831   5.699   0.950  0.7160  0.4017  0.8428
15921TIP3    H269255   2.863   5.817   0.861 -0.0701 -0.1047 -0.1259
15922TIP3   OH269256   6.059   2.368   3.276 -0.1334  0.3607  0.3129
15922TIP3    H169257   6.096   2.338   3.358 -1.0188  0.4049  0.7449
15922TIP3    H269258   6.133   2.371   3.215  0.6728  1.0161  1.2897
15923TIP3   OH269259   2.552   2.027  11.190  0.2411 -0.5579  0.0278
15923TIP3    H169260   2.629   2.082  11.202 -0.2308  0.5409 -1.6543
15923TIP3    H269261   2.539   2.024  11.095 -2.7759  0.7250  0.2840
15924TIP3   OH269262   0.478   4.807  15.293 -0.4964 -0.7799  0.1610
15924TIP3    H169263   0.419   4.784  15.365 -0.1713 -1.4823  0.2090
15924TIP3    H269264   0.548   4.743  15.298  1.3625  1.2074  1.3471
15925TIP3   OH269265   5.074   2.269  11.732 -0.2151 -0.6363  0.3529
15925TIP3    H169266   5.008   2.337  11.748 -0.6439 -0.8394 -0.4839
15925TIP3    H269267   5.056   2.239  11.642  1.2179 -0.4717 -0.0100
15926TIP3   OH269268   6.332   6.761  12.978  0.2234  0.3365 -0.3511
15926TIP3    H169269   6.278   6.762  12.899  0.6927 -0.2099 -0.6814
15926TIP3    H269270   6.422   6.763  12.946  0.4331 -0.7099  0.1491
15927TIP3   OH269271   4.813   2.915   4.305  0.3411  0.2266  0.4143
15927TIP3    H169272   4.867   2.883   4.377 -0.3349 -1.4523  0.2076
15927TIP3    H269273   4.724   2.915   4.340 -0.1919 -1.8776 -0.7521
15928TIP3   OH269274   2.463   6.757   1.369 -0.6259  0.2905  0.5660
15928TIP3    H169275   2.556   6.758   1.391 -0.7741  1.5388  1.2438
15928TIP3    H269276   2.453   6.683   1.309  0.8584  0.3512  0.2084
15929TIP3   OH269277   0.982   0.746  10.958  0.5227  0.3755 -0.1796
15929TIP3    H169278   1.056   0.723  10.901 -0.1257  0.8217 -1.2310
15929TIP3    H269279   1.022   0.784  11.035  1.5212 -1.8467  0.4811
15930TIP3   OH269280   2.396   3.123   5.583  0.4875  0.6241  0.1176
15930TIP3    H169281   2.404   3.047   5.526 -0.6356 -0.9515  1.9227
15930TIP3    H269282   2.358   3.191   5.527  2.2118  0.1489 -1.7337
15931TIP3   OH269283   6.289   3.820  13.914 -0.0374 -0.3640  0.2364
15931TIP3    H169284   6.364   3.820  13.973  0.2289  0.4457 -0.0875
15931TIP3    H269285   6.213   3.830  13.972 -0.0008 -2.1497  0.6540
15932TIP3   OH269286   6.593   1.554  14.064 -0.0151  0.0580 -0.4055
15932TIP3    H169287   6.523   1.579  14.003 -0.5957 -1.3818 -0.3687
15932TIP3    H269288   6.588   1.458  14.069  0.9243  0.0419  0.8486
15933TIP3   OH269289   6.643   4.624   2.785  0.3297 -0.6221 -0.1139
15933TIP3    H169290   6.552   4.611   2.812  0.4729 -0.4638  0.4575
15933TIP3    H269291   6.650   4.575   2.703  0.1765 -2.0470  0.6877
15934TIP3   OH269292   4.097   1.135   4.358  0.5404 -0.2063  0.2678
15934TIP3    H169293   4.117   1.057   4.307  0.1569 -0.5572  0.6558
15934TIP3    H269294   4.029   1.180   4.307  0.9255 -0.0002 -0.0711
15935TIP3   OH269295   0.544   3.186  14.830  0.1154 -0.1640 -0.0408
15935TIP3    H169296   0.573   3.114  14.775  0.3771  0.5608 -0.8702
15935TIP3    H269297   0.617   3.202  14.890  1.7209  1.9228 -2.3761
15936TIP3   OH269298   5.160   0.529   1.652  0.2709 -0.6808 -0.4303
15936TIP3    H169299   5.171   0.599   1.588 -1.1315  1.1810  1.2302
15936TIP3    H269300   5.239   0.531   1.705  0.4478 -0.7045 -0.6919
15937TIP3   OH269301   5.885   3.721   0.870  1.0525  0.0267 -0.1488
15937TIP3    H169302   5.946   3.708   0.797  0.6480 -1.3844 -0.2750
15937TIP3    H269303   5.911   3.805   0.909  0.6855  1.2942 -2.4700
15938TIP3   OH269304   1.865   1.987  12.377  0.0987  0.0279  0.1990
15938TIP3    H169305   1.772   1.991  12.399 -0.0259 -1.1022 -0.0578
15938TIP3    H269306   1.905   2.059  12.426 -0.8737  0.3812  0.4831
15939TIP3   OH269307   1.038   1.757  16.895  0.4944  0.4340 -0.0721
15939TIP3    H169308   1.041   1.852  16.880  0.6671  0.2431 -1.3875
15939TIP3    H269309   1.114   1.739  16.950  0.2690  1.1004  0.4752
15940TIP3   OH269310   3.472   1.412  12.937 -0.0910  0.0540  0.0250
15940TIP3    H169311   3.411   1.338  12.939 -0.5226  0.4269  1.4927
15940TIP3    H269312   3.495   1.427  13.029  0.9387  0.9754 -0.3639
15941TIP3   OH269313   4.988   3.879  16.830 -0.1148  0.1473 -0.2011
15941TIP3    H169314   4.992   3.835  16.745  3.7420 -0.7094  0.2265
15941TIP3    H269315   5.079   3.883  16.859 -1.1340  1.5752  3.3495
15942TIP3   OH269316   2.085   5.865  14.707  0.1765  0.2324 -0.2588
15942TIP3    H169317   2.113   5.777  14.681 -0.7728  0.2531 -1.4190
15942TIP3    H269318   2.026   5.850  14.781  0.1915 -0.0847 -0.3081
15943TIP3   OH269319   3.166   5.878   0.632 -0.1035 -0.0810 -0.4977
15943TIP3    H169320   3.138   5.896   0.543  1.1633  0.9786 -0.7165
15943TIP3    H269321   3.217   5.797   0.624  1.0426  0.6545 -0.9908
15944TIP3   OH269322   4.220   3.204   3.053 -0.4579  0.0029 -0.0557
15944TIP3    H169323   4.257   3.164   2.974  0.5665  0.1782  0.3162
15944TIP3    H269324   4.200   3.131   3.111 -0.0057 -0.0596  0.0240
15945TIP3   OH269325   3.583   0.859  16.869  0.2937  0.1496 -0.0198
15945TIP3    H169326   3.502   0.910  16.866 -0.7145 -1.3754 -0.5638
15945TIP3    H269327   3.623   0.880  16.953 -0.3493  1.4088 -0.0195
15946TIP3   OH269328   5.081   2.176   2.893  0.5730  0.2119 -0.5705
15946TIP3    H169329   5.131   2.102   2.858  0.6232  0.4998 -1.1247
15946TIP3    H269330   5.101   2.249   2.834  0.7056  0.7339  0.1038
15947TIP3   OH269331   3.421   4.297   3.986 -0.6842  0.4797  0.5707
15947TIP3    H169332   3.425   4.263   3.897  1.2429 -0.8290  1.0903
15947TIP3    H269333   3.342   4.257   4.023 -0.9833  0.2766 -0.2635
15948TIP3   OH269334   1.956   4.780  14.136 -0.6318 -0.1565 -0.0989
15948TIP3    H169335   1.892   4.850  14.149  0.4644  0.7710  0.5474
15948TIP3    H269336   1.991   4.796  14.049 -0.6332 -0.1032 -0.0907
15949TIP3   OH269337   4.769   3.435  12.152 -0.1928 -0.5601  0.6044
15949TIP3    H169338   4.756   3.353  12.104  0.8082 -0.9306  0.9427
15949TIP3    H269339   4.725   3.422  12.236 -1.9161  0.0751 -0.1561
15950TIP3   OH269340   1.146   6.179   3.614  0.2204 -0.1426  0.1074
15950TIP3    H169341   1.226   6.230   3.610 -0.0393  0.1974 -2.8058
15950TIP3    H269342   1.075   6.243   3.606 -0.3441 -0.5617  1.3692
15951TIP3   OH269343   1.235   3.739  12.544 -0.2210 -0.0966  0.1156
15951TIP3    H169344   1.261   3.776  12.459  0.9802 -0.9729  0.0839
15951TIP3    H269345   1.145   3.711  12.531  0.7078 -2.6643 -1.7748
15952TIP3   OH269346   4.907   4.398  13.659  0.3534  0.2072 -0.1749
15952TIP3    H169347   4.956   4.347  13.595  0.5065 -0.5639  0.5335
15952TIP3    H269348   4.864   4.467  13.608  1.0932  0.0813 -0.9844
15953TIP3   OH269349   6.094   2.938   4.694  0.3470 -0.0614  0.0147
15953TIP3    H169350   6.140   2.994   4.758  0.2265  0.7709 -0.6075
15953TIP3    H269351   6.046   3.000   4.639  0.2907 -0.7790 -0.7563
15954TIP3   OH269352   5.686   3.993   4.055 -0.5518 -0.1359  0.0506
15954TIP3    H169353   5.653   4.082   4.064  0.7315  0.5702 -1.6479
15954TIP3    H269354   5.727   3.974   4.140 -0.1335  1.2116  0.1692
15955TIP3   OH269355   2.493   4.762   5.357 -0.2616 -0.4662 -0.2608
15955TIP3    H169356   2.486   4.851   5.321 -1.4536 -0.0508  0.9020
15955TIP3    H269357   2.429   4.711   5.307 -0.4614 -0.3678 -0.1092
15956TIP3   OH269358   5.418   3.900  13.706  0.4023  0.0130 -0.0638
15956TIP3    H169359   5.452   3.964  13.644 -1.8580  1.0001 -0.3715
15956TIP3    H269360   5.419   3.946  13.791  1.9546 -0.7738  0.3847
15957TIP3   OH269361   5.519   3.376  13.566 -0.7038 -0.3078 -0.7583
15957TIP3    H169362   5.551   3.293  13.600 -0.5913 -0.0104 -0.1328
15957TIP3    H269363   5.529   3.368  13.471  0.4401 -0.5440 -0.6306
15958TIP3   OH269364   4.359   4.799   0.717  0.1168 -0.0284  0.1461
15958TIP3    H169365   4.307   4.727   0.682 -0.9831  1.0951 -0.6651
15958TIP3    H269366   4.305   4.877   0.700  0.7339  0.8754  1.9928
15959TIP3   OH269367   4.391   3.137  16.662 -0.1253 -0.1736  0.4637
15959TIP3    H169368   4.356   3.176  16.743  1.2347 -0.9741  1.4741
15959TIP3    H269369   4.355   3.192  16.592 -0.0113  1.5936  1.7053
15960TIP3   OH269370   5.252   3.476   1.732 -0.0623  0.5317 -0.1895
15960TIP3    H169371   5.257   3.550   1.671  1.4088  1.6806  1.2247
15960TIP3    H269372   5.318   3.496   1.798 -0.3436 -1.5761  0.7914
15961TIP3   OH269373   5.354   4.363   0.998 -0.3804  0.0537 -0.2115
15961TIP3    H169374   5.427   4.301   0.997 -0.9672 -0.6908  1.1904
15961TIP3    H269375   5.290   4.325   0.938 -0.4656 -0.3668  0.1405
15962TIP3   OH269376   0.003   2.527   5.642  0.1257 -0.0077 -0.0857
15962TIP3    H169377   0.016   2.600   5.702 -0.7735 -0.6889  0.9757
15962TIP3    H269378   0.073   2.536   5.578 -1.4556  3.3475 -1.6211
15963TIP3   OH269379   6.795   6.507  16.870 -0.4714  0.1676  0.0926
15963TIP3    H169380   6.799   6.588  16.820  1.2102  0.1396  0.1019
15963TIP3    H269381   6.746   6.446  16.815  1.3014  0.1420 -1.5528
15964TIP3   OH269382   0.592   3.284  11.481 -0.5867  0.3870  0.2777
15964TIP3    H169383   0.663   3.342  11.509 -1.1820  1.8450 -1.0362
15964TIP3    H269384   0.517   3.312  11.533 -0.6624  0.1996  0.2681
15965TIP3   OH269385   4.521   2.011  16.404 -0.2186  0.4943 -0.7518
15965TIP3    H169386   4.512   1.917  16.387 -0.4393  0.2857  0.4473
15965TIP3    H269387   4.529   2.018  16.499  2.4006  1.4886 -0.9601
15966TIP3   OH269388   4.270   1.450   1.409 -0.0927 -0.1143 -0.5796
15966TIP3    H169389   4.277   1.513   1.481  0.4639  1.0350 -1.6063
15966TIP3    H269390   4.254   1.366   1.452 -0.0000  0.5837  0.8690
15967TIP3   OH269391   5.653   6.402  13.470  0.2325  0.1018  0.3599
15967TIP3    H169392   5.717   6.375  13.405 -0.5214  2.5237 -1.5163
15967TIP3    H269393   5.615   6.482  13.435 -1.5472  0.5076  2.9381
15968TIP3   OH269394   0.912   6.605   0.829 -0.3932 -0.0086 -0.0888
15968TIP3    H169395   0.850   6.538   0.856 -0.0058 -0.5983 -0.6267
15968TIP3    H269396   0.980   6.603   0.897 -0.6430  0.2046  0.1696
15969TIP3   OH269397   2.033   1.470  17.247  0.2988 -0.0203 -0.0385
15969TIP3    H169398   1.953   1.438  17.290 -0.6288 -0.4302 -1.9251
15969TIP3    H269399   2.095   1.483  17.318 -1.2251 -0.3562  1.4324
15970TIP3   OH269400   6.141   1.420   5.314  0.1535 -0.3253 -0.5900
15970TIP3    H169401   6.125   1.335   5.355 -1.8131  0.6932  0.9965
15970TIP3    H269402   6.209   1.461   5.369  1.3046 -0.9338 -1.5202
15971TIP3   OH269403   1.397   4.287   0.298  0.2145  0.1476  0.1824
15971TIP3    H169404   1.450   4.211   0.322 -0.9000 -1.2778 -1.6163
15971TIP3    H269405   1.458   4.345   0.252  0.6183 -0.7027 -0.3923
15972TIP3   OH269406   2.755   5.270   1.445 -0.0821  0.4692  0.0708
15972TIP3    H169407   2.722   5.231   1.526  2.4724 -0.6223  0.6571
15972TIP3    H269408   2.749   5.364   1.460  0.8603  0.2922  1.7756
15973TIP3   OH269409   0.690   3.782   0.197  0.0769  0.0662 -0.4040
15973TIP3    H169410   0.695   3.851   0.264 -1.4343 -0.5640  0.4191
15973TIP3    H269411   0.778   3.746   0.193  0.4103  0.7198  0.6062
15974TIP3   OH269412   4.431   5.580  13.610  0.1396 -0.2637 -0.0596
15974TIP3    H169413   4.389   5.508  13.656 -1.2184 -1.0882 -2.4059
15974TIP3    H269414   4.514   5.544  13.579 -0.6031 -0.9236 -1.3558
15975TIP3   OH269415   4.612   4.064  12.210  0.2666 -0.1731 -0.7158
15975TIP3    H169416   4.669   4.053  12.134  0.2974 -0.3305 -0.6703
15975TIP3    H269417   4.552   3.989  12.205 -0.4745  0.4372 -1.2370
15976TIP3   OH269418   4.024   3.243  14.840 -0.1885  0.1224 -0.4089
15976TIP3    H169419   3.938   3.218  14.872 -0.2518  1.3934  0.4870
15976TIP3    H269420   4.085   3.185  14.886 -0.4104  0.7559  0.7217
15977TIP3   OH269421   2.835   4.148  11.797 -0.2700 -0.3544  0.0801
15977TIP3    H169422   2.771   4.165  11.728  0.3348 -0.0157 -0.4134
15977TIP3    H269423   2.873   4.234  11.817  0.8659 -0.7021 -0.4867
15978TIP3   OH269424   4.623   4.239   3.243 -0.0618  0.7003  0.1152
15978TIP3    H169425   4.675   4.238   3.162 -0.5801 -0.3769 -0.2336
15978TIP3    H269426   4.533   4.256   3.213 -0.5312 -1.2803  0.2368
15979TIP3   OH269427   4.227   5.619   1.546 -0.5833  0.4884 -0.1049
15979TIP3    H169428   4.169   5.639   1.472  0.3844 -0.8449 -1.2826
15979TIP3    H269429   4.178   5.556   1.598 -1.1725  1.2453  0.2750
15980TIP3   OH269430   1.122   2.796   1.801 -0.1290 -0.6048  0.0422
15980TIP3    H169431   1.174   2.775   1.878  0.9729 -0.7706 -0.7210
15980TIP3    H269432   1.133   2.890   1.789 -0.2458 -0.5902  0.0460
15981TIP3   OH269433   0.882   1.352   1.373 -0.3312  0.3260  0.5718
15981TIP3    H169434   0.819   1.281   1.387 -0.8559  0.8529  1.0042
15981TIP3    H269435   0.865   1.382   1.284  1.2873 -1.3993 -0.3725
15982TIP3   OH269436   3.800   0.161   0.828  0.4157  0.5810 -0.6468
15982TIP3    H169437   3.783   0.154   0.922 -0.5350 -0.3017 -0.8596
15982TIP3    H269438   3.851   0.083   0.807  0.4860  0.6910 -0.8868
15983TIP3   OH269439   6.775   3.203  11.884 -0.3774  0.3398 -0.3345
15983TIP3    H169440   6.865   3.215  11.855 -0.2142  2.1561  0.7796
15983TIP3    H269441   6.747   3.290  11.913 -2.1958 -0.3684  0.1905
15984TIP3   OH269442   5.301   6.059   4.081 -0.4881  0.1060  0.0483
15984TIP3    H169443   5.250   5.982   4.106 -1.4135  0.7959  0.3751
15984TIP3    H269444   5.295   6.117   4.157  0.1717  0.5132 -0.2008
15985TIP3   OH269445   6.548   3.275   1.165  0.0892  1.2052 -0.2476
15985TIP3    H169446   6.626   3.254   1.114 -0.6415 -1.2720 -0.4977
15985TIP3    H269447   6.529   3.366   1.144  2.2086  1.5170 -1.1000
15986TIP3   OH269448   3.039   2.324   3.546 -0.0011 -0.2918  0.0509
15986TIP3    H169449   3.127   2.347   3.519 -0.8754  2.8336 -0.4529
15986TIP3    H269450   3.039   2.338   3.641 -0.2097  0.6862 -0.0891
15987TIP3   OH269451   2.844   1.325   5.929 -0.4335  0.0713 -0.0503
15987TIP3    H169452   2.797   1.362   5.853 -0.0917 -0.0145 -0.3067
15987TIP3    H269453   2.882   1.401   5.973 -1.3901  0.2072  0.5550
15988TIP3   OH269454   3.612   0.508   3.559 -0.2784  0.4615 -0.0141
15988TIP3    H169455   3.589   0.415   3.562 -0.1486  0.4606  1.3489
15988TIP3    H269456   3.594   0.534   3.468  2.0565 -1.4619 -1.1452
15989TIP3   OH269457   0.103   5.194  12.761  0.3539 -0.4362 -0.6680
15989TIP3    H169458   0.045   5.148  12.701 -1.4867  1.2794 -0.3079
15989TIP3    H269459   0.045   5.250  12.813  2.3056  1.1941 -0.1010
15990TIP3   OH269460   4.745   4.491  14.667 -0.0491  1.0854 -0.0094
15990TIP3    H169461   4.672   4.472  14.725 -2.2592  2.4672 -2.1729
15990TIP3    H269462   4.759   4.410  14.618  2.3552 -0.3647  2.7476
15991TIP3   OH269463   0.705   4.943  17.007  0.0827  0.0743 -0.5243
15991TIP3    H169464   0.663   5.029  17.017  1.1015  0.4548  0.6564
15991TIP3    H269465   0.632   4.882  17.000 -0.6981  0.7596  1.0732
15992TIP3   OH269466   2.934   4.938  15.007  0.2535  0.3636 -0.3225
15992TIP3    H169467   3.028   4.921  15.011  0.3121  0.7882  0.3181
15992TIP3    H269468   2.894   4.861  15.049  0.4221  0.9636  0.9976
15993TIP3   OH269469   6.757   5.924  14.566 -0.0748  0.6467  0.5243
15993TIP3    H169470   6.773   5.841  14.520 -0.4027  1.3369 -0.9082
15993TIP3    H269471   6.723   5.982  14.498 -4.8721  0.5103  2.3861
15994TIP3   OH269472   2.277   6.137  13.092 -0.1218 -0.1461  0.7388
15994TIP3    H169473   2.319   6.081  13.157 -0.9656  0.3006  1.7004
15994TIP3    H269474   2.184   6.118  13.101 -0.1999 -1.1697 -1.3981
15995TIP3   OH269475   5.975   5.331   5.845 -0.4217 -0.0612 -0.4858
15995TIP3    H169476   5.958   5.390   5.918 -0.7749 -0.4249 -0.2722
15995TIP3    H269477   6.001   5.389   5.773 -1.1387  0.3885 -0.3927
15996TIP3   OH269478   1.035   5.205  16.867 -0.2141  0.3913  0.2297
15996TIP3    H169479   1.080   5.279  16.907  0.4512 -0.1942  0.5730
15996TIP3    H269480   1.042   5.135  16.932  0.2658 -0.3574 -0.6147
15997TIP3   OH269481   1.861   1.104   4.717 -0.7110 -0.1006  0.0978
15997TIP3    H169482   1.914   1.180   4.738  0.6765 -1.1113  0.4095
15997TIP3    H269483   1.851   1.107   4.622 -0.9463  0.6326  0.1420
15998TIP3   OH269484   4.472   6.664  14.909 -0.6171  0.3769 -0.3894
15998TIP3    H169485   4.523   6.621  14.977 -2.6621  0.6661  1.4335
15998TIP3    H269486   4.537   6.702  14.850  1.2405 -2.0781 -0.0754
15999TIP3   OH269487   0.165   1.899  13.384 -0.3209  0.1453 -0.3170
15999TIP3    H169488   0.226   1.825  13.374  1.3211  1.3150  0.5865
15999TIP3    H269489   0.163   1.940  13.298 -0.3856 -0.3121 -0.5370
16000TIP3   OH269490   1.453   1.788   5.379 -0.2261  0.1241 -0.1500
16000TIP3    H169491   1.465   1.749   5.292  0.8742 -0.9850  0.4808
16000TIP3    H269492   1.361   1.771   5.401  0.0809 -1.6022 -0.1374
16001TIP3   OH269493   3.981   1.223  11.132  0.3434 -0.4329 -0.1259
16001TIP3    H169494   4.017   1.145  11.088  1.3094  0.0002 -0.1434
16001TIP3    H269495   4.054   1.285  11.133  0.1058 -0.1410  1.3954
16002TIP3   OH269496   4.286   2.624   5.976  0.1994 -0.7364  0.2640
16002TIP3    H169497   4.213   2.576   6.016  0.1469  0.1997  1.3192
16002TIP3    H269498   4.364   2.586   6.018  0.1188  0.6180  1.7397
16003TIP3   OH269499   4.467   5.526  16.435 -0.3510  0.7216 -0.2784
16003TIP3    H169500   4.392   5.538  16.493 -1.0199  0.3028 -1.0396
16003TIP3    H269501   4.527   5.597  16.459 -1.5884  1.9286 -0.6188
16004TIP3   OH269502   4.469   1.240   1.710  0.2780  0.1493  0.2861
16004TIP3    H169503   4.514   1.156   1.721  1.3316  0.6809  0.2000
16004TIP3    H269504   4.415   1.228   1.632  1.8075  0.0992 -0.8103
16005TIP3   OH269505   3.262   6.427  13.826  0.1091  0.6527 -0.4030
16005TIP3    H169506   3.197   6.428  13.896  1.0742 -0.3272  0.5526
16005TIP3    H269507   3.224   6.369  13.759 -0.3121  0.6577 -0.1695
16006TIP3   OH269508   5.328   6.732   5.946 -0.4549 -0.3967  0.1409
16006TIP3    H169509   5.413   6.765   5.915 -0.4965  0.8449  1.2655
16006TIP3    H269510   5.271   6.809   5.946 -0.7718 -0.5945  2.1292
16007TIP3   OH269511   1.020   6.430   4.042 -0.0340 -0.0651 -0.1662
16007TIP3    H169512   0.963   6.377   3.987 -2.3571  1.0469  1.0548
16007TIP3    H269513   1.002   6.400   4.131  1.3945  0.2399  0.2519
16008TIP3   OH269514   3.176   6.462  13.036  0.1132 -0.0078  0.3847
16008TIP3    H169515   3.266   6.491  13.052  0.9715 -2.2676  0.0737
16008TIP3    H269516   3.124   6.542  13.037  1.9299  1.2365  1.8827
16009TIP3   OH269517   3.651   0.619  16.714 -0.1070 -0.6000 -0.3110
16009TIP3    H169518   3.587   0.551  16.737  0.2647 -1.3914 -1.4837
16009TIP3    H269519   3.620   0.698  16.758 -0.8452 -1.4055  0.6616
16010TIP3   OH269520   3.994   3.245  13.174 -0.4376 -0.2589 -0.0958
16010TIP3    H169521   4.035   3.182  13.233  0.7121 -0.2099 -0.8203
16010TIP3    H269522   4.001   3.329  13.220  0.2301 -0.2595 -0.1986
16011TIP3   OH269523   2.567   3.802   5.143 -0.2874  0.0786 -0.1719
16011TIP3    H169524   2.639   3.751   5.105  0.5315 -0.0934  1.5468
16011TIP3    H269525   2.564   3.776   5.235 -0.7524  2.0902  0.4451
16012TIP3   OH269526   2.299   2.027   4.032 -0.0981  0.6004 -0.2411
16012TIP3    H169527   2.392   2.012   4.052 -0.3897 -0.5246  0.3795
16012TIP3    H269528   2.299   2.089   3.959  1.1120  1.6606  0.6246
16013TIP3   OH269529   3.772   4.515  12.715 -0.2400  0.1461 -0.2833
16013TIP3    H169530   3.760   4.504  12.809 -0.0021 -0.2906 -0.3010
16013TIP3    H269531   3.815   4.434  12.687  1.3555  1.0222 -0.4684
16014TIP3   OH269532   3.200   3.041  14.183  0.0368  0.4645 -0.0540
16014TIP3    H169533   3.121   3.045  14.128  1.4402 -0.0542 -2.2515
16014TIP3    H269534   3.237   2.955  14.165  1.5557  1.0234  0.2511
16015TIP3   OH269535   0.960   6.376  16.834  0.3292  0.3961 -0.0139
16015TIP3    H169536   1.003   6.385  16.749 -1.1877 -2.2066 -1.1961
16015TIP3    H269537   0.963   6.282  16.852 -1.6981  0.5487  1.5185
16016TIP3   OH269538   4.118   4.922  14.589 -0.0279 -0.0952  0.4755
16016TIP3    H169539   4.047   4.858  14.590 -0.7141  0.6583  0.4056
16016TIP3    H269540   4.174   4.896  14.663 -1.0871  0.0912  1.3711
16017TIP3   OH269541   4.021   1.440  14.634 -0.1479  0.4631 -0.3392
16017TIP3    H169542   3.941   1.407  14.675 -0.5256  0.7027 -0.8657
16017TIP3    H269543   4.071   1.361  14.613 -0.3431  0.2996 -0.1973
16018TIP3   OH269544   5.258   4.396  14.320  0.3389 -0.4487 -0.0181
16018TIP3    H169545   5.349   4.365  14.315 -0.1992 -2.5166  1.5844
16018TIP3    H269546   5.217   4.362  14.241  0.6394 -0.6830 -0.0768
16019TIP3   OH269547   6.589   4.730   3.546  0.0580 -0.8988 -0.0293
16019TIP3    H169548   6.608   4.804   3.487 -0.6605  0.2133  1.1004
16019TIP3    H269549   6.501   4.702   3.522 -0.6769  0.2612  1.1925
16020TIP3   OH269550   6.300   2.540   2.225  0.2963 -0.0227 -0.2874
16020TIP3    H169551   6.216   2.501   2.198  1.0312 -1.2468 -0.8704
16020TIP3    H269552   6.321   2.601   2.154  0.6196 -0.8383 -0.9174
16021TIP3   OH269553   2.612   6.589   5.266 -0.5610 -0.5669 -0.1093
16021TIP3    H169554   2.636   6.593   5.359  0.6252  1.6202 -0.4418
16021TIP3    H269555   2.674   6.525   5.229 -1.5250 -2.0181  0.6836
16022TIP3   OH269556   2.615   1.205  16.644 -0.0484 -0.0712 -0.4289
16022TIP3    H169557   2.570   1.144  16.703 -0.3624 -0.1343 -0.7284
16022TIP3    H269558   2.548   1.228  16.579  0.2683  0.0625 -0.7084
16023TIP3   OH269559   4.172   6.049   6.263 -0.1624  0.2030 -0.1511
16023TIP3    H169560   4.094   6.055   6.318  0.0495  0.6936  0.1009
16023TIP3    H269561   4.204   5.960   6.277  0.0469  0.4161  0.7362
16024TIP3   OH269562   5.815   5.510  13.637 -0.7934 -0.0022 -0.0879
16024TIP3    H169563   5.795   5.420  13.612 -0.1565 -0.3314  0.5677
16024TIP3    H269564   5.734   5.542  13.678 -1.0709 -0.2153 -0.4614
16025TIP3   OH269565   5.803   6.713  17.144  0.0604  0.4361  0.1336
16025TIP3    H169566   5.897   6.719  17.164  0.6368  0.7783 -2.4114
16025TIP3    H269567   5.773   6.640  17.198  1.5552  0.9250  1.7313
16026TIP3   OH269568   6.645   4.136  16.986  0.2418 -0.3751  0.1058
16026TIP3    H169569   6.579   4.200  16.962  1.1002  0.5424  0.1365
16026TIP3    H269570   6.711   4.142  16.917  0.5015 -0.9884  0.2871
16027TIP3   OH269571   5.153   3.175  16.195  0.1147  0.0759  0.1578
16027TIP3    H169572   5.229   3.233  16.196  0.0895  0.1100  0.1169
16027TIP3    H269573   5.172   3.111  16.127  0.1180  0.0699  0.1647
16028TIP3   OH269574   3.570   4.306   3.295  0.1500 -0.1882  0.8107
16028TIP3    H169575   3.538   4.219   3.318  1.9032 -0.9316  0.5559
16028TIP3    H269576   3.567   4.355   3.377 -0.7587 -0.4918  0.9750
16029TIP3   OH269577   4.311   3.228  16.404 -0.1736  0.4463 -0.2182
16029TIP3    H169578   4.370   3.184  16.342  0.3310  0.8948 -0.0618
16029TIP3    H269579   4.297   3.315  16.366 -0.3473  0.5103 -0.0081
16030TIP3   OH269580   5.294   1.223   4.491 -0.0372  0.4259 -0.5901
16030TIP3    H169581   5.258   1.269   4.567 -2.2616  1.7379 -2.2956
16030TIP3    H269582   5.337   1.291   4.440  0.1045 -0.1414 -1.2418
16031TIP3   OH269583   3.784   5.325  15.338 -0.3492 -0.1072  0.1708
16031TIP3    H169584   3.857   5.323  15.276 -0.5087  1.2379 -0.0979
16031TIP3    H269585   3.710   5.288  15.289 -0.4183  0.7438 -0.3973
16032TIP3   OH269586   5.679   0.655  16.612 -0.2389 -0.3183 -0.5126
16032TIP3    H169587   5.614   0.586  16.618 -1.0390  0.4551 -0.0426
16032TIP3    H269588   5.656   0.702  16.532  0.3430 -0.6278 -0.8676
16033TIP3   OH269589   3.528   4.347   2.686  0.1032  0.0070  0.0225
16033TIP3    H169590   3.616   4.385   2.687  0.0795  0.1128 -0.9013
16033TIP3    H269591   3.499   4.357   2.595 -0.5327 -0.7888  0.1283
16034TIP3   OH269592   1.143   6.658   1.501 -0.1838 -0.1600  0.4043
16034TIP3    H169593   1.159   6.691   1.589 -1.5456 -0.7606  0.9145
16034TIP3    H269594   1.079   6.588   1.514 -1.1792  0.4143 -1.1599
16035TIP3   OH269595   1.143   6.412   0.095  0.8369 -0.3065  0.1263
16035TIP3    H169596   1.103   6.462   0.024  0.4046  0.2751  0.7579
16035TIP3    H269597   1.069   6.374   0.142  1.0327  0.3097  0.9687
16036TIP3   OH269598   6.541   3.695   5.464  0.3292 -0.3365 -0.0336
16036TIP3    H169599   6.532   3.703   5.559 -1.7718  0.5237 -0.2584
16036TIP3    H269600   6.458   3.658   5.435  0.7116 -0.0358 -1.6042
16037TIP3   OH269601   5.361   6.161  17.023 -0.2904 -0.0648  0.0888
16037TIP3    H169602   5.423   6.097  17.059 -0.1329  1.2965  2.4122
16037TIP3    H269603   5.410   6.207  16.956 -0.1393 -1.7289 -1.0152
16038TIP3   OH269604   1.796   4.904  16.964 -0.4448 -0.7821  0.2191
16038TIP3    H169605   1.740   4.927  16.890  0.5702  0.4030 -0.2075
16038TIP3    H269606   1.772   4.813  16.985 -2.2037 -0.4536 -0.2183
16039TIP3   OH269607   1.620   4.709   3.139  0.1012  0.1565 -0.0035
16039TIP3    H169608   1.568   4.786   3.118 -0.0331  0.2886  0.7707
16039TIP3    H269609   1.568   4.663   3.205 -0.5894 -1.4426 -1.5833
16040TIP3   OH269610   0.454   6.034   2.460 -0.6526 -0.2605  0.4438
16040TIP3    H169611   0.536   6.053   2.415 -1.7262 -2.2301 -2.6761
16040TIP3    H269612   0.470   5.954   2.509 -0.4356 -0.0324  0.7501
16041TIP3   OH269613   3.096   2.179  12.981 -0.1709  0.5104  0.3002
16041TIP3    H169614   3.092   2.216  13.069  0.2901 -0.8185  0.9071
16041TIP3    H269615   3.008   2.194  12.946 -1.1476 -0.9907  1.8903
16042TIP3   OH269616   5.130   6.233  16.206 -0.3467 -0.4613 -0.1081
16042TIP3    H169617   5.092   6.269  16.286  1.3450  1.3952 -0.0784
16042TIP3    H269618   5.082   6.276  16.136 -0.6954 -0.8319 -0.1030
16043TIP3   OH269619   0.531   2.668  13.222 -0.1018 -0.0477 -0.2101
16043TIP3    H169620   0.583   2.647  13.300  1.4027  1.6063 -0.7059
16043TIP3    H269621   0.441   2.650  13.248  0.3149  0.8007  2.0738
16044TIP3   OH269622   3.371   1.923   2.486  0.3308  0.0294 -0.0180
16044TIP3    H169623   3.283   1.954   2.508  0.1344 -0.9489  0.6402
16044TIP3    H269624   3.426   1.957   2.557  0.2448 -0.4897  0.3002
16045TIP3   OH269625   6.547   4.071   3.946 -0.5454  0.0824 -1.1651
16045TIP3    H169626   6.476   4.031   3.996 -0.7572  0.8942 -0.7882
16045TIP3    H269627   6.624   4.061   4.002 -0.7919  1.0326 -0.6334
16046TIP3   OH269628   2.792   3.885  13.822 -0.0478 -0.2649  0.0806
16046TIP3    H169629   2.849   3.903  13.897  2.3817 -0.9689 -1.5063
16046TIP3    H269630   2.834   3.813  13.776 -2.8530 -1.6178 -0.6094
16047TIP3   OH269631   1.530   6.293  16.366  0.0701 -0.0553  0.0004
16047TIP3    H169632   1.533   6.213  16.315 -1.0359  0.9355 -1.7236
16047TIP3    H269633   1.599   6.348  16.329 -0.1490  0.3376  0.1658
16048TIP3   OH269634   4.335   4.076   6.543  0.4844  0.2416  0.0231
16048TIP3    H169635   4.297   4.137   6.479  0.2779  1.7725  1.5305
16048TIP3    H269636   4.268   4.009   6.555  0.3865  0.1237 -1.0904
16049TIP3   OH269637   6.216   1.494   4.672 -0.1527  0.3255 -0.1687
16049TIP3    H169638   6.180   1.407   4.687 -1.0853  1.1642  3.4821
16049TIP3    H269639   6.275   1.483   4.598  1.8142 -3.9992  1.7085
16050TIP3   OH269640   5.675   3.648  15.506 -0.2818  0.5928 -0.0396
16050TIP3    H169641   5.650   3.726  15.457  0.2180  1.3529  0.8781
16050TIP3    H269642   5.761   3.669  15.543 -0.1073 -0.4258  0.1669
16051TIP3   OH269643   1.052   2.002   2.295 -0.3124  0.0878 -0.6703
16051TIP3    H169644   1.101   1.941   2.350  0.5883 -0.4299 -1.9936
16051TIP3    H269645   1.097   2.000   2.211 -1.6746  0.8227 -1.4520
16052TIP3   OH269646   4.859   4.997  14.251  0.3033  0.3609 -0.2567
16052TIP3    H169647   4.893   4.916  14.289  0.8243  0.3365 -0.7604
16052TIP3    H269648   4.876   4.988  14.158  0.8340  1.2802 -0.2524
16053TIP3   OH269649   2.216   2.395  16.488 -0.0578  0.3127 -0.3227
16053TIP3    H169650   2.306   2.371  16.511  0.0162 -1.0582 -1.8204
16053TIP3    H269651   2.215   2.396  16.392 -1.3240  1.6268 -0.3226
16054TIP3   OH269652   2.639   2.282  16.412 -0.5110  0.0058 -0.0527
16054TIP3    H169653   2.618   2.193  16.440 -0.9413 -0.3781 -1.5131
16054TIP3    H269654   2.667   2.273  16.321 -0.9392  1.4030 -0.3469
16055TIP3   OH269655   6.323   3.171  13.512 -0.1150 -0.3194  0.0125
16055TIP3    H169656   6.302   3.107  13.580  0.2585  1.1317  1.5529
16055TIP3    H269657   6.272   3.142  13.436 -1.8556 -1.0620  1.3813
16056TIP3   OH269658   2.415   5.578   0.502 -0.0285  0.3418  0.0230
16056TIP3    H169659   2.450   5.600   0.416 -2.5148  2.1367 -0.6246
16056TIP3    H269660   2.400   5.483   0.498  2.3059 -0.0730 -0.4975
16057TIP3   OH269661   0.452   4.071   2.726 -0.1436 -0.2212  0.0792
16057TIP3    H169662   0.519   4.017   2.769  1.0214 -0.7714 -2.2524
16057TIP3    H269663   0.443   4.033   2.639 -2.4097  0.8171 -0.2217
16058TIP3   OH269664   0.288   2.117  14.272  0.4085  0.5313 -0.2233
16058TIP3    H169665   0.203   2.161  14.267  0.2417  0.1468 -0.8610
16058TIP3    H269666   0.349   2.179  14.232  0.3047  0.5138 -0.4126
16059TIP3   OH269667   5.993   2.678  12.382 -0.2967 -0.1179 -0.1765
16059TIP3    H169668   5.946   2.761  12.386 -0.7564 -0.3386 -0.8443
16059TIP3    H269669   5.931   2.614  12.418  1.1594  0.2412  3.4481
16060TIP3   OH269670   2.344   0.149   0.556 -0.8449 -0.0344  0.2936
16060TIP3    H169671   2.386   0.088   0.495  0.1220 -0.6096  1.4832
16060TIP3    H269672   2.312   0.220   0.501  2.3093  0.8005 -0.6726
16061TIP3   OH269673   0.356   0.791  15.422  0.0482 -0.5273  0.2818
16061TIP3    H169674   0.297   0.736  15.474  0.2457 -0.2604  0.7998
16061TIP3    H269675   0.389   0.733  15.354 -1.4089 -0.4709 -0.5002
16062TIP3   OH269676   6.548   1.347  16.615 -0.1200 -0.1783 -0.2121
16062TIP3    H169677   6.528   1.291  16.689 -2.3585  0.5012 -0.2552
16062TIP3    H269678   6.644   1.354  16.615  0.2238 -3.5517  0.0822
16063TIP3   OH269679   5.067   3.114  14.224 -0.1972 -0.5494 -0.2580
16063TIP3    H169680   5.097   3.159  14.302 -1.2015  0.7239 -0.5747
16063TIP3    H269681   5.144   3.108  14.167  0.2333 -0.3649  0.3050
16064TIP3   OH269682   6.524   6.619  14.557  0.2322  0.1765  1.1186
16064TIP3    H169683   6.602   6.674  14.569  1.7637 -1.9593  1.3676
16064TIP3    H269684   6.499   6.633  14.465  2.0640 -0.5188  0.4809
16065TIP3   OH269685   0.076   0.067   2.082 -0.0870  0.1946  0.2893
16065TIP3    H169686   0.062  -0.027   2.075 -2.0479  0.5386 -1.4082
16065TIP3    H269687   0.135   0.088   2.010 -0.3582  0.3598  0.1097
16066TIP3   OH269688   5.329   4.347   1.767 -0.2460 -0.0999  0.3954
16066TIP3    H169689   5.334   4.378   1.677 -0.8561 -1.1661 -0.0139
16066TIP3    H269690   5.258   4.399   1.806 -0.0077  0.3317  0.2580
16067TIP3   OH269691   5.504   5.079   3.165 -0.2113 -0.2589  0.2565
16067TIP3    H169692   5.447   5.146   3.202 -0.4352  1.2780 -2.5891
16067TIP3    H269693   5.591   5.119   3.163 -0.2478 -0.1804 -0.9907
16068TIP3   OH269694   0.914   3.565  11.639 -0.4000 -0.1950  0.3198
16068TIP3    H169695   0.936   3.589  11.729  1.2884 -2.7624  0.6985
16068TIP3    H269696   0.973   3.618  11.585  1.4650 -1.5382  0.9732
16069TIP3   OH269697   1.367   2.207  11.558 -0.3247  0.2537  0.0155
16069TIP3    H169698   1.449   2.178  11.517 -0.8422  0.5394 -1.2441
16069TIP3    H269699   1.309   2.131  11.550 -1.2002  1.0598 -1.9725
16070TIP3   OH269700   3.340   0.607  12.095  0.1445  0.0976 -0.0167
16070TIP3    H169701   3.273   0.666  12.131 -0.4567  1.1443 -2.5938
16070TIP3    H269702   3.423   0.648  12.118 -0.1036 -0.4463  1.9850
16071TIP3   OH269703   2.358   3.994   1.900 -0.4394 -0.1478 -0.0759
16071TIP3    H169704   2.325   3.950   1.822 -2.2286 -0.7347  0.9511
16071TIP3    H269705   2.373   4.084   1.872  0.8455 -0.7864 -1.5667
16072TIP3   OH269706   3.330   3.403  13.523  0.5381  0.4535 -0.1190
16072TIP3    H169707   3.354   3.317  13.489 -1.5019 -0.3033  0.1954
16072TIP3    H269708   3.272   3.439  13.455 -0.4377  0.5812  0.7530
16073TIP3   OH269709   6.284   4.984  15.319 -0.6621  0.3888 -0.3237
16073TIP3    H169710   6.375   4.991  15.290 -0.3045 -2.6574 -0.3063
16073TIP3    H269711   6.290   4.957  15.411 -1.4926 -1.0125 -0.6382
16074TIP3   OH269712   5.869   5.550   1.205 -0.2102 -0.0494 -0.7692
16074TIP3    H169713   5.934   5.506   1.151  0.5908  0.4718 -0.2433
16074TIP3    H269714   5.866   5.498   1.286 -0.2558  0.0762 -0.6896
16075TIP3   OH269715   2.305   4.526  15.046  1.0271  0.1787 -0.3932
16075TIP3    H169716   2.347   4.444  15.019 -0.2032 -0.6717  0.1266
16075TIP3    H269717   2.211   4.507  15.041  0.7205  1.4349  0.1416
16076TIP3   OH269718   3.434   1.733  14.534  0.5596  0.2594  0.0089
16076TIP3    H169719   3.385   1.660  14.495  0.5033 -0.1372  0.7921
16076TIP3    H269720   3.390   1.750  14.617 -0.1704  2.0105 -0.6913
16077TIP3   OH269721   2.868   4.775   0.090  0.1947 -0.6668  0.7298
16077TIP3    H169722   2.829   4.688   0.081  1.6419 -1.2044 -1.1327
16077TIP3    H269723   2.822   4.815   0.163 -0.4736 -3.0208  1.6853
16078TIP3   OH269724   0.572   6.259  15.677 -0.0079  0.4020 -0.0479
16078TIP3    H169725   0.505   6.204  15.717 -0.0674 -0.4576 -1.2556
16078TIP3    H269726   0.655   6.229  15.715 -0.2098  0.8495  0.7702
16079TIP3   OH269727   5.756   6.469   0.472 -0.0630  0.7116  0.1497
16079TIP3    H169728   5.806   6.389   0.454  0.6752  1.2484 -0.2677
16079TIP3    H269729   5.757   6.476   0.567 -0.3025  0.1233  0.2035
16080TIP3   OH269730   2.469   1.490   3.950 -0.4284 -0.1253  0.0145
16080TIP3    H169731   2.564   1.501   3.938 -0.6565  1.5864 -0.4730
16080TIP3    H269732   2.445   1.425   3.884  0.5592 -1.4876  0.9330
16081TIP3   OH269733   2.252   1.819  14.528 -0.1971  0.0208 -0.4018
16081TIP3    H169734   2.177   1.796  14.473  1.0000  0.0819 -2.1602
16081TIP3    H269735   2.301   1.883  14.476  0.9353  0.1735  0.8047
16082TIP3   OH269736   4.466   1.344  16.791 -0.3058 -0.0523  0.0205
16082TIP3    H169737   4.387   1.309  16.750 -1.0972  0.5716  0.9783
16082TIP3    H269738   4.515   1.384  16.719  0.3237 -2.4701 -1.0059
16083TIP3   OH269739   3.078   0.099  14.401 -0.4345  0.2282  0.5311
16083TIP3    H169740   3.160   0.100  14.352 -0.9633  0.8849 -0.3614
16083TIP3    H269741   3.026   0.169  14.363 -0.3072  1.8420  3.0528
16084TIP3   OH269742   6.772   2.962  13.430 -0.3547  0.0175  0.4449
16084TIP3    H169743   6.855   2.996  13.398 -0.3648 -1.3746 -1.1807
16084TIP3    H269744   6.777   2.868  13.414 -2.7357  0.0501 -0.9909
16085TIP3   OH269745   5.397   0.229  11.849 -0.4350  0.3633  0.1286
16085TIP3    H169746   5.367   0.143  11.820  1.3261  0.9214 -4.2345
16085TIP3    H269747   5.457   0.210  11.921 -1.0863 -1.9351  0.1515
16086TIP3   OH269748   6.736   5.704  16.122  0.3933 -0.0468 -0.0857
16086TIP3    H169749   6.758   5.699  16.215 -0.4836 -2.1002  0.0779
16086TIP3    H269750   6.781   5.629  16.082 -0.2281  0.0869 -1.0790
16087TIP3   OH269751   3.560   6.152   4.586  0.7748  0.1784 -0.0998
16087TIP3    H169752   3.524   6.237   4.609 -1.6720 -1.0238  0.8683
16087TIP3    H269753   3.508   6.123   4.511  0.9852 -0.8035  0.1141
16088TIP3   OH269754   4.915   5.075   1.215  0.4085 -0.0907  0.2752
16088TIP3    H169755   4.891   5.075   1.122 -1.1635 -1.2596  0.6205
16088TIP3    H269756   4.946   5.164   1.232 -0.5778  0.5516 -1.0552
16089TIP3   OH269757   6.425   2.655  11.558 -0.3238 -0.0472  0.3337
16089TIP3    H169758   6.518   2.641  11.576  0.0841  0.4354 -1.2736
16089TIP3    H269759   6.380   2.615  11.633  1.1494 -0.5177  1.0081
16090TIP3   OH269760   3.671   6.230  16.314  0.3250 -0.0199 -0.0046
16090TIP3    H169761   3.750   6.267  16.354  0.3603  1.3439 -1.2709
16090TIP3    H269762   3.599   6.266  16.365  0.4039  1.0655 -0.6446
16091TIP3   OH269763   1.060   2.743   0.066 -0.7454 -0.1206  0.2014
16091TIP3    H169764   0.981   2.749   0.011  0.1508  2.1243 -0.9682
16091TIP3    H269765   1.132   2.735   0.003  0.1775  0.5382  1.1453
16092TIP3   OH269766   5.864   6.180  11.563 -0.1823 -0.0097  0.3908
16092TIP3    H169767   5.881   6.205  11.654 -0.4866  0.0401  0.4345
16092TIP3    H269768   5.951   6.171  11.525 -0.0419  1.5388  0.2596
16093TIP3   OH269769   5.946   1.994  11.909 -0.2204  0.1087 -0.0218
16093TIP3    H169770   5.877   1.964  11.850  1.2453 -0.4655 -1.5162
16093TIP3    H269771   6.002   1.918  11.920  0.7998  0.8811  0.2225
16094TIP3   OH269772   1.241   4.848   1.600 -0.2384 -0.3669  0.1592
16094TIP3    H169773   1.219   4.843   1.507 -2.7835  2.5095  0.4567
16094TIP3    H269774   1.162   4.881   1.642 -0.0416 -3.7655  3.8337
16095TIP3   OH269775   0.188   6.167   4.237 -0.1760  0.4042  0.8484
16095TIP3    H169776   0.257   6.207   4.183  0.1963 -0.0332  0.9893
16095TIP3    H269777   0.114   6.156   4.177 -0.7200  2.3548  1.0738
16096TIP3   OH269778   0.908   6.728   4.133 -0.3033 -0.8473 -0.1990
16096TIP3    H169779   0.873   6.639   4.137  1.3996 -1.6840 -2.1239
16096TIP3    H269780   1.002   6.718   4.149 -0.1781  0.7023  0.2394
16097TIP3   OH269781   4.744   0.580  14.137  1.0446  0.1886 -0.1189
16097TIP3    H169782   4.782   0.525  14.206 -2.1909 -1.3506  0.6487
16097TIP3    H269783   4.771   0.538  14.055  1.1054 -0.8018  0.3855
16098TIP3   OH269784   6.283   3.257   0.915 -0.2783  0.4186  0.7095
16098TIP3    H169785   6.208   3.280   0.860 -0.7544  0.6884  1.4688
16098TIP3    H269786   6.316   3.340   0.948  0.1481  0.2722  0.6730
16099TIP3   OH269787   4.694   2.766  14.194  0.1797 -0.4294 -0.4381
16099TIP3    H169788   4.638   2.687  14.193 -0.8780  0.2890  0.0306
16099TIP3    H269789   4.715   2.778  14.286  0.8139 -0.4842 -0.5758
16100TIP3   OH269790   3.032   4.851  12.108  0.3362  0.0556 -0.0445
16100TIP3    H169791   2.993   4.829  12.024  0.9668  0.3654 -0.4190
16100TIP3    H269792   2.988   4.793  12.171 -0.8934  0.5496 -0.4143
16101TIP3   OH269793   5.779   5.209   2.348 -0.4320  0.3136 -0.9713
16101TIP3    H169794   5.776   5.179   2.258 -0.2676  1.1034 -1.2477
16101TIP3    H269795   5.749   5.134   2.400  0.8284 -0.6244 -1.5496
16102TIP3   OH269796   2.232   0.377   0.472  0.3495  0.0285 -0.5019
16102TIP3    H169797   2.224   0.384   0.568  1.0611 -0.4013 -0.4070
16102TIP3    H269798   2.210   0.465   0.440 -0.6872 -0.0374 -0.0018
16103TIP3   OH269799   2.407   2.348  13.950  0.1019  0.0506 -0.1030
16103TIP3    H169800   2.448   2.366  13.866 -0.9351 -1.7652 -1.0459
16103TIP3    H269801   2.321   2.313  13.929 -0.9865  1.4030  1.7850
16104TIP3   OH269802   1.719   0.433   2.657  0.1248 -0.5735  0.0388
16104TIP3    H169803   1.731   0.339   2.650  1.1261 -0.6239  1.8230
16104TIP3    H269804   1.713   0.450   2.751  0.5913  1.2126 -0.2081
16105TIP3   OH269805   4.907   4.799   4.553 -0.8624 -0.3455  0.0546
16105TIP3    H169806   4.962   4.852   4.496 -0.6842  0.0265  0.5576
16105TIP3    H269807   4.819   4.810   4.519 -0.9985  1.2287  0.8291
16106TIP3   OH269808   2.731   4.153  14.739  0.0307  0.4276  0.2412
16106TIP3    H169809   2.728   4.248  14.728  0.1831  0.2236 -1.9930
16106TIP3    H269810   2.823   4.131  14.724  0.0792 -0.0520  1.1782
16107TIP3   OH269811   0.683   2.700  10.948  0.2441 -0.3348  0.1875
16107TIP3    H169812   0.747   2.638  10.984  0.5889 -1.7333 -2.5595
16107TIP3    H269813   0.736   2.760  10.896 -0.3473  0.9119  0.9776
16108TIP3   OH269814   3.546   1.002   0.189  0.1486  0.1121  0.2765
16108TIP3    H169815   3.543   1.089   0.149 -2.7738  0.2102  0.4918
16108TIP3    H269816   3.487   1.008   0.264 -0.2441 -2.1100  0.2170
16109TIP3   OH269817   2.780   4.972  14.083  0.0475  0.4232 -0.1108
16109TIP3    H169818   2.791   5.062  14.053  0.1840  1.5248  2.8753
16109TIP3    H269819   2.866   4.947  14.116 -0.1369 -0.5918 -0.3759
16110TIP3   OH269820   0.667   4.010  12.245  0.2745  0.1044  0.0011
16110TIP3    H169821   0.762   4.016  12.246  0.3132 -0.3969  1.3930
16110TIP3    H269822   0.637   4.101  12.243  0.7841  0.2889  0.5315
16111TIP3   OH269823   1.700   0.341   4.257 -0.3806 -0.8840 -0.5503
16111TIP3    H169824   1.662   0.423   4.289 -2.0304 -1.6434 -0.4685
16111TIP3    H269825   1.697   0.282   4.333  3.1778 -0.3489  0.1965
16112TIP3   OH269826   3.762   1.152   0.548 -0.2518 -0.2110 -0.1779
16112TIP3    H169827   3.741   1.062   0.525 -1.2798 -0.0499  0.0911
16112TIP3    H269828   3.754   1.156   0.643 -1.4000  0.4288 -0.2726
16113TIP3   OH269829   0.888   1.384  11.071 -0.2210  0.3627 -0.3545
16113TIP3    H169830   0.944   1.342  11.136 -2.7640 -1.0784  1.0973
16113TIP3    H269831   0.884   1.476  11.098 -0.6868 -0.0729  1.1884
16114TIP3   OH269832   4.531   6.736  12.414 -0.1647 -0.2602  0.5586
16114TIP3    H169833   4.459   6.755  12.474 -1.8954 -2.1134 -0.7870
16114TIP3    H269834   4.596   6.804  12.432 -2.1125  1.3409  2.0331
16115TIP3   OH269835   6.020   4.187  11.777 -0.7295 -0.4609  0.4748
16115TIP3    H169836   5.941   4.226  11.816  0.0281  1.1753  0.4429
16115TIP3    H269837   6.092   4.219  11.832  0.1516  0.2269 -1.0186
16116TIP3   OH269838   3.935   0.618  14.194  0.9029 -0.3951  0.3454
16116TIP3    H169839   3.848   0.651  14.173 -0.0105 -2.2557  1.0101
16116TIP3    H269840   3.975   0.602  14.108  0.5930  0.4440  0.0361
16117TIP3   OH269841   3.436   3.146   2.969 -0.1197 -0.1943 -0.2694
16117TIP3    H169842   3.348   3.166   2.999 -0.2343  1.8349 -1.7075
16117TIP3    H269843   3.492   3.162   3.044 -0.7447  1.0700 -0.0492
16118TIP3   OH269844   0.587   3.627  14.672  0.1924 -0.3300  0.0455
16118TIP3    H169845   0.662   3.579  14.707  0.1307 -0.7086 -0.3292
16118TIP3    H269846   0.521   3.624  14.741  0.5742  0.1241  0.4285
16119TIP3   OH269847   1.010   0.033   5.645 -0.2020 -0.3542  0.0904
16119TIP3    H169848   0.929   0.019   5.595  0.4608 -2.2457 -0.5356
16119TIP3    H269849   1.047   0.113   5.609 -1.1907 -0.1270 -0.4568
16120TIP3   OH269850   5.211   6.691  15.896 -0.0996  0.1872 -0.0016
16120TIP3    H169851   5.263   6.612  15.888  0.1983  0.2994  0.7999
16120TIP3    H269852   5.185   6.712  15.806  0.0499 -0.6566 -0.2473
16121TIP3   OH269853   3.276   6.402  12.330  0.5977 -0.1247  0.0345
16121TIP3    H169854   3.336   6.398  12.404  0.1828 -0.1340  0.3746
16121TIP3    H269855   3.278   6.494  12.303 -0.2528  0.1804  0.9131
16122TIP3   OH269856   5.062   2.254   1.963  0.8845 -0.0897 -0.2224
16122TIP3    H169857   5.092   2.211   2.043  0.7359 -0.1998 -0.2242
16122TIP3    H269858   4.980   2.298   1.989  1.9196  1.6751  0.2318
16123TIP3   OH269859   4.469   1.581   2.364 -0.3231 -0.5081 -0.2808
16123TIP3    H169860   4.387   1.623   2.392 -0.4261 -0.5378 -0.5357
16123TIP3    H269861   4.516   1.564   2.445  1.5966  3.7550 -0.2301
16124TIP3   OH269862   3.878   3.984  15.659 -0.1229  0.3988  0.0943
16124TIP3    H169863   3.784   3.997  15.670 -0.1104  3.2139 -2.1449
16124TIP3    H269864   3.913   4.072  15.648  2.8197 -0.5846  0.7835
16125TIP3   OH269865   6.221   3.583  15.422 -0.1371 -0.3175  0.1318
16125TIP3    H169866   6.201   3.494  15.450  2.2417 -1.1682 -0.5597
16125TIP3    H269867   6.305   3.602  15.463  0.4641  0.7305 -1.5022
16126TIP3   OH269868   2.874   1.882  15.641  0.1326 -0.0127  0.7652
16126TIP3    H169869   2.780   1.872  15.656 -0.2257  0.0440 -1.1857
16126TIP3    H269870   2.914   1.828  15.709 -1.2484  0.8066  2.3139
16127TIP3   OH269871   1.423   0.685  11.577 -0.2147  0.3026 -1.1179
16127TIP3    H169872   1.391   0.597  11.557 -0.9661  0.4254 -0.5085
16127TIP3    H269873   1.462   0.716  11.495 -1.5167  0.0765 -1.8519
16128TIP3   OH269874   5.369   5.700   1.899  0.2869  0.1953  0.2859
16128TIP3    H169875   5.433   5.771   1.903  0.7218 -0.1559 -0.3111
16128TIP3    H269876   5.288   5.742   1.870  1.0587  0.1279 -2.1087
16129TIP3   OH269877   6.466   0.919   5.687  0.1461  0.1051 -0.1816
16129TIP3    H169878   6.378   0.900   5.720  0.2500  1.0636  0.6840
16129TIP3    H269879   6.463   1.010   5.659  0.3964 -0.3435 -1.7952
16130TIP3   OH269880   6.557   4.899   1.321  0.1444 -0.5026  0.4554
16130TIP3    H169881   6.538   4.836   1.252 -0.7474 -0.5315  0.7109
16130TIP3    H269882   6.472   4.938   1.342  0.4548 -0.2483  1.2924
16131TIP3   OH269883   5.881   0.907   5.545 -0.4536 -0.0193 -0.5998
16131TIP3    H169884   5.830   0.981   5.577  1.3668  0.9183  0.2971
16131TIP3    H269885   5.889   0.849   5.620  0.0719  0.0180 -0.6213
16132TIP3   OH269886   5.322   3.458   1.191 -0.1116 -0.3998  0.1547
16132TIP3    H169887   5.323   3.403   1.113  1.5679  2.9940 -2.4954
16132TIP3    H269888   5.411   3.491   1.198 -0.8752  1.5209  1.8607
16133TIP3   OH269889   2.367   5.192   1.536 -0.2595  0.5099 -0.0147
16133TIP3    H169890   2.432   5.123   1.520 -1.1677 -0.1652 -0.9344
16133TIP3    H269891   2.382   5.219   1.626 -0.6095 -1.7142  0.7780
16134TIP3   OH269892   6.062   1.445  12.477  0.1503 -0.4519 -0.0949
16134TIP3    H169893   6.095   1.534  12.462  1.6526 -0.9475  0.1613
16134TIP3    H269894   6.075   1.400  12.393 -2.7227  0.1508 -0.9741
16135TIP3   OH269895   1.909   4.296  12.850 -0.0400 -0.3564 -0.7660
16135TIP3    H169896   1.817   4.299  12.826  0.1992 -0.6043 -1.7663
16135TIP3    H269897   1.954   4.344  12.781  0.4512  1.0401  0.4839
16136TIP3   OH269898   6.265   2.157  12.895  0.0377 -0.5809  0.3565
16136TIP3    H169899   6.209   2.165  12.973 -1.4333  0.2230 -0.7432
16136TIP3    H269900   6.289   2.064  12.893 -1.1863 -0.9321  0.9179
16137TIP3   OH269901   1.849   0.794  12.703  0.1432 -0.1604 -0.0149
16137TIP3    H169902   1.778   0.815  12.764  0.0936 -0.2375 -0.0450
16137TIP3    H269903   1.812   0.725  12.647 -0.4218  1.0445 -1.2140
16138TIP3   OH269904   0.385   0.648   5.928  0.6067  0.2724 -0.4798
16138TIP3    H169905   0.320   0.578   5.929  1.2442 -0.3705 -1.4062
16138TIP3    H269906   0.381   0.686   6.015  0.0902 -0.7923 -0.0148
16139TIP3   OH269907   3.451   2.966   4.851 -0.1695 -0.5181 -0.7339
16139TIP3    H169908   3.402   2.969   4.934 -1.5567 -1.7526 -1.4538
16139TIP3    H269909   3.493   2.880   4.851 -1.9764 -1.4762 -2.2207
16140TIP3   OH269910   3.885   3.490  15.540 -0.2709  0.2899 -0.4150
16140TIP3    H169911   3.929   3.468  15.458  0.6081  0.5599 -0.0285
16140TIP3    H269912   3.956   3.510  15.601 -0.8500 -0.9629  0.7359
16141TIP3   OH269913   6.075   0.910   5.355  0.1032 -0.1417 -0.0081
16141TIP3    H169914   6.019   0.889   5.430  0.4088 -1.1763 -0.0508
16141TIP3    H269915   6.022   0.970   5.302 -1.1418 -1.3950 -0.2494
16142TIP3   OH269916   6.188   5.595   3.549 -0.2072 -0.4939  0.6030
16142TIP3    H169917   6.146   5.664   3.600  0.3497 -0.3590  0.8839
16142TIP3    H269918   6.182   5.517   3.605  2.1021  0.0676  1.7640
16143TIP3   OH269919   0.172   2.603   0.946  0.1083 -0.0662 -0.3827
16143TIP3    H169920   0.266   2.617   0.944 -0.1840  2.5060 -2.7440
16143TIP3    H269921   0.158   2.522   0.898  1.0727  0.1824 -1.1096
16144TIP3   OH269922   0.483   2.075   4.062 -0.3041 -0.0729 -0.6028
16144TIP3    H169923   0.490   2.109   4.151  2.1207 -1.9602  0.0724
16144TIP3    H269924   0.514   2.147   4.006  2.1947 -0.1685  0.5216
16145TIP3   OH269925   4.927   2.366  15.075 -0.4698  0.1128 -0.1304
16145TIP3    H169926   4.858   2.411  15.027 -1.4276  0.8668  1.8698
16145TIP3    H269927   4.981   2.325  15.006 -0.5660  2.8004 -1.9483
16146TIP3   OH269928   2.629   3.651   4.083 -0.0529  0.4469  0.4302
16146TIP3    H169929   2.690   3.580   4.063 -0.4713 -0.2270  1.4441
16146TIP3    H269930   2.621   3.649   4.179 -0.9226  1.1496  0.3837
16147TIP3   OH269931   1.561   0.806  15.986 -0.3799  0.3096  0.0201
16147TIP3    H169932   1.485   0.749  15.997  0.3955 -0.8348 -0.3946
16147TIP3    H269933   1.535   0.869  15.919 -0.3909 -1.1286 -1.3587
16148TIP3   OH269934   4.481   2.971   5.681  0.0692  0.4406 -0.3139
16148TIP3    H169935   4.559   2.986   5.627  0.5813  1.4529  0.6746
16148TIP3    H269936   4.482   2.877   5.699  0.6077  0.3117 -0.9788
16149TIP3   OH269937   2.699   5.936  16.736 -0.8092  0.4586 -0.2801
16149TIP3    H169938   2.758   5.956  16.808 -0.2373  1.4353 -1.0067
16149TIP3    H269939   2.613   5.963  16.767 -0.4241  1.7522 -0.3056
16150TIP3   OH269940   5.447   6.315  13.692  0.1146  0.1684 -0.4654
16150TIP3    H169941   5.452   6.359  13.777 -0.9548 -0.1002 -0.2387
16150TIP3    H269942   5.522   6.347  13.643 -0.9063  2.7177 -0.5159
16151TIP3   OH269943   2.461   2.659   3.416  0.1052 -0.3542 -0.0353
16151TIP3    H169944   2.507   2.649   3.333 -0.0457  0.7479 -0.2631
16151TIP3    H269945   2.382   2.605   3.406  0.2736 -0.5274 -0.4583
16152TIP3   OH269946   6.057   5.850  15.614 -0.0566 -0.8958 -0.0303
16152TIP3    H169947   6.136   5.825  15.566 -0.1944  0.4405 -0.9990
16152TIP3    H269948   6.022   5.925  15.566 -1.8300 -1.3449  0.4742
16153TIP3   OH269949   3.597   2.430  16.409  0.8448  0.2485 -0.4835
16153TIP3    H169950   3.657   2.496  16.374  2.1850 -0.9215 -0.4736
16153TIP3    H269951   3.625   2.417  16.499  1.2596 -1.0318 -0.7731
16154TIP3   OH269952   1.005   2.203   3.514 -0.1111  0.1930  0.5499
16154TIP3    H169953   1.100   2.217   3.511  0.0104 -0.6974 -0.1430
16154TIP3    H269954   0.968   2.275   3.464  0.3073 -0.2399 -0.4172
16155TIP3   OH269955   6.150   1.532   5.601  0.5191  0.2103  0.6943
16155TIP3    H169956   6.235   1.552   5.639  0.0829 -0.5432  2.1451
16155TIP3    H269957   6.118   1.457   5.651 -1.3646  1.0083  0.7744
16156TIP3   OH269958   5.019   3.838   5.739 -0.1829 -0.6017  0.1909
16156TIP3    H169959   4.985   3.840   5.650 -0.2862  0.1001  0.2368
16156TIP3    H269960   5.055   3.750   5.750  1.5400 -0.1225 -1.1950
16157TIP3   OH269961   3.677   2.157  10.604  0.1531 -0.0985  0.0951
16157TIP3    H169962   3.599   2.115  10.638  0.1308  0.2136  0.4333
16157TIP3    H269963   3.684   2.240  10.652  0.3521  0.1573 -0.3595
16158TIP3   OH269964   6.227   4.935   2.152  0.0779  0.4491 -0.9377
16158TIP3    H169965   6.305   4.978   2.187  0.2667 -0.9087  0.3973
16158TIP3    H269966   6.248   4.918   2.060  1.1626  0.5438 -0.7183
16159TIP3   OH269967   5.645   3.705   4.208  0.0060  0.4101 -0.1492
16159TIP3    H169968   5.572   3.758   4.177  0.8066  0.4183 -2.1707
16159TIP3    H269969   5.722   3.743   4.166  1.2232  0.4124  1.9352
16160TIP3   OH269970   5.011   6.440  11.009  0.0466  0.1768  0.2942
16160TIP3    H169971   5.007   6.344  11.013 -0.2638  0.2134  2.8854
16160TIP3    H269972   5.089   6.459  10.957  1.1600 -1.5377  1.2454
16161TIP3   OH269973   0.901   2.819  13.075 -0.4312 -0.3547 -0.5773
16161TIP3    H169974   0.900   2.771  13.157 -1.2156 -0.3004 -0.5499
16161TIP3    H269975   0.911   2.752  13.007  1.6528 -0.2934 -0.3827
16162TIP3   OH269976   6.710   2.293  12.167  0.1369 -0.1221  0.3832
16162TIP3    H169977   6.639   2.356  12.181  0.6540  0.9693 -1.5607
16162TIP3    H269978   6.710   2.277  12.072  2.5095 -0.0442  0.3131
16163TIP3   OH269979   1.597   5.370  12.041  0.1021 -0.2317 -0.0766
16163TIP3    H169980   1.686   5.344  12.018 -0.3615 -1.4622 -0.5940
16163TIP3    H269981   1.597   5.465  12.036  1.9436 -0.0250  2.0329
16164TIP3   OH269982   2.628   5.161  12.769 -0.6379 -0.2332 -0.9200
16164TIP3    H169983   2.577   5.105  12.711  1.0339 -0.9152 -1.7838
16164TIP3    H269984   2.649   5.238  12.717 -2.1034  0.8382 -0.0393
16165TIP3   OH269985   4.781   5.372   4.974  0.4194  0.3718  0.0596
16165TIP3    H169986   4.709   5.309   4.968  1.0269 -0.2846 -0.4412
16165TIP3    H269987   4.737   5.457   4.979 -0.4261 -0.1122  1.5033
16166TIP3   OH269988   2.428   4.948   2.113  0.0115  0.0859  0.4332
16166TIP3    H169989   2.370   4.900   2.054  1.4744 -0.4758 -0.6030
16166TIP3    H269990   2.478   5.005   2.055  0.7199  0.3321  1.2737
16167TIP3   OH269991   4.044   2.327   0.845 -0.3920 -0.3587  0.5931
16167TIP3    H169992   3.962   2.342   0.892 -0.2356  1.4573  0.3539
16167TIP3    H269993   4.095   2.406   0.859  1.2986 -1.4041  0.6217
16168TIP3   OH269994   5.707   5.174   1.120 -0.4071  0.0024 -0.1593
16168TIP3    H169995   5.703   5.225   1.039 -0.1226 -1.0917 -0.8931
16168TIP3    H269996   5.619   5.182   1.158 -0.4742  0.7106 -0.4589
16169TIP3   OH269997   3.912   4.374  14.434  0.8520 -0.1138  0.5043
16169TIP3    H169998   3.993   4.414  14.465  0.9720  0.8071 -0.9369
16169TIP3    H269999   3.939   4.317  14.363  0.4376 -1.2953  1.2633
16170TIP3   OH270000   0.266   4.932  13.713  0.5002 -0.2234  0.1682
16170TIP3    H170001   0.212   4.885  13.649  1.5373 -1.0937 -0.1068
16170TIP3    H270002   0.356   4.908  13.690  0.9252 -0.0221  1.5468
16171TIP3   OH270003   0.275   0.704   0.830 -0.6006 -0.3434 -0.6132
16171TIP3    H170004   0.349   0.698   0.771 -0.9375 -3.9325 -0.8987
16171TIP3    H270005   0.198   0.698   0.773 -0.9654 -1.5063 -0.0380
16172TIP3   OH270006   5.312   4.163  11.994  0.8654  0.3287  0.4795
16172TIP3    H170007   5.288   4.211  12.074 -1.3509  0.8908 -0.4739
16172TIP3    H270008   5.352   4.083  12.026  0.4891  0.7669  2.1603
16173TIP3   OH270009   3.912   4.903  11.574  0.0337  0.0211 -0.0974
16173TIP3    H170010   3.930   4.962  11.500 -0.5652 -1.0011 -1.1002
16173TIP3    H270011   3.998   4.881  11.609  0.2929  1.0178 -0.0879
16174TIP3   OH270012   6.659   2.896  14.563  0.0007 -0.0521 -0.3387
16174TIP3    H170013   6.671   2.817  14.512  0.1284 -0.4539  0.3066
16174TIP3    H270014   6.670   2.968  14.500  3.3960 -0.3910 -0.3201
16175TIP3   OH270015   1.995   5.046   5.027 -1.0681 -0.2889  0.0991
16175TIP3    H170016   2.061   4.978   5.040  0.0845  1.0351  1.4797
16175TIP3    H270017   2.044   5.125   5.006 -2.3590  0.2860 -0.9389
16176TIP3   OH270018   3.875   4.147   5.863  0.3968  0.2865  0.0641
16176TIP3    H170019   3.837   4.059   5.862  0.7470  0.1312  0.2548
16176TIP3    H270020   3.911   4.156   5.951 -0.7746  1.1129  0.4912
16177TIP3   OH270021   4.715   4.484  12.165 -0.1756  0.2599  0.0659
16177TIP3    H170022   4.679   4.433  12.091 -1.3533  2.4725 -0.9679
16177TIP3    H270023   4.808   4.460  12.167 -0.4891 -1.1825 -0.9870
16178TIP3   OH270024   3.622   1.120   2.251 -0.1542  0.2176  0.0653
16178TIP3    H170025   3.667   1.116   2.166  0.0304 -2.1789  0.2038
16178TIP3    H270026   3.635   1.033   2.289 -1.7469  0.6678  1.7807
16179TIP3   OH270027   1.765   4.414   4.676  0.2747 -0.0586 -0.2919
16179TIP3    H170028   1.809   4.330   4.661 -0.4846 -0.8107  1.3891
16179TIP3    H270029   1.835   4.479   4.670  1.3080 -1.0396  0.5514
16180TIP3   OH270030   6.224   1.683  15.765 -0.0643 -0.6675  0.5083
16180TIP3    H170031   6.246   1.772  15.792  1.0713 -0.4604 -0.9511
16180TIP3    H270032   6.128   1.681  15.762 -0.0993  0.5795  0.3751
16181TIP3   OH270033   1.831   5.084  11.971 -0.4183  0.6649 -0.2489
16181TIP3    H170034   1.789   5.065  11.887 -1.4301 -0.1155  0.4021
16181TIP3    H270035   1.853   5.177  11.967  1.1472  0.2630 -2.0415
16182TIP3   OH270036   3.077   4.371  15.573  0.1570  0.0932  0.2354
16182TIP3    H170037   3.149   4.309  15.563 -0.1655 -0.2525  0.0352
16182TIP3    H270038   3.030   4.367  15.490 -0.1192  0.2816  0.3798
16183TIP3   OH270039   2.448   6.616  10.465  0.6571  0.2513 -0.4479
16183TIP3    H170040   2.447   6.523  10.487  2.3721 -0.0048 -1.2584
16183TIP3    H270041   2.535   6.631  10.428 -0.0672  1.8745 -1.6418
16184TIP3   OH270042   3.681   5.025   5.434 -0.5096 -0.3578 -0.3932
16184TIP3    H170043   3.607   4.986   5.480  0.7124 -0.8459  1.2562
16184TIP3    H270044   3.718   5.087   5.497  0.6765 -0.3599 -1.0621
16185TIP3   OH270045   4.510   3.265   5.672  0.8881 -0.2606  0.3151
16185TIP3    H170046   4.471   3.194   5.622 -0.1756  0.3788  0.2093
16185TIP3    H270047   4.485   3.345   5.625 -0.2698  0.3743  1.9201
16186TIP3   OH270048   6.055   0.108  15.977 -0.2363 -0.1499 -0.0657
16186TIP3    H170049   5.980   0.070  15.931 -0.3102 -0.0725 -0.0091
16186TIP3    H270050   6.127   0.046  15.963 -0.4039 -0.3988  0.1787
16187TIP3   OH270051   4.863   1.660  11.389  0.0675  0.5891  0.0943
16187TIP3    H170052   4.925   1.714  11.438 -0.1178  0.0602  0.9247
16187TIP3    H270053   4.778   1.698  11.408 -0.3230 -1.2612  2.4877
16188TIP3   OH270054   4.913   1.713  15.614 -0.8087  0.1192  0.3397
16188TIP3    H170055   4.927   1.618  15.607 -1.4828 -0.0484  1.1649
16188TIP3    H270056   4.825   1.727  15.578 -1.3380  0.2161  1.6310
16189TIP3   OH270057   2.476   3.015   5.194  0.0618  0.2403 -0.5090
16189TIP3    H170058   2.472   3.070   5.116  0.2893 -0.3036 -0.9170
16189TIP3    H270059   2.551   2.957   5.178 -0.4627 -0.5011 -0.3122
16190TIP3   OH270060   0.801   3.787  16.456 -0.2585  0.1548  0.2034
16190TIP3    H170061   0.888   3.749  16.440  0.3837  1.4939  0.3524
16190TIP3    H270062   0.744   3.711  16.470  0.5496 -0.8209 -1.4710
16191TIP3   OH270063   4.170   1.283  13.739 -0.2888 -0.3854  0.0283
16191TIP3    H170064   4.089   1.265  13.692 -1.0915  0.2689  1.0968
16191TIP3    H270065   4.150   1.263  13.831  0.7948 -0.3357  0.2926
16192TIP3   OH270066   3.112   0.250  15.079  0.4148  0.6918  0.4756
16192TIP3    H170067   3.093   0.163  15.045 -0.6850  0.5520  1.3797
16192TIP3    H270068   3.031   0.277  15.123  1.1509  1.6420  1.3086
16193TIP3   OH270069   3.246   3.895  12.683  0.3973  0.1143  0.0615
16193TIP3    H170070   3.164   3.875  12.727  1.4202 -2.1175  1.1368
16193TIP3    H270071   3.233   3.863  12.593 -0.0476  0.1957  0.0947
16194TIP3   OH270072   5.669   3.371  11.928  0.0145  0.5545 -0.3977
16194TIP3    H170073   5.759   3.402  11.935  0.1725  0.7990 -2.6829
16194TIP3    H270074   5.617   3.451  11.914 -0.0176  0.1833 -2.8400
16195TIP3   OH270075   2.558   6.778  10.877 -0.1904 -0.5974 -0.2855
16195TIP3    H170076   2.467   6.752  10.860  0.7286 -3.7947 -0.9233
16195TIP3    H270077   2.594   6.793  10.789 -0.4132  2.3788  0.0092
16196TIP3   OH270078   0.941   0.065   0.407  0.3255  0.3836  0.4097
16196TIP3    H170079   0.869   0.031   0.460  1.6943 -0.7755  1.5948
16196TIP3    H270080   0.992  -0.012   0.382  0.2536  0.9839 -1.8871
16197TIP3   OH270081   3.763   3.285  13.995  0.4005 -0.3970 -0.1650
16197TIP3    H170082   3.828   3.348  13.965 -1.6161  1.1963 -1.5629
16197TIP3    H270083   3.749   3.306  14.087  0.8222  0.2175 -0.2364
16198TIP3   OH270084   0.239   5.351  11.950 -0.1233 -0.2371  0.6997
16198TIP3    H170085   0.259   5.368  11.858 -1.9717 -0.9583  0.1270
16198TIP3    H270086   0.155   5.306  11.949 -0.3587  0.0419  2.7728
16199TIP3   OH270087   2.145   0.706   0.881  0.0334  0.2016  0.2258
16199TIP3    H170088   2.237   0.681   0.872 -0.2531 -1.4292  1.3797
16199TIP3    H270089   2.145   0.774   0.948  0.3955  0.2082  0.2209
16200TIP3   OH270090   2.484   0.689  12.309 -0.0040 -0.0425 -0.3001
16200TIP3    H170091   2.480   0.597  12.282  0.5727  0.0149 -0.5973
16200TIP3    H270092   2.504   0.736  12.228 -1.2279  0.4474 -0.3355
16201TIP3   OH270093   2.167   3.011  14.291  0.7549 -0.2134 -0.2768
16201TIP3    H170094   2.263   3.011  14.295  0.7608 -1.7323  0.1254
16201TIP3    H270095   2.147   2.996  14.199  0.9609 -2.3202 -0.0286
16202TIP3   OH270096   4.554   0.294  13.121  0.0595  0.0791 -0.2464
16202TIP3    H170097   4.612   0.329  13.054  1.5314 -0.5524  0.6550
16202TIP3    H270098   4.471   0.339  13.106  1.1009  1.9464 -0.8048
16203TIP3   OH270099   4.639   6.289  17.010 -0.1292  0.0534 -0.1406
16203TIP3    H170100   4.603   6.210  16.970 -1.6986  1.0473 -0.8059
16203TIP3    H270101   4.730   6.292  16.981 -0.4256 -0.8009 -1.2011
16204TIP3   OH270102   5.533   2.946   0.337  0.2676  0.0543  0.4701
16204TIP3    H170103   5.534   3.032   0.296  2.7434 -0.1904 -0.1474
16204TIP3    H270104   5.605   2.899   0.295 -0.3271 -1.9503  1.5718
16205TIP3   OH270105   6.664   2.141  12.809  0.1480 -0.1584  0.5464
16205TIP3    H170106   6.757   2.163  12.806  0.4100 -1.2630 -0.2893
16205TIP3    H270107   6.622   2.211  12.759  0.5975  0.0231  0.4130
16206TIP3   OH270108   0.419   6.620  16.699 -0.6795  0.2670  0.3270
16206TIP3    H170109   0.469   6.597  16.778  0.5921 -2.2510 -1.0905
16206TIP3    H270110   0.468   6.693  16.660  0.0085 -0.0120  0.6587
16207TIP3   OH270111   3.430   4.097   3.123  0.5054  0.1692 -0.3881
16207TIP3    H170112   3.441   4.192   3.120 -0.5828  0.3134 -0.0620
16207TIP3    H270113   3.442   4.074   3.215  2.8369 -0.2982 -0.7511
16208TIP3   OH270114   5.920   1.622  15.437 -0.2876  0.1635 -0.1931
16208TIP3    H170115   5.847   1.684  15.438  0.0899  0.6128  0.9865
16208TIP3    H270116   5.906   1.566  15.513 -0.0035 -0.4614 -0.5950
16209TIP3   OH270117   6.266   5.474  13.580 -0.3139 -0.2546 -0.2551
16209TIP3    H170118   6.236   5.416  13.510 -0.5213 -0.2688 -0.1573
16209TIP3    H270119   6.271   5.561  13.540  2.6277 -0.7552 -1.1465
16210TIP3   OH270120   5.494   4.241   3.466 -0.4925  0.3987  0.4135
16210TIP3    H170121   5.430   4.312   3.464  0.0509  0.9756  2.0398
16210TIP3    H270122   5.515   4.230   3.559 -2.2988 -3.5040  0.5757
16211TIP3   OH270123   0.730   5.034   0.216 -0.3950  0.7012  0.2149
16211TIP3    H170124   0.808   5.038   0.159 -0.5457  0.5384 -0.0025
16211TIP3    H270125   0.684   5.116   0.198 -0.5657  0.5444 -0.0778
16212TIP3   OH270126   1.348   5.718   2.127  0.8762 -0.6981 -0.3959
16212TIP3    H170127   1.324   5.744   2.216 -0.5658 -0.3394 -0.8643
16212TIP3    H270128   1.371   5.801   2.083 -2.2269 -0.2702 -1.4442
16213TIP3   OH270129   5.137   4.630   2.054  0.1108  0.3683 -0.7754
16213TIP3    H170130   5.226   4.618   2.087  0.6359 -0.5812 -2.3765
16213TIP3    H270131   5.081   4.613   2.129  1.2449 -1.0941 -0.2056
16214TIP3   OH270132   2.727   5.530   0.762 -0.2236 -0.6927 -0.2927
16214TIP3    H170133   2.654   5.523   0.824 -0.2806  1.1957 -0.0682
16214TIP3    H270134   2.769   5.613   0.785 -1.1672  0.9067 -3.7283
16215TIP3   OH270135   2.197   4.682  13.240  0.0277 -0.1193 -0.2681
16215TIP3    H170136   2.149   4.748  13.289 -0.6397 -1.2206  0.6188
16215TIP3    H270137   2.149   4.671  13.159  0.5331  0.9604 -0.7238
16216TIP3   OH270138   6.237   4.069   3.909  0.0171 -0.1337 -0.3871
16216TIP3    H170139   6.144   4.045   3.912  0.0035 -0.1463 -0.7889
16216TIP3    H270140   6.269   4.054   3.998 -0.0013 -1.6657 -0.5953
16217TIP3   OH270141   2.628   1.998  17.117 -0.2672 -0.1173  0.0670
16217TIP3    H170142   2.541   1.970  17.144 -1.0025  0.7930 -1.2531
16217TIP3    H270143   2.651   2.069  17.177 -0.7007  0.0554  0.0262
16218TIP3   OH270144   4.649   5.104   0.330  0.0090 -0.5296  0.6999
16218TIP3    H170145   4.739   5.077   0.311 -0.2699 -0.4801 -0.7693
16218TIP3    H270146   4.651   5.128   0.423  1.5142 -0.5087  0.6931
16219TIP3   OH270147   1.113   0.189  16.609 -0.9828  0.0185 -0.5104
16219TIP3    H170148   1.027   0.187  16.650 -0.9395  0.6078 -0.3800
16219TIP3    H270149   1.129   0.282  16.591  1.2766  0.5333  3.0142
16220TIP3   OH270150   0.089   1.857  12.199  0.1366  0.0496 -0.1801
16220TIP3    H170151   0.098   1.935  12.253 -1.2312 -0.1873  0.4339
16220TIP3    H270152   0.053   1.889  12.116 -2.2152 -0.0669  0.7054
16221TIP3   OH270153   3.384   1.456   0.750  0.0407 -0.0728  0.6083
16221TIP3    H170154   3.369   1.543   0.786  0.3091 -0.1251  0.8587
16221TIP3    H270155   3.302   1.432   0.708  0.1859  0.5761 -0.0538
16222TIP3   OH270156   4.787   0.882   5.582 -0.1255 -0.1051 -0.3038
16222TIP3    H170157   4.781   0.787   5.597 -1.1790 -0.1313 -0.8056
16222TIP3    H270158   4.698   0.908   5.561 -0.2823  1.3715  1.8635
16223TIP3   OH270159   0.962   3.257   3.454  0.0245 -0.0595 -0.5563
16223TIP3    H170160   1.005   3.208   3.384  0.9904  0.1903 -0.1521
16223TIP3    H270161   0.920   3.331   3.409  1.4793  0.6586 -0.7879
16224TIP3   OH270162   5.549   5.283   5.492  0.1931 -0.9404  0.0333
16224TIP3    H170163   5.455   5.291   5.510  0.2233 -0.2451 -0.0586
16224TIP3    H270164   5.588   5.265   5.578  0.0983  0.0784  0.3137
16225TIP3   OH270165   3.391   5.733  13.051  0.2902 -0.0796  0.8872
16225TIP3    H170166   3.323   5.722  12.984  2.5730 -1.9417 -1.3189
16225TIP3    H270167   3.374   5.820  13.088 -0.6272  1.4753 -2.7457
16226TIP3   OH270168   1.054   3.948  14.294  0.6009  0.1320  0.6383
16226TIP3    H170169   1.030   3.904  14.376 -0.5146  1.2269  0.9380
16226TIP3    H270170   0.977   3.937  14.238  1.3025 -0.4845 -0.2278
16227TIP3   OH270171   2.568   0.704   1.077  0.6402  0.1535  0.1778
16227TIP3    H170172   2.604   0.626   1.119 -0.4651  0.3969  1.6635
16227TIP3    H270173   2.537   0.758   1.150  2.2950  2.5031 -0.7117
16228TIP3   OH270174   1.848   3.196   5.209 -0.3797 -0.0410  0.1565
16228TIP3    H170175   1.755   3.209   5.226 -0.5142 -0.1444 -0.4939
16228TIP3    H270176   1.859   3.102   5.202 -0.8378  0.0229 -2.9723
16229TIP3   OH270177   5.804   6.431   0.134  0.5500 -0.0622  0.0838
16229TIP3    H170178   5.750   6.508   0.154 -0.4948 -0.8808  0.4961
16229TIP3    H270179   5.841   6.405   0.218  1.8195  0.6296 -0.2315
16230TIP3   OH270180   0.861   5.211  16.358 -0.6144 -0.1439  0.6444
16230TIP3    H170181   0.808   5.281  16.320  0.9036 -0.1825 -1.8136
16230TIP3    H270182   0.949   5.249  16.366 -0.1813 -1.1958  1.0425
16231TIP3   OH270183   5.254   5.634  16.613  0.1470  0.0265 -0.2167
16231TIP3    H170184   5.281   5.709  16.667 -1.2801 -0.8949  1.9142
16231TIP3    H270185   5.320   5.629  16.545  2.7465  0.5996  2.0747
16232TIP3   OH270186   4.487   5.577   3.067 -0.8201 -0.2302  0.2308
16232TIP3    H170187   4.465   5.652   3.123  0.4649 -0.6936  1.4387
16232TIP3    H270188   4.561   5.607   3.015 -1.3038 -0.1654 -0.4294
16233TIP3   OH270189   1.072   1.887   6.132  0.3584 -0.0227 -0.0163
16233TIP3    H170190   1.164   1.861   6.128  0.4249  0.1080  0.5383
16233TIP3    H270191   1.024   1.811   6.099  0.6150 -0.4532  0.5820
16234TIP3   OH270192   5.644   6.735  11.938  0.4218 -0.1486 -0.2563
16234TIP3    H170193   5.560   6.693  11.953  0.3296  0.3047  0.5780
16234TIP3    H270194   5.690   6.677  11.877 -0.2633 -0.6968 -0.2596
16235TIP3   OH270195   1.918   1.138   2.786 -0.3626  0.8015  0.8500
16235TIP3    H170196   1.891   1.138   2.695  0.0864  0.0941  0.7148
16235TIP3    H270197   2.013   1.145   2.784 -0.3975  1.5622  1.2875
16236TIP3   OH270198   0.266   2.663  11.834 -0.6043  0.0661  0.4203
16236TIP3    H170199   0.212   2.711  11.897  0.9304  0.0818  1.7549
16236TIP3    H270200   0.254   2.571  11.857 -3.1168 -0.3235 -1.8040
16237TIP3   OH270201   5.875   1.250   0.694 -0.0569 -0.8030  0.3512
16237TIP3    H170202   5.859   1.343   0.682  0.7029 -0.6336  0.5376
16237TIP3    H270203   5.875   1.238   0.789  1.7398 -0.6025  0.4206
16238TIP3   OH270204   1.048   0.489   0.754 -0.6121  0.1353 -0.3061
16238TIP3    H170205   1.137   0.455   0.750  1.2280  4.4408 -2.2117
16238TIP3    H270206   1.022   0.502   0.663 -1.3214  2.9764  0.1816
16239TIP3   OH270207   3.013   3.486  11.212 -0.1262 -0.1792  0.1324
16239TIP3    H170208   3.032   3.483  11.118 -0.8879 -2.0387 -0.0040
16239TIP3    H270209   3.096   3.465  11.254 -0.1011 -0.7178 -0.1823
16240TIP3   OH270210   4.846   5.487   0.686 -0.6247 -0.6849  0.3851
16240TIP3    H170211   4.847   5.581   0.668 -1.1251 -0.7223  0.1442
16240TIP3    H270212   4.859   5.446   0.601  1.4059 -0.8295  0.7301
16241TIP3   OH270213   2.403   2.661   5.875  0.3168  0.2758  0.3282
16241TIP3    H170214   2.408   2.756   5.869  0.2458  0.5706  3.5444
16241TIP3    H270215   2.440   2.640   5.961  3.3580 -2.9258 -1.4934
16242TIP3   OH270216   4.806   4.540  10.606  0.4922 -0.4069 -0.0933
16242TIP3    H170217   4.806   4.636  10.613  0.7680 -0.3286 -0.9686
16242TIP3    H270218   4.861   4.522  10.529  0.8979 -1.2960  0.3841
16243TIP3   OH270219   1.843   5.895   0.521 -0.4323 -0.1821 -0.0350
16243TIP3    H170220   1.909   5.859   0.580 -1.1891 -1.2249  0.2012
16243TIP3    H270221   1.783   5.822   0.505 -1.2776  0.6231 -0.6060
16244TIP3   OH270222   4.422   0.527   0.556  0.0455 -0.4131  0.1654
16244TIP3    H170223   4.430   0.441   0.599 -0.1741 -1.2716 -1.4331
16244TIP3    H270224   4.480   0.521   0.480  0.5238  1.1182  0.3815
16245TIP3   OH270225   5.289   4.698   3.502  0.4652 -0.0262  0.0154
16245TIP3    H170226   5.211   4.745   3.531  0.9886  0.3299  0.8652
16245TIP3    H270227   5.322   4.750   3.428 -1.6671 -1.6960 -2.2907
16246TIP3   OH270228   5.701   2.088  16.006  0.3336 -0.2211 -0.3372
16246TIP3    H170229   5.689   2.179  16.033 -0.3112 -0.3922 -0.0400
16246TIP3    H270230   5.626   2.069  15.949  0.5069 -0.5479 -0.4625
16247TIP3   OH270231   1.722   4.301  15.409  0.4833  0.3757  0.1088
16247TIP3    H170232   1.638   4.285  15.453 -0.3395  2.4135 -0.6177
16247TIP3    H270233   1.738   4.220  15.360 -0.9012 -0.1715  0.4836
16248TIP3   OH270234   5.608   6.682  13.447 -0.7228 -0.1916 -0.2932
16248TIP3    H170235   5.569   6.770  13.439  0.4362  0.1652 -3.0658
16248TIP3    H270236   5.560   6.642  13.520 -1.9269  2.3907  0.4802
16249TIP3   OH270237   2.976   1.260  14.495  0.1575 -0.0966 -0.3948
16249TIP3    H170238   2.888   1.294  14.508  0.4270  0.1561  1.0314
16249TIP3    H270239   2.966   1.165  14.505 -0.3656 -0.3673 -2.9759
16250TIP3   OH270240   3.000   4.682  16.970  0.3999  0.2191  0.3791
16250TIP3    H170241   2.922   4.686  17.026  1.3548 -1.3456  1.9180
16250TIP3    H270242   3.005   4.591  16.941  1.2709  0.4618 -0.2817
16251TIP3   OH270243   6.149   6.470   1.512  0.2285 -0.1592  0.2627
16251TIP3    H170244   6.111   6.416   1.442 -1.4229 -0.1816  1.1092
16251TIP3    H270245   6.077   6.525   1.541  0.8172 -0.2600  2.0434
16252TIP3   OH270246   4.250   6.307  16.451  0.5569 -0.0036  0.0601
16252TIP3    H170247   4.312   6.234  16.460 -0.2185 -0.7571 -0.5465
16252TIP3    H270248   4.252   6.327  16.357  2.0861  1.9697  0.4384
16253TIP3   OH270249   0.171   6.393  15.452 -0.2957 -0.3472 -0.0698
16253TIP3    H170250   0.146   6.330  15.519  0.7728 -1.1017 -0.3521
16253TIP3    H270251   0.206   6.340  15.381  1.2162  0.5863 -0.0658
16254TIP3   OH270252   5.703   2.763  11.013 -0.2413  0.1399 -0.3004
16254TIP3    H170253   5.749   2.794  10.935  1.5992 -1.2757  0.1635
16254TIP3    H270254   5.666   2.679  10.988 -0.3261  0.0448  0.1289
16255TIP3   OH270255   0.729   1.793  15.154  0.1758  0.7000 -0.3629
16255TIP3    H170256   0.658   1.829  15.101 -0.0861  1.4331  0.4657
16255TIP3    H270257   0.703   1.811  15.244  1.6687  1.4682 -0.0597
16256TIP3   OH270258   3.441   1.632   1.116  0.3683 -0.2515  0.6995
16256TIP3    H170259   3.535   1.642   1.097  0.0399 -0.0020 -1.0122
16256TIP3    H270260   3.434   1.549   1.162  1.3374 -0.8289 -0.1494
16257TIP3   OH270261   6.717   4.590  16.629 -0.2521 -0.0564  0.7514
16257TIP3    H170262   6.801   4.545  16.618 -0.1883 -0.0591  1.2359
16257TIP3    H270263   6.659   4.549  16.565 -0.4561 -1.4651  1.8001
16258TIP3   OH270264   5.392   1.094   5.926  0.0774 -0.5584  0.0778
16258TIP3    H170265   5.347   1.047   5.855 -1.0105 -0.6872  0.8369
16258TIP3    H270266   5.431   1.025   5.979 -2.6780 -0.8037  1.9838
16259TIP3   OH270267   4.543   2.160   0.312  0.2443  0.5740 -0.3027
16259TIP3    H170268   4.565   2.068   0.325  0.6210  0.4848 -1.4314
16259TIP3    H270269   4.565   2.202   0.395  2.3096  0.0358 -0.4989
16260TIP3   OH270270   4.374   2.475   0.486  0.2911  0.4212  0.0300
16260TIP3    H170271   4.336   2.511   0.406  1.1608 -1.3398 -1.2429
16260TIP3    H270272   4.300   2.438   0.533 -0.3839  2.3978  0.6136
16261TIP3   OH270273   1.288   4.611   1.376 -0.3106  0.0780  0.0165
16261TIP3    H170274   1.212   4.565   1.413 -0.2793 -0.5812 -0.7235
16261TIP3    H270275   1.264   4.627   1.285 -0.9456  2.8573  0.5503
16262TIP3   OH270276   1.521   6.109   5.396  0.1315 -0.7544  0.4601
16262TIP3    H170277   1.598   6.097   5.452 -0.1761 -1.2225  0.7894
16262TIP3    H270278   1.553   6.161   5.322  1.1558 -2.2595 -0.2071
16263TIP3   OH270279   0.800   6.231   1.269 -0.3818  0.5834 -0.3812
16263TIP3    H170280   0.743   6.158   1.246  2.3940 -1.4219 -1.4120
16263TIP3    H270281   0.800   6.233   1.365 -1.5858  0.1759 -0.3618
16264TIP3   OH270282   2.319   3.258   5.944  0.1558  0.3357 -0.2174
16264TIP3    H170283   2.253   3.326   5.928 -0.6772 -0.6955 -1.3812
16264TIP3    H270284   2.274   3.194   5.999  0.7026  0.3520  0.2568
16265TIP3   OH270285   5.734   4.888   3.907 -0.0377  0.1440 -0.0838
16265TIP3    H170286   5.821   4.902   3.945  0.5070  1.9182 -1.7845
16265TIP3    H270287   5.746   4.814   3.847 -0.0012 -0.3256  0.4911
16266TIP3   OH270288   6.353   1.816  15.038 -0.0304 -0.0033  0.1191
16266TIP3    H170289   6.403   1.778  14.966 -0.3880  2.6214 -1.6310
16266TIP3    H270290   6.290   1.748  15.062 -0.7735 -0.5256 -2.9441
16267TIP3   OH270291   1.627   4.534  16.644 -0.0005 -0.0615 -0.4863
16267TIP3    H170292   1.600   4.567  16.729  0.0145  2.0546 -1.2413
16267TIP3    H270293   1.617   4.609  16.585  1.8974 -0.8553 -1.9367
16268TIP3   OH270294   5.986   1.994  16.818  0.7557 -0.4173 -0.1218
16268TIP3    H170295   5.984   1.958  16.907  1.0879  1.0669  0.5032
16268TIP3    H270296   5.894   2.015  16.799  0.5444 -1.6122 -0.5270
16269TIP3   OH270297   3.333   1.658   5.405 -0.6484  0.1244  1.1264
16269TIP3    H170298   3.395   1.730   5.396 -0.3968 -0.3412 -1.6362
16269TIP3    H270299   3.369   1.604   5.476  0.6736  1.2293  1.3379
16270TIP3   OH270300   1.751   4.780  15.418  0.2913 -0.0871 -0.7896
16270TIP3    H170301   1.799   4.778  15.501 -1.3476 -1.0824  0.1925
16270TIP3    H270302   1.772   4.696  15.376 -0.9487 -0.7747 -0.0985
16271TIP3   OH270303   0.636   1.970   5.142  0.9683 -0.4097 -0.3335
16271TIP3    H170304   0.701   1.984   5.073  2.1892 -0.0440  0.8566
16271TIP3    H270305   0.647   1.879   5.167  1.3369 -0.2318  0.1665
16272TIP3   OH270306   1.959   3.034  15.650  0.2768  0.1947 -0.3618
16272TIP3    H170307   1.947   3.018  15.744 -0.8506 -0.2941 -0.5674
16272TIP3    H270308   1.970   2.947  15.612  2.9659  0.5031 -0.4466
16273TIP3   OH270309   4.031   5.744  14.777  0.4367  0.3317 -0.3965
16273TIP3    H170310   3.967   5.736  14.707  0.2178  1.1423 -0.3012
16273TIP3    H270311   4.049   5.838  14.783 -1.2862  0.6044  2.1464
16274TIP3   OH270312   4.603   1.973  13.419 -0.5499 -0.0853 -0.1183
16274TIP3    H170313   4.641   1.904  13.366  1.3014 -0.1874  1.2554
16274TIP3    H270314   4.675   2.005  13.473 -2.0626  0.8259  1.4792
16275TIP3   OH270315   0.888   1.010  15.958 -0.1848  0.3927 -1.0413
16275TIP3    H170316   0.834   1.066  16.014  0.0921  1.9315 -2.2253
16275TIP3    H270317   0.826   0.955  15.911 -0.4049 -1.0875  0.8982
16276TIP3   OH270318   2.691   4.144  12.636 -0.4837  0.4245  0.6489
16276TIP3    H170319   2.643   4.107  12.710 -0.3633  1.4271  1.2454
16276TIP3    H270320   2.696   4.238  12.655  1.3325  0.4120  0.3982
16277TIP3   OH270321   5.857   6.675  13.554  0.4357  0.2001 -0.1194
16277TIP3    H170322   5.910   6.596  13.541 -0.3240 -0.6244  1.5335
16277TIP3    H270323   5.767   6.644  13.546  0.1342  0.9417  0.3173
16278TIP3   OH270324   0.458   0.621   5.680 -0.5192 -0.4564 -0.4873
16278TIP3    H170325   0.393   0.560   5.646  0.6495 -2.3915  0.6310
16278TIP3    H270326   0.449   0.617   5.775 -0.0307  0.6997 -0.3727
16279TIP3   OH270327   6.770   6.435  12.862  0.0622  0.5275 -0.3544
16279TIP3    H170328   6.710   6.383  12.808  0.8915  0.0733 -0.8526
16279TIP3    H270329   6.778   6.385  12.943  1.7376 -0.7878 -1.2435
16280TIP3   OH270330   1.657   1.932  15.313  0.0647  0.3034 -0.2431
16280TIP3    H170331   1.733   1.906  15.260  1.5206 -0.0123  1.8691
16280TIP3    H270332   1.607   1.990  15.256 -0.8494 -3.2848 -3.5630
16281TIP3   OH270333   2.109   1.995   6.460 -0.1043 -0.0356  0.3115
16281TIP3    H170334   2.098   1.900   6.457  0.1000 -0.0944  1.1081
16281TIP3    H270335   2.032   2.029   6.415  1.1737 -0.6020 -2.4958
16282TIP3   OH270336   0.092   1.043  13.836 -0.2806 -0.4518  0.2645
16282TIP3    H170337   0.140   0.974  13.789  0.2115 -0.3294  0.5845
16282TIP3    H270338   0.128   1.040  13.925  0.2677  0.6993  0.0955
16283TIP3   OH270339   3.128   5.647   6.136  0.2192  0.5290  0.2068
16283TIP3    H170340   3.119   5.562   6.180  0.9955  1.1694  1.6850
16283TIP3    H270341   3.039   5.682   6.133 -0.2430 -0.6631 -1.1671
16284TIP3   OH270342   2.960   5.187   5.264  0.3077  0.0875 -0.4938
16284TIP3    H170343   3.032   5.132   5.233 -0.3713 -0.9586 -0.2632
16284TIP3    H270344   2.953   5.256   5.198  1.0756 -0.1742 -0.8662
16285TIP3   OH270345   2.782   2.227   5.855 -0.1268  0.7016  0.5700
16285TIP3    H170346   2.871   2.193   5.866 -0.3215  0.4783  1.5249
16285TIP3    H270347   2.755   2.195   5.769  0.4505  0.1607  0.5801
16286TIP3   OH270348   2.262   3.672   5.239 -0.5333 -0.3333 -0.0242
16286TIP3    H170349   2.254   3.712   5.326 -1.3557 -0.2820 -0.1164
16286TIP3    H270350   2.172   3.650   5.214 -0.2610 -0.7294 -0.6862
16287TIP3   OH270351   2.156   1.814   4.606  0.1288  0.5889  0.4595
16287TIP3    H170352   2.119   1.794   4.692  0.2381 -1.7404  0.0342
16287TIP3    H270353   2.084   1.799   4.545  0.7812 -0.5873 -0.0647
16288TIP3   OH270354   1.046   2.309   0.259  0.0111  0.3813  0.2182
16288TIP3    H170355   1.127   2.258   0.252 -0.2416 -0.0665  0.5541
16288TIP3    H270356   0.985   2.266   0.201 -0.0538  0.5944  0.1284
16289TIP3   OH270357   6.791   1.809   5.853  0.3813 -0.4509 -0.0156
16289TIP3    H170358   6.853   1.881   5.867  1.3515 -1.5090  1.3483
16289TIP3    H270359   6.721   1.849   5.801  0.5040  1.7041  1.3038
16290TIP3   OH270360   5.772   0.071  15.670 -0.1155 -0.0464 -0.4106
16290TIP3    H170361   5.725  -0.004  15.633 -0.5076  0.3001 -0.6348
16290TIP3    H270362   5.764   0.060  15.765  2.5615 -1.9863 -0.3249
16291TIP3   OH270363   4.307   0.693   4.214 -0.1926 -0.4139 -0.3822
16291TIP3    H170364   4.403   0.692   4.217 -0.1813  0.0425 -0.4995
16291TIP3    H270365   4.284   0.786   4.220 -0.6804 -0.5977  1.2651
16292TIP3   OH270366   3.468   4.890  11.282 -0.1510  0.2433 -0.8578
16292TIP3    H170367   3.534   4.876  11.350  0.9740  1.9262 -1.5559
16292TIP3    H270368   3.413   4.811  11.287  1.1617 -0.6582  0.5515
16293TIP3   OH270369   3.612   1.786  11.114 -0.0955 -0.0882 -0.0103
16293TIP3    H170370   3.700   1.754  11.096 -0.6181 -1.8619  0.4016
16293TIP3    H270371   3.569   1.791  11.028  0.0008 -0.5140 -0.0854
16294TIP3   OH270372   3.086   1.842   3.498  0.0870  0.4219 -0.0019
16294TIP3    H170373   3.128   1.756   3.499  0.1040  0.4078 -0.7388
16294TIP3    H270374   3.159   1.904   3.488  0.0815  0.5302  0.6055
16295TIP3   OH270375   5.143   3.326   4.739  0.4775  0.6673  0.2972
16295TIP3    H170376   5.159   3.361   4.827  1.5637  0.0143  0.3754
16295TIP3    H270377   5.230   3.310   4.703  0.0525  1.1792 -1.0179
16296TIP3   OH270378   0.153   6.618   4.671  0.7752 -0.7249 -0.5416
16296TIP3    H170379   0.114   6.557   4.609 -0.8415 -2.4479  1.9461
16296TIP3    H270380   0.208   6.564   4.727  1.6688  0.6337 -0.0445
16297TIP3   OH270381   6.558   1.735   0.837  0.5897 -0.4063  0.1874
16297TIP3    H170382   6.526   1.786   0.911  0.9271 -0.5779  0.4538
16297TIP3    H270383   6.486   1.676   0.816 -1.4025  2.6207 -2.5348
16298TIP3   OH270384   0.189   1.059  16.028  0.3816  0.8798  0.1218
16298TIP3    H170385   0.243   0.995  15.983 -1.0394 -0.7405  0.6160
16298TIP3    H270386   0.099   1.039  16.001 -0.1358  2.4493  0.5612
16299TIP3   OH270387   3.152   5.614   2.078 -0.3500  0.2301  0.2719
16299TIP3    H170388   3.234   5.612   2.029 -0.0381  1.6585  0.6942
16299TIP3    H270389   3.119   5.524   2.074 -0.9145  0.4466 -3.5420
16300TIP3   OH270390   5.359   1.781   1.934 -0.7648  0.1780 -0.3537
16300TIP3    H170391   5.289   1.765   1.870 -2.6583  0.1701  1.6082
16300TIP3    H270392   5.382   1.694   1.967 -2.6046  0.4135  1.7359
16301TIP3   OH270393   0.248   2.976   3.997  0.1680 -0.0387 -0.4399
16301TIP3    H170394   0.210   2.931   4.072 -0.6162 -0.9410 -1.3609
16301TIP3    H270395   0.339   2.945   3.994  0.6041  0.9807  0.8634
16302TIP3   OH270396   5.644   4.694  13.880 -0.0969 -0.0209  0.5721
16302TIP3    H170397   5.639   4.704  13.784 -0.8455 -1.5206  0.4260
16302TIP3    H270398   5.729   4.731  13.903 -0.3210  1.2787 -0.5435
16303TIP3   OH270399   5.450   2.191   4.574  0.0109 -0.3343  0.0054
16303TIP3    H170400   5.360   2.207   4.548  0.3154  0.0925 -0.8217
16303TIP3    H270401   5.487   2.141   4.501  0.7161  0.3656 -0.1309
16304TIP3   OH270402   1.277   4.571  17.049 -0.2301 -0.2598 -0.6839
16304TIP3    H170403   1.211   4.602  16.987 -1.7272 -1.3544  0.3116
16304TIP3    H270404   1.276   4.636  17.120 -0.4558 -0.4308 -0.5292
16305TIP3   OH270405   6.767   1.572   5.712  0.6210  0.7727 -0.2593
16305TIP3    H170406   6.787   1.663   5.734 -1.4531  0.9534  1.1173
16305TIP3    H270407   6.847   1.524   5.736  1.6100  2.1506 -0.6568
16306TIP3   OH270408   2.331   4.510  13.018  0.0029  0.3486  0.6107
16306TIP3    H170409   2.370   4.540  13.100  1.0029  0.2291  0.1823
16306TIP3    H270410   2.386   4.547  12.949  1.5504 -2.6869  0.0438
16307TIP3   OH270411   0.177   5.024   1.033 -0.2753 -0.4014 -0.2301
16307TIP3    H170412   0.225   5.106   1.024 -0.4764 -0.0396  1.5917
16307TIP3    H270413   0.241   4.956   1.011  0.4010  0.1718 -0.0816
16308TIP3   OH270414   3.425   5.152  11.140  0.5352  0.0160  0.1816
16308TIP3    H170415   3.422   5.087  11.210 -1.9180  2.2087  2.3299
16308TIP3    H270416   3.395   5.105  11.062 -0.1446 -1.6669  1.4101
16309TIP3   OH270417   0.840   2.329   2.877  0.3487 -0.0879 -0.1760
16309TIP3    H170418   0.762   2.274   2.882 -0.2343  0.7126 -0.3121
16309TIP3    H270419   0.906   2.280   2.927 -0.4595 -0.4089  0.6120
16310TIP3   OH270420   6.398   1.645  11.353  0.4413 -0.8869  0.2338
16310TIP3    H170421   6.408   1.698  11.432  0.4665 -1.4846  0.6284
16310TIP3    H270422   6.448   1.693  11.286  0.8550 -0.6620  0.7021
16311TIP3   OH270423   2.568   4.479   2.368 -0.5546  0.4466  0.2731
16311TIP3    H170424   2.518   4.414   2.319 -0.0172 -0.5722  1.0386
16311TIP3    H270425   2.513   4.501   2.443  0.5696 -1.6059  1.8042
16312TIP3   OH270426   4.173   0.689  12.898 -0.0075 -0.3644 -0.4002
16312TIP3    H170427   4.235   0.761  12.910  0.3925 -0.2277 -2.8622
16312TIP3    H270428   4.116   0.717  12.827 -1.7974 -1.2622  0.6090
16313TIP3   OH270429   1.527   2.242  16.176 -0.1786  0.3247  0.4069
16313TIP3    H170430   1.614   2.251  16.136 -0.3658 -1.4952 -0.5490
16313TIP3    H270431   1.526   2.307  16.246  2.2211 -0.0856  0.9208
16314TIP3   OH270432   2.016   4.829  13.829  0.6081 -0.0728 -0.1803
16314TIP3    H170433   2.042   4.910  13.873  0.6245  0.3893 -0.9996
16314TIP3    H270434   1.927   4.846  13.798 -1.0858 -1.9020  3.2239
16315TIP3   OH270435   3.521   0.613   5.129  0.7481 -0.1402 -0.2033
16315TIP3    H170436   3.462   0.596   5.202  1.7305 -1.1828  0.3875
16315TIP3    H270437   3.593   0.664   5.167  1.5391 -1.1577 -0.2895
16316TIP3   OH270438   3.870   4.438  15.442 -0.0698  0.5816  0.5182
16316TIP3    H170439   3.960   4.446  15.474 -0.2872  2.2416  0.7771
16316TIP3    H270440   3.872   4.360  15.386  1.4949  0.5170  0.6121
16317TIP3   OH270441   3.911   5.507  16.296  0.2539 -0.3913  0.2810
16317TIP3    H170442   3.894   5.543  16.209  0.0550 -1.2991 -0.0661
16317TIP3    H270443   4.004   5.523  16.311 -0.0020  1.0290  0.5058
16318TIP3   OH270444   3.135   3.262   3.904 -0.4308 -0.2831 -0.2225
16318TIP3    H170445   3.124   3.214   3.987 -1.9963  0.0676 -0.1958
16318TIP3    H270446   3.210   3.319   3.920 -0.2011 -0.8034  0.6693
16319TIP3   OH270447   4.153   1.123   3.121 -0.0975  0.5945 -0.3147
16319TIP3    H170448   4.152   1.153   3.212  1.0276  0.7838 -0.3492
16319TIP3    H270449   4.144   1.202   3.069  2.6516  0.9617 -0.4009
16320TIP3   OH270450   0.732   3.421  12.847  0.5019  0.2946  0.3091
16320TIP3    H170451   0.676   3.348  12.871 -0.9964  1.0505 -0.7390
16320TIP3    H270452   0.721   3.484  12.919  2.1917 -0.6485  1.4722
16321TIP3   OH270453   1.725   5.760  16.713  0.3831  0.1097  0.3377
16321TIP3    H170454   1.739   5.801  16.627 -0.7045 -0.6655 -0.2433
16321TIP3    H270455   1.742   5.829  16.776  2.1358  0.4556 -0.4496
16322TIP3   OH270456   1.055   1.139   1.088  0.1384 -0.2010 -0.2420
16322TIP3    H170457   1.111   1.175   1.157 -0.4019 -0.6241  0.4313
16322TIP3    H270458   1.067   1.044   1.095 -2.4144 -0.4796  1.4785
16323TIP3   OH270459   5.670   6.066   2.363 -0.0108  0.0574 -0.6875
16323TIP3    H170460   5.577   6.091   2.365  0.0428  0.2353  0.7225
16323TIP3    H270461   5.716   6.148   2.342  0.0279  0.8465  2.0428
16324TIP3   OH270462   6.657   4.116   1.340  0.2407 -0.0999  0.1282
16324TIP3    H170463   6.690   4.154   1.259  0.7903  0.1940  0.4841
16324TIP3    H270464   6.638   4.191   1.396  0.0291 -0.3080  0.3388
16325TIP3   OH270465   4.620   5.171   2.835 -0.4359 -0.4708 -0.7221
16325TIP3    H170466   4.534   5.211   2.824  0.0455  0.4339 -1.2529
16325TIP3    H270467   4.679   5.223   2.781  0.5679 -0.6956  0.1095
16326TIP3   OH270468   0.242   3.754   2.329 -0.3250  0.0954 -0.3916
16326TIP3    H170469   0.213   3.739   2.419  1.6004 -0.8284  0.1110
16326TIP3    H270470   0.184   3.699   2.276  0.9371 -2.4191  0.6665
16327TIP3   OH270471   3.741   4.650   2.369  0.0728 -0.1205  0.5038
16327TIP3    H170472   3.814   4.595   2.342  0.1372  0.3481 -0.3169
16327TIP3    H270473   3.775   4.700   2.443  1.1147  1.1698 -0.7773
16328TIP3   OH270474   0.723   2.790   0.375  0.5209  0.3350 -0.1722
16328TIP3    H170475   0.755   2.715   0.323  0.2384 -0.5676  0.9176
16328TIP3    H270476   0.636   2.808   0.340 -0.7251 -1.8711  1.5137
16329TIP3   OH270477   6.535   1.414   0.503 -0.1398 -0.2834  0.1871
16329TIP3    H170478   6.581   1.495   0.482 -1.1944 -0.0373 -1.2974
16329TIP3    H270479   6.559   1.396   0.594  1.3896  0.8099  0.0331
16330TIP3   OH270480   4.520   5.469  14.929  0.1041  0.5143 -0.1250
16330TIP3    H170481   4.529   5.554  14.972  0.9072  0.5943 -0.4364
16330TIP3    H270482   4.427   5.447  14.939  0.3029  0.3778  1.9508
16331TIP3   OH270483   1.226   2.621   5.951 -0.3951  0.0418  0.4126
16331TIP3    H170484   1.288   2.591   6.017  1.0472 -2.0832 -1.7453
16331TIP3    H270485   1.163   2.549   5.943 -2.2696  1.4934  1.4269
16332TIP3   OH270486   5.793   6.067   4.272  0.0085  0.6785 -0.1289
16332TIP3    H170487   5.726   6.049   4.338  1.4472  0.0690  1.2549
16332TIP3    H270488   5.856   6.124   4.317  0.8339  0.5439 -1.0841
16333TIP3   OH270489   3.967   5.324   4.976 -0.1263  0.0342 -0.6422
16333TIP3    H170490   4.046   5.273   4.994 -1.8007 -2.5201 -0.0032
16333TIP3    H270491   3.966   5.391   5.044  0.6864 -0.9410  0.3861
16334TIP3   OH270492   2.521   3.033   4.866 -0.1454  0.2536  0.0061
16334TIP3    H170493   2.591   3.000   4.922  1.2402  1.8823 -0.6718
16334TIP3    H270494   2.446   2.976   4.885  0.3420  0.4450  3.1968
16335TIP3   OH270495   1.756   0.289  11.567  0.4917 -0.5826 -0.1115
16335TIP3    H170496   1.690   0.282  11.499  0.5828 -1.0570 -0.1580
16335TIP3    H270497   1.811   0.211  11.556  1.6611  0.2912 -0.7020
16336TIP3   OH270498   4.141   1.454   0.375 -0.0441 -0.8755 -0.5622
16336TIP3    H170499   4.050   1.431   0.395 -0.5027  0.6104 -0.8762
16336TIP3    H270500   4.178   1.479   0.459 -1.0093  2.0665 -0.9045
16337TIP3   OH270501   1.575   5.358   6.163  0.1107 -0.0564 -0.0173
16337TIP3    H170502   1.593   5.273   6.123  0.5594 -0.5450  1.1590
16337TIP3    H270503   1.518   5.403   6.101  0.4517 -0.9358 -0.9848
16338TIP3   OH270504   0.420   2.183  16.817  0.1387  0.1746 -0.1564
16338TIP3    H170505   0.342   2.154  16.769 -2.3474  3.4395  1.4867
16338TIP3    H270506   0.405   2.154  16.907  0.7832  0.8939  0.1935
16339TIP3   OH270507   2.289   1.418  11.760 -0.1945 -0.2682 -0.1530
16339TIP3    H170508   2.323   1.407  11.849 -1.5052 -1.3395  0.2471
16339TIP3    H270509   2.199   1.447  11.771 -0.1122  0.4439 -1.1638
16340TIP3   OH270510   6.009   0.413   4.460  0.0986 -0.0558  0.2143
16340TIP3    H170511   5.993   0.504   4.438  0.3014  0.2079  1.1335
16340TIP3    H270512   5.953   0.363   4.400 -1.0585  0.7123  0.6375
16341TIP3   OH270513   3.998   2.427  11.455  0.6129 -0.0932  0.1138
16341TIP3    H170514   3.909   2.460  11.445  0.6245  0.1356  0.7346
16341TIP3    H270515   3.987   2.342  11.498  0.7259  0.1837  0.6922
16342TIP3   OH270516   0.518   1.966  13.760 -0.4724  0.1921 -0.0849
16342TIP3    H170517   0.473   1.978  13.677 -1.2174  0.7472  0.3872
16342TIP3    H270518   0.454   1.991  13.826 -0.4912 -1.9083  0.7626
16343TIP3   OH270519   5.561   2.644   2.851  0.2632 -0.1769  0.7090
16343TIP3    H170520   5.540   2.737   2.867  0.7974 -0.2339  1.8476
16343TIP3    H270521   5.480   2.608   2.815 -0.1299  0.6067  0.7680
16344TIP3   OH270522   1.295   6.676  14.735  0.1400  0.1839 -0.2740
16344TIP3    H170523   1.212   6.716  14.761  2.2878  3.7802  1.9265
16344TIP3    H270524   1.317   6.617  14.808  0.0456  0.1198 -0.2978
16345TIP3   OH270525   1.428   0.888  11.004  0.3052 -0.9905  0.0666
16345TIP3    H170526   1.445   0.824  10.935  0.6344 -0.4490 -0.3573
16345TIP3    H270527   1.511   0.894  11.051  0.8715  0.5050 -1.0511
16346TIP3   OH270528   3.626   1.019   3.713 -0.9722  0.1004  0.8577
16346TIP3    H170529   3.558   1.063   3.663 -0.7018 -0.7057 -0.2499
16346TIP3    H270530   3.637   0.934   3.671  0.4177  0.0358  1.2755
16347TIP3   OH270531   1.847   0.774   3.510 -0.7113 -0.1000  0.2590
16347TIP3    H170532   1.902   0.731   3.444 -0.7837  0.7851 -0.3834
16347TIP3    H270533   1.771   0.716   3.518 -0.7340 -0.1782 -0.4783
16348TIP3   OH270534   4.630   2.913   4.868  0.5516 -0.0516  0.3884
16348TIP3    H170535   4.723   2.913   4.849  0.3157 -0.4840 -0.8398
16348TIP3    H270536   4.607   3.006   4.877  1.0237  0.0701  0.3270
16349TIP3   OH270537   6.358   3.221   1.823 -1.0766  0.2935 -0.1072
16349TIP3    H170538   6.306   3.241   1.901 -1.3359  1.3766 -0.5497
16349TIP3    H270539   6.431   3.284   1.825 -0.9196  0.1340 -0.5783
16350TIP3   OH270540   1.484   3.249  16.725 -0.1931  0.8866  0.0964
16350TIP3    H170541   1.571   3.258  16.686 -0.1226  0.9646  0.2725
16350TIP3    H270542   1.500   3.245  16.819 -0.4807  2.1719  0.2092
16351TIP3   OH270543   3.057   0.568   0.184  0.6749  0.2390 -0.5053
16351TIP3    H170544   3.065   0.661   0.202  0.1891  0.1667  0.0995
16351TIP3    H270545   3.063   0.561   0.089 -0.4778  1.0135 -0.6475
16352TIP3   OH270546   0.520   6.127   6.488  0.2990 -0.3070  0.6989
16352TIP3    H170547   0.562   6.053   6.532  0.4449 -0.8600 -0.3456
16352TIP3    H270548   0.429   6.099   6.477 -0.2174  0.6040  2.3267
16353TIP3   OH270549   3.528   0.779   1.820  0.3534  0.3667  0.0372
16353TIP3    H170550   3.478   0.805   1.897  0.8796 -1.5364  1.0969
16353TIP3    H270551   3.477   0.708   1.781 -0.5825  2.1693 -2.1983
16354TIP3   OH270552   3.809   0.580  12.872 -0.8380  0.6923  0.1264
16354TIP3    H170553   3.839   0.610  12.957  2.6207  0.6439 -0.9149
16354TIP3    H270554   3.785   0.488  12.886 -0.3092  0.6840  1.0617
16355TIP3   OH270555   3.542   6.043   1.663  0.5997 -0.1884  0.1318
16355TIP3    H170556   3.466   6.101   1.670  0.4295 -0.5597  1.7140
16355TIP3    H270557   3.618   6.101   1.669  0.5280  0.3777 -3.0561
16356TIP3   OH270558   1.835   2.598  14.978  0.7540 -0.3951  0.2008
16356TIP3    H170559   1.925   2.570  14.993  1.1358 -0.4733 -1.9205
16356TIP3    H270560   1.841   2.693  14.971  0.6526 -0.3944  0.1300
16357TIP3   OH270561   3.798   5.800   3.732 -0.3553 -0.4770 -0.6484
16357TIP3    H170562   3.804   5.812   3.637  0.3309 -0.5587 -0.6221
16357TIP3    H270563   3.796   5.890   3.767 -0.3384 -0.4462 -0.7258
16358TIP3   OH270564   1.517   2.626   0.782 -0.2762 -0.7561  0.4628
16358TIP3    H170565   1.440   2.682   0.784 -1.3917 -2.1039 -1.5626
16358TIP3    H270566   1.555   2.634   0.870  0.1389  3.7341  0.1249
16359TIP3   OH270567   6.561   3.734  13.028 -0.1904 -0.7445  0.0065
16359TIP3    H170568   6.491   3.669  13.022  0.5670 -1.5221 -0.6891
16359TIP3    H270569   6.547   3.790  12.951 -0.3840 -0.5527  0.1813
16360TIP3   OH270570   3.125   0.640   4.546 -0.0889 -0.0677  0.3270
16360TIP3    H170571   3.208   0.622   4.501 -0.3245 -2.4104  0.6998
16360TIP3    H270572   3.067   0.671   4.477  0.3743 -0.9059 -0.4677
16361TIP3   OH270573   0.882   2.191   1.493 -0.2589 -0.0241 -0.3948
16361TIP3    H170574   0.904   2.218   1.582  1.8936  0.9489 -1.1567
16361TIP3    H270575   0.839   2.268   1.455  2.0016  0.9238 -1.2222
16362TIP3   OH270576   3.592   6.527  17.044 -0.3390  0.1431 -0.2003
16362TIP3    H170577   3.632   6.466  16.982 -1.1969  0.4131 -1.0258
16362TIP3    H270578   3.531   6.473  17.094 -0.1976  0.0829 -0.0903
16363TIP3   OH270579   4.156   4.721   2.151  0.1563 -0.5427 -0.5215
16363TIP3    H170580   4.160   4.787   2.081  0.2488 -1.3090 -1.2437
16363TIP3    H270581   4.192   4.766   2.228 -1.4367  0.8507 -0.5271
16364TIP3   OH270582   2.433   1.565  15.819  0.4785  0.4461  0.6002
16364TIP3    H170583   2.371   1.519  15.761  0.7898 -0.6322  1.0988
16364TIP3    H270584   2.441   1.652  15.780  0.6580 -0.2323 -0.9736
16365TIP3   OH270585   5.937   0.239  14.908  0.4161 -1.0614 -0.4582
16365TIP3    H170586   5.902   0.262  14.994 -1.2544 -0.2877 -1.3044
16365TIP3    H270587   5.966   0.148  14.917  0.0677 -1.0576  0.8587
16366TIP3   OH270588   5.860   2.513   3.587  0.3475  0.2296 -0.5158
16366TIP3    H170589   5.888   2.466   3.665  0.0024 -0.3394 -0.7264
16366TIP3    H270590   5.804   2.451   3.541  2.2249 -0.2368 -2.3035
16367TIP3   OH270591   4.633   4.841   4.466 -0.0298  0.5671  0.2924
16367TIP3    H170592   4.590   4.906   4.411  2.2921  3.8750  2.0582
16367TIP3    H270593   4.562   4.798   4.513 -1.7892  0.2833 -2.3971
16368TIP3   OH270594   0.178   5.170  16.276  0.3219 -0.5445  1.0651
16368TIP3    H170595   0.212   5.255  16.251 -2.3063 -0.1752 -1.9066
16368TIP3    H270596   0.211   5.109  16.210 -1.5978 -0.8468  0.3110
16369TIP3   OH270597   6.161   2.804  11.458 -0.6903  0.4125  0.6148
16369TIP3    H170598   6.200   2.891  11.456 -1.5845  0.8221  0.3999
16369TIP3    H270599   6.236   2.744  11.455  0.0093  1.1523  2.1169
16370TIP3   OH270600   3.900   1.326  17.125  0.4666  0.1545 -0.1589
16370TIP3    H170601   3.931   1.254  17.070  1.6957 -0.5148  1.3563
16370TIP3    H270602   3.863   1.389  17.062  1.7211 -0.6112 -1.7531
16371TIP3   OH270603   2.508   3.253  12.218 -0.0403 -0.0947  0.3917
16371TIP3    H170604   2.563   3.330  12.207 -0.9997  0.7980  1.6233
16371TIP3    H270605   2.566   3.186  12.254  1.6049 -1.0662 -3.4887
16372TIP3   OH270606   1.012   4.992  17.054 -0.0547 -0.0151  0.2795
16372TIP3    H170607   1.082   4.927  17.053  1.1034  1.1792 -0.1357
16372TIP3    H270608   0.935   4.945  17.022  0.6551 -1.2518  0.3141
16373TIP3   OH270609   2.215   2.216  13.090  0.2814  0.4955  0.2272
16373TIP3    H170610   2.227   2.121  13.098  0.2950  0.4884  0.1228
16373TIP3    H270611   2.132   2.234  13.135  0.0987  0.3865 -0.0646
16374TIP3   OH270612   4.049   4.193  12.131 -0.7178  0.1434 -0.7037
16374TIP3    H170613   4.005   4.270  12.167 -0.1086  0.5115 -0.7443
16374TIP3    H270614   4.116   4.170  12.195 -0.0607  0.4148 -1.2769
16375TIP3   OH270615   2.389   6.753   5.480  0.0085 -0.2610  0.0145
16375TIP3    H170616   2.372   6.766   5.387 -0.2840  0.9477  0.2187
16375TIP3    H270617   2.302   6.753   5.520 -0.1951 -4.0996 -0.0215
16376TIP3   OH270618   3.738   4.282  14.645  0.1310  0.0080 -0.1353
16376TIP3    H170619   3.794   4.340  14.593  0.2645  0.3155  0.3388
16376TIP3    H270620   3.747   4.196  14.604 -1.4886  0.6409 -1.9911
16377TIP3   OH270621   2.180   5.893   4.547  0.7294  0.2218 -0.6002
16377TIP3    H170622   2.187   5.895   4.451 -0.4615  2.0968 -0.7030
16377TIP3    H270623   2.227   5.972   4.576  1.1171 -0.3517  0.3828
16378TIP3   OH270624   2.986   1.471   1.588 -0.1661  0.2052  0.2384
16378TIP3    H170625   3.002   1.377   1.578 -2.2303 -0.2030  0.4663
16378TIP3    H270626   3.038   1.495   1.666  0.6492 -0.6443 -0.0172
16379TIP3   OH270627   1.438   3.770   5.340  0.3061  0.3222  0.5902
16379TIP3    H170628   1.470   3.750   5.252 -0.6058 -1.4529  0.6314
16379TIP3    H270629   1.470   3.698   5.394 -0.6061  0.4912  1.3714
16380TIP3   OH270630   2.281   3.885   0.787  0.4668  0.8127  0.0209
16380TIP3    H170631   2.257   3.890   0.879  0.9555 -0.4979  0.2370
16380TIP3    H270632   2.285   3.977   0.759 -1.1692  1.2042  0.8860
16381TIP3   OH270633   3.835   1.931   3.959 -0.3172  0.0689 -0.4321
16381TIP3    H170634   3.929   1.930   3.941 -0.5757 -1.1231 -1.8796
16381TIP3    H270635   3.813   2.024   3.964  0.9971  0.3672  0.3823
16382TIP3   OH270636   2.900   4.284   1.114 -0.4914  0.0081  0.0931
16382TIP3    H170637   2.867   4.372   1.129 -1.0677 -0.2375  0.3018
16382TIP3    H270638   2.990   4.285   1.148  0.0371  0.9225 -1.2393
16383TIP3   OH270639   6.632   3.471   1.559 -0.5383  0.4228 -0.5394
16383TIP3    H170640   6.586   3.389   1.540 -0.1288 -0.0418  0.3617
16383TIP3    H270641   6.566   3.539   1.550 -0.9736 -0.0500 -0.9430
16384TIP3   OH270642   3.925   4.442  12.194 -0.1320  0.3583 -0.3643
16384TIP3    H170643   3.970   4.526  12.185 -0.5739  0.7566  0.9662
16384TIP3    H270644   3.835   4.459  12.168 -0.1263  0.1848 -0.5046
16385TIP3   OH270645   1.536   1.628  15.891  0.1392  0.5918  0.2786
16385TIP3    H170646   1.558   1.544  15.931 -4.1815 -1.4075 -0.9539
16385TIP3    H270647   1.470   1.607  15.825  0.4081  4.7565 -1.6444
16386TIP3   OH270648   4.283   2.624  16.824 -0.2891  0.4077  0.2050
16386TIP3    H170649   4.247   2.584  16.745 -1.9449  1.0318  0.5993
16386TIP3    H270650   4.232   2.704  16.836  0.2465  0.5627  1.6473
16387TIP3   OH270651   3.590   1.326   3.372 -0.5687 -0.6160  0.2003
16387TIP3    H170652   3.538   1.320   3.292 -1.6135  0.6389  0.7593
16387TIP3    H270653   3.552   1.261   3.431 -1.8675  0.6140  0.7749
16388TIP3   OH270654   4.992   4.464   0.047 -0.3614  0.4168  0.2634
16388TIP3    H170655   5.061   4.424   0.099  0.1054  0.8488 -0.0102
16388TIP3    H270656   4.961   4.394  -0.010  0.8737  0.5702 -0.6496
16389TIP3   OH270657   3.770   2.021   0.895  0.4808  0.3003 -0.6030
16389TIP3    H170658   3.680   2.009   0.926  0.7785  2.0974  1.1939
16389TIP3    H270659   3.813   1.937   0.914 -0.5817 -0.2693 -0.6284
16390TIP3   OH270660   6.051   1.991  15.026 -0.2579  0.0022 -0.1919
16390TIP3    H170661   6.069   1.901  15.050  0.7925  0.6041  1.3728
16390TIP3    H270662   5.956   1.999  15.032 -0.3796 -1.0563 -0.6057
16391TIP3   OH270663   6.517   3.153  16.876  0.1522  0.2316  0.0077
16391TIP3    H170664   6.589   3.127  16.819 -0.0066 -0.9784  0.3240
16391TIP3    H270665   6.557   3.166  16.961  0.0734  0.0206  0.0776
16392TIP3   OH270666   3.573   4.648  16.210 -0.4762 -0.2401 -0.3899
16392TIP3    H170667   3.593   4.646  16.116 -0.7646  0.0900 -0.4585
16392TIP3    H270668   3.625   4.576  16.246 -0.0484 -0.1166 -0.7395
16393TIP3   OH270669   5.362   3.257   1.018 -0.2409  0.1203  0.1599
16393TIP3    H170670   5.435   3.221   0.967 -1.7211 -0.4120 -1.7029
16393TIP3    H270671   5.287   3.205   0.991 -1.6328  1.7681  0.7125
16394TIP3   OH270672   1.595   1.914  11.768 -0.2122  0.0094  0.0216
16394TIP3    H170673   1.567   1.910  11.676 -1.1292  0.0176  0.2853
16394TIP3    H270674   1.642   1.832  11.782 -1.8512 -0.9864  0.0737
16395TIP3   OH270675   5.347   6.482  11.828 -0.8048 -0.6665 -0.1189
16395TIP3    H170676   5.309   6.416  11.771 -2.3128 -0.0185  0.0724
16395TIP3    H270677   5.400   6.433  11.891  1.4681 -1.3517 -2.4214
16396TIP3   OH270678   4.945   6.466   1.034 -0.4856  0.4675  0.2158
16396TIP3    H170679   4.873   6.405   1.048  0.2918 -0.4589  0.2889
16396TIP3    H270680   5.002   6.422   0.971 -0.1594  1.3322 -0.1059
16397TIP3   OH270681   6.208   3.169   0.092 -0.0940 -0.2083 -0.3143
16397TIP3    H170682   6.233   3.259   0.073  1.0976 -0.4955 -0.2183
16397TIP3    H270683   6.268   3.116   0.038 -1.2046 -0.9348 -0.8652
16398TIP3   OH270684   5.216   5.003  13.890 -0.1098 -0.1790 -0.4064
16398TIP3    H170685   5.130   4.961  13.879 -1.0598  1.3446  0.7309
16398TIP3    H270686   5.211   5.043  13.977  2.0837 -0.7352  0.0131
16399TIP3   OH270687   3.861   5.162   5.202 -0.2000  0.3490  0.3094
16399TIP3    H170688   3.771   5.132   5.213 -0.7711  1.0764 -1.8837
16399TIP3    H270689   3.870   5.176   5.108  1.6654  1.9662  0.6687
16400TIP3   OH270690   3.465   2.034   3.988  0.0770  0.2054  0.7279
16400TIP3    H170691   3.398   2.075   4.042 -1.7002 -1.6584  0.0513
16400TIP3    H270692   3.485   2.100   3.921  1.1250  1.9004  2.6209
16401TIP3   OH270693   6.438   6.058   3.898 -0.0820 -0.2230 -0.0790
16401TIP3    H170694   6.380   6.062   3.974 -1.1019  0.8427 -0.8576
16401TIP3    H270695   6.506   5.995   3.921 -1.6709 -1.6936  0.8021
16402TIP3   OH270696   3.183   4.568  12.423  0.1044 -0.1365 -0.3474
16402TIP3    H170697   3.233   4.488  12.440  1.4001  0.6985 -0.1004
16402TIP3    H270698   3.151   4.595  12.510  1.5573  0.8054 -0.0801
16403TIP3   OH270699   3.077   4.259  13.041 -0.2495  0.5077 -0.1245
16403TIP3    H170700   3.019   4.308  13.100 -1.5022 -1.7231  0.6010
16403TIP3    H270701   3.162   4.259  13.085  0.0077  2.6260 -0.5244
16404TIP3   OH270702   3.917   4.385   6.309  0.2500 -0.2395  0.3850
16404TIP3    H170703   4.006   4.400   6.275  0.3455  1.0099  1.1169
16404TIP3    H270704   3.863   4.451   6.266  0.0204  0.1462  1.2409
16405TIP3   OH270705   5.004   2.626  11.536  0.0156 -0.0726 -0.3264
16405TIP3    H170706   4.938   2.569  11.577 -0.5249 -1.3680 -2.8002
16405TIP3    H270707   4.957   2.670  11.466  1.2420  0.9317 -0.5570
16406TIP3   OH270708   5.925   4.209   3.698  0.4215  0.0440 -0.0897
16406TIP3    H170709   5.939   4.143   3.765 -3.1503 -1.4039 -0.5367
16406TIP3    H270710   6.005   4.207   3.645  1.7352 -1.5212  1.8057
16407TIP3   OH270711   1.462   3.785  13.441  0.1975 -0.2587  0.2878
16407TIP3    H170712   1.387   3.840  13.463  0.5672 -0.6773  3.0227
16407TIP3    H270713   1.497   3.822  13.360 -1.7062  1.2322  0.0899
16408TIP3   OH270714   4.559   3.859   1.052  0.0346  0.0253 -0.1939
16408TIP3    H170715   4.640   3.813   1.071 -0.9039 -0.9052  1.8743
16408TIP3    H270716   4.491   3.807   1.095 -1.7446  0.4847 -2.2861
16409TIP3   OH270717   1.641   6.644  17.117  0.5493  0.0880  0.1544
16409TIP3    H170718   1.557   6.608  17.143  1.5757 -3.8709 -1.2775
16409TIP3    H270719   1.629   6.667  17.025  0.5183  1.5380  0.4974
16410TIP3   OH270720   0.357   3.788   5.313  0.2181 -0.3428  0.0355
16410TIP3    H170721   0.317   3.738   5.385  1.1278 -1.5309 -0.2563
16410TIP3    H270722   0.288   3.792   5.246 -0.1790 -0.4013  0.4363
16411TIP3   OH270723   3.225   5.316  15.211  0.1911 -0.4457  0.1206
16411TIP3    H170724   3.263   5.230  15.196  0.7084 -0.7245  2.6252
16411TIP3    H270725   3.301   5.374  15.221 -0.1377  0.0521 -0.2078
16412TIP3   OH270726   1.070   4.692  13.725  0.4157  0.2953  0.0861
16412TIP3    H170727   1.104   4.753  13.790  0.3919  0.4301 -0.0265
16412TIP3    H270728   1.046   4.614  13.775  0.2647  0.4500  0.2576
16413TIP3   OH270729   5.105   3.195  11.994  0.2547 -0.0880  0.5784
16413TIP3    H170730   5.046   3.240  11.933  1.6366  1.4343  0.3044
16413TIP3    H270731   5.047   3.166  12.065 -0.8565  1.3899  0.3466
16414TIP3   OH270732   1.404   5.421   2.374 -0.1003 -0.0660  0.2180
16414TIP3    H170733   1.497   5.417   2.350  0.2643 -0.0285  1.5396
16414TIP3    H270734   1.394   5.353   2.441 -0.8805  0.3618  0.5502
16415TIP3   OH270735   6.513   1.870   2.104  0.5349  0.2770 -0.1276
16415TIP3    H170736   6.556   1.910   2.179  0.6569  1.1467 -0.6527
16415TIP3    H270737   6.454   1.937   2.071  1.7262  0.5324 -1.8359
16416TIP3   OH270738   3.368   1.226  16.730  0.2587 -0.7147 -0.2243
16416TIP3    H170739   3.274   1.246  16.741  0.5047 -0.2657  1.3222
16416TIP3    H270740   3.412   1.309  16.751  1.0314 -1.1610 -0.0664
16417TIP3   OH270741   3.075   1.108   3.498  0.3977  0.4322 -0.2595
16417TIP3    H170742   3.002   1.160   3.530  0.6839  0.8638 -0.2927
16417TIP3    H270743   3.045   1.017   3.503 -0.1225  0.6047 -0.2413
16418TIP3   OH270744   3.742   6.294  11.377 -0.2959  0.2295  0.0944
16418TIP3    H170745   3.689   6.335  11.309  0.1407 -1.9367 -1.6702
16418TIP3    H270746   3.801   6.235  11.330  1.2296 -0.1200  2.2478
16419TIP3   OH270747   4.578   5.647  15.619 -0.4345 -0.5163 -0.2608
16419TIP3    H170748   4.556   5.609  15.534  2.4541  0.1750 -1.4340
16419TIP3    H270749   4.572   5.742  15.604  0.8356 -0.3757  0.0518
16420TIP3   OH270750   1.053   0.680  13.133  0.0332  0.2236 -0.3709
16420TIP3    H170751   1.099   0.649  13.055 -0.3468 -0.0928 -0.4785
16420TIP3    H270752   1.049   0.775  13.123  1.2971  0.3344  0.0071
16421TIP3   OH270753   6.762   3.055   0.527 -0.5497  0.4271  0.3178
16421TIP3    H170754   6.672   3.030   0.546 -1.0179  0.6645 -1.3948
16421TIP3    H270755   6.812   2.974   0.534 -0.9728  0.2020  0.7891
16422TIP3   OH270756   2.891   1.821   4.682 -0.0295 -0.1573 -0.6085
16422TIP3    H170757   2.839   1.754   4.726 -2.3344  0.5389 -2.0904
16422TIP3    H270758   2.979   1.811   4.719 -1.3212 -0.8675  2.6503
16423TIP3   OH270759   5.982   1.076   5.147 -0.4023  0.0519 -0.6232
16423TIP3    H170760   5.945   1.105   5.064 -0.2440 -0.0977 -0.7470
16423TIP3    H270761   6.065   1.123   5.154 -0.7064  0.5365 -0.2510
16424TIP3   OH270762   2.356   6.524  16.692  0.0325 -0.4587  0.6236
16424TIP3    H170763   2.334   6.536  16.785  0.4704  1.1014  0.5516
16424TIP3    H270764   2.271   6.519  16.648 -0.1786 -0.3310  1.0105
16425TIP3   OH270765   6.015   3.181  11.276 -0.5524 -0.1809  0.2162
16425TIP3    H170766   6.068   3.259  11.263  0.2895 -0.6598  0.6380
16425TIP3    H270767   5.932   3.213  11.310 -0.5613  0.5929 -0.4959
16426TIP3   OH270768   5.276   0.540  14.344 -0.7201  0.0424  0.3715
16426TIP3    H170769   5.362   0.545  14.303 -0.8154 -0.3730  0.1116
16426TIP3    H270770   5.294   0.524  14.437 -0.5160 -1.7397  0.0656
16427TIP3   OH270771   3.721   3.356  14.882 -0.4924 -0.2037 -0.4382
16427TIP3    H170772   3.674   3.421  14.830 -1.0695  0.2248  0.5998
16427TIP3    H270773   3.751   3.403  14.959 -0.9077 -1.1396  0.3297
16428TIP3   OH270774   4.493   4.899   0.252 -0.6184 -0.1692  0.5560
16428TIP3    H170775   4.533   4.985   0.258  0.8727 -0.9096  1.9644
16428TIP3    H270776   4.519   4.866   0.166 -0.0452  0.2341  0.5729
16429TIP3   OH270777   6.781   4.453  12.042  0.7284  0.2817 -0.2376
16429TIP3    H170778   6.847   4.385  12.034  0.8424  0.1591  1.5276
16429TIP3    H270779   6.830   4.535  12.040  0.9601  0.1915  1.0568
16430TIP3   OH270780   4.081   5.823  10.981  0.1150 -0.1692  0.5910
16430TIP3    H170781   4.114   5.763  11.048  0.7497  0.3312  0.7385
16430TIP3    H270782   4.071   5.768  10.903  2.6929 -0.0928  0.1210
16431TIP3   OH270783   2.059   0.063   5.914  0.2687 -0.0503 -0.0677
16431TIP3    H170784   2.040   0.156   5.930  1.8510  0.4252 -0.7119
16431TIP3    H270785   2.154   0.059   5.908  0.1722 -1.5443 -1.1275
16432TIP3   OH270786   5.383   6.285   0.220 -0.0001 -0.0715  0.1275
16432TIP3    H170787   5.403   6.268   0.312 -2.4198 -1.7662  0.4499
16432TIP3    H270788   5.291   6.261   0.211  0.2317 -0.2430 -2.8172
16433TIP3   OH270789   5.149   4.295  13.817 -0.0170  0.3654 -0.0068
16433TIP3    H170790   5.104   4.228  13.765 -0.0433  1.2220 -1.1228
16433TIP3    H270791   5.164   4.367  13.756  2.8191  0.1703  0.2935
16434TIP3   OH270792   4.358   5.066  11.527 -0.2583  0.3469  0.1488
16434TIP3    H170793   4.400   4.981  11.513 -1.4375 -0.0368 -1.3014
16434TIP3    H270794   4.417   5.112  11.586  0.7004 -1.2611  0.5140
16435TIP3   OH270795   6.310   3.932  13.589  0.0423 -0.4773 -0.0864
16435TIP3    H170796   6.344   3.960  13.504  0.2202  0.5434  0.2993
16435TIP3    H270797   6.369   3.973  13.653 -1.0957  0.1977  0.5651
16436TIP3   OH270798   6.053   3.926  13.294 -0.0623  0.4211  0.1773
16436TIP3    H170799   6.006   3.888  13.220  0.2612  0.2122  0.0774
16436TIP3    H270800   6.103   3.999  13.256  1.1171 -0.4842 -0.0574
16437TIP3   OH270801   0.048   0.515   2.995 -0.3006  0.6285  0.1109
16437TIP3    H170802   0.082   0.452   3.058  1.3854  2.2900  0.9611
16437TIP3    H270803  -0.041   0.485   2.976 -0.2455 -0.8632  1.9715
16438TIP3   OH270804   1.178   1.771   3.170  0.7366  0.0033  0.2682
16438TIP3    H170805   1.143   1.683   3.156  1.5245 -0.2730 -0.0206
16438TIP3    H270806   1.237   1.762   3.245  0.6439  0.3342  0.3797
16439TIP3   OH270807   0.212   3.043  13.970 -0.3833 -0.7949 -0.4729
16439TIP3    H170808   0.306   3.056  13.957  0.3557 -2.9654  1.7777
16439TIP3    H270809   0.172   3.127  13.947  2.1203  0.3044 -1.1403
16440TIP3   OH270810   4.057   1.952   1.620 -0.1089  0.0093 -0.5766
16440TIP3    H170811   4.068   2.042   1.589 -0.0870  0.7716  1.4743
16440TIP3    H270812   3.977   1.955   1.673  0.6077 -0.8488  0.6009
16441TIP3   OH270813   1.674   3.489  11.570 -0.0981  0.6333  0.0276
16441TIP3    H170814   1.617   3.506  11.495  0.7768  0.2577 -0.7496
16441TIP3    H270815   1.709   3.402  11.554  0.3939  0.7040  0.6852
16442TIP3   OH270816   0.592   1.050   2.310 -0.2729 -0.1250 -0.2384
16442TIP3    H170817   0.617   1.002   2.231  1.1825  2.9518 -1.7883
16442TIP3    H270818   0.526   0.994   2.352  0.0388 -2.5883 -2.7782
16443TIP3   OH270819   2.278   1.433   0.646 -0.0243 -0.0405  0.2825
16443TIP3    H170820   2.349   1.406   0.704 -0.4671 -0.1439  0.7884
16443TIP3    H270821   2.267   1.358   0.586  0.8745  0.3365 -0.3772
16444TIP3   OH270822   4.506   5.529  15.345  0.0389  0.3436 -0.2382
16444TIP3    H170823   4.516   5.546  15.251  0.6577  0.9917 -0.0683
16444TIP3    H270824   4.426   5.478  15.352  1.1764 -1.6926 -1.3535
16445TIP3   OH270825   0.697   1.111  11.872 -0.0970  0.2529  0.3777
16445TIP3    H170826   0.731   1.168  11.942 -2.4876  1.0055  1.0400
16445TIP3    H270827   0.675   1.171  11.801  2.0029 -0.4775 -0.9375
16446TIP3   OH270828   1.546   1.457   2.375 -0.2745  0.6600 -0.1680
16446TIP3    H170829   1.481   1.419   2.316  0.0209  0.1159 -0.1537
16446TIP3    H270830   1.630   1.431   2.338 -0.0739 -0.9394  1.2369
16447TIP3   OH270831   1.087   1.356  16.120  0.0066 -0.3370 -0.0937
16447TIP3    H170832   1.021   1.413  16.160  0.0179  0.5402 -1.2744
16447TIP3    H270833   1.170   1.403  16.131  0.9126 -2.4271  3.3724
16448TIP3   OH270834   5.062   6.345  16.448  0.3891 -1.3133  0.0773
16448TIP3    H170835   4.967   6.338  16.456  0.3601 -0.1221  1.1369
16448TIP3    H270836   5.090   6.385  16.530  2.0219 -3.2230  0.5400
16449TIP3   OH270837   3.358   6.672  12.327 -0.1266  0.2013  0.5527
16449TIP3    H170838   3.325   6.688  12.415 -0.2209 -0.8505  0.7227
16449TIP3    H270839   3.453   6.667  12.337 -0.1004  0.5731  0.5061
16450TIP3   OH270840   2.653   4.052   5.289 -0.0538 -0.6475 -0.7832
16450TIP3    H170841   2.721   3.995   5.324  0.2777  0.2111  0.0110
16450TIP3    H270842   2.651   4.032   5.195  0.5993 -1.3853 -0.6502
16451TIP3   OH270843   6.603   2.087   0.643  0.1958  0.5316  0.1641
16451TIP3    H170844   6.521   2.100   0.597 -0.1236  0.8336  0.8038
16451TIP3    H270845   6.639   2.175   0.653  0.3204  0.4561  0.3902
16452TIP3   OH270846   1.240   2.068   0.321  0.2780 -0.1593 -0.2015
16452TIP3    H170847   1.227   2.116   0.403 -0.7066 -2.5802  1.1983
16452TIP3    H270848   1.334   2.073   0.304  0.8500 -1.2266  2.2359
16453TIP3   OH270849   2.656   2.810  17.230  0.0468  0.1947  0.2790
16453TIP3    H170850   2.688   2.738  17.176  0.4241  0.4991  0.0880
16453TIP3    H270851   2.668   2.888  17.175  0.3109  0.4936  0.7524
16454TIP3   OH270852   2.068   5.848  14.089  0.1486 -0.3306 -0.2423
16454TIP3    H170853   2.037   5.809  14.008  1.1218 -0.9191 -0.3521
16454TIP3    H270854   2.068   5.776  14.152  0.7038 -0.2050 -0.0920
16455TIP3   OH270855   0.014   1.656   0.221  0.4146 -0.1091  0.0038
16455TIP3    H170856   0.019   1.682   0.129 -1.0760  0.5095  0.0658
16455TIP3    H270857  -0.018   1.734   0.267  1.6049 -0.2461  1.1456
16456TIP3   OH270858   4.493   4.812   3.500 -0.1870 -0.1738  0.9020
16456TIP3    H170859   4.418   4.794   3.557 -0.1824  1.0263  1.3056
16456TIP3    H270860   4.557   4.745   3.523 -1.8798 -2.6581 -0.9752
16457TIP3   OH270861   2.805   6.420   2.777 -0.2386 -0.5867  0.2085
16457TIP3    H170862   2.826   6.426   2.870 -1.1622 -1.4050  0.4780
16457TIP3    H270863   2.710   6.410   2.773 -0.2468 -0.2755 -0.8415
16458TIP3   OH270864   0.439   5.651  14.026  0.0256  0.9104 -0.3001
16458TIP3    H170865   0.506   5.676  13.962  0.7070  0.5398  0.2473
16458TIP3    H270866   0.396   5.575  13.987  1.0222  0.1462  0.0496
16459TIP3   OH270867   4.435   3.061  13.660  0.9029 -0.3806 -0.5948
16459TIP3    H170868   4.523   3.091  13.686  0.2554 -0.0779  1.4283
16459TIP3    H270869   4.384   3.141  13.653  0.7824 -0.5471 -1.9093
16460TIP3   OH270870   3.376   4.508  13.315 -0.3810  0.1597  0.6429
16460TIP3    H170871   3.300   4.515  13.257  0.6321  1.5925 -0.5791
16460TIP3    H270872   3.398   4.598  13.338  1.9482 -0.0621 -0.4050
16461TIP3   OH270873   4.038   4.743  15.525 -0.6893 -0.4211  0.5638
16461TIP3    H170874   4.086   4.669  15.489  1.9001  0.7930  1.3120
16461TIP3    H270875   4.088   4.769  15.602 -2.1313  1.4277  0.9465
16462TIP3   OH270876   3.938   0.979   4.180 -0.5302  0.4422 -0.1621
16462TIP3    H170877   3.857   1.025   4.156 -0.5388  0.0163 -0.9909
16462TIP3    H270878   3.908   0.905   4.233 -1.0366 -1.3757 -2.7509
16463TIP3   OH270879   2.957   0.624  12.707  0.0482  0.1139  0.5215
16463TIP3    H170880   2.886   0.560  12.714 -0.1250  0.0015 -1.4555
16463TIP3    H270881   2.915   0.704  12.677  0.6670  0.1975 -0.1592
16464TIP3   OH270882   1.299   4.310   4.411  0.0119 -0.0047 -0.2816
16464TIP3    H170883   1.273   4.390   4.458 -0.2773 -0.0258 -0.4019
16464TIP3    H270884   1.323   4.340   4.324 -2.0257 -0.2721 -0.9777
16465TIP3   OH270885   5.113   0.893   6.459  0.0594 -0.2325  0.0715
16465TIP3    H170886   5.020   0.915   6.463 -0.2035 -1.3021  0.2118
16465TIP3    H270887   5.126   0.858   6.370  0.2382 -0.4563  0.1831
16466TIP3   OH270888   1.786   4.936   3.917 -0.1071  0.4484 -0.3910
16466TIP3    H170889   1.704   4.957   3.962 -0.2183  1.7948 -1.1895
16466TIP3    H270890   1.851   4.991   3.960  0.1453  0.3408 -0.6361
16467TIP3   OH270891   0.168   2.412   2.590  0.0551 -0.3946 -0.1310
16467TIP3    H170892   0.227   2.386   2.520 -0.8608 -2.2468 -0.2858
16467TIP3    H270893   0.170   2.339   2.652 -1.0829  0.0646  0.4850
16468TIP3   OH270894   2.620   5.904   3.561  0.2235 -0.5549 -0.3550
16468TIP3    H170895   2.603   5.967   3.491  1.4456  1.2198  0.8605
16468TIP3    H270896   2.706   5.929   3.596  0.0044 -1.8767  1.2776
16469TIP3   OH270897   1.619   5.753  16.164 -0.0561 -0.1417  0.4163
16469TIP3    H170898   1.686   5.687  16.182 -0.6115 -0.9221 -0.2865
16469TIP3    H270899   1.570   5.760  16.246 -0.5517 -1.2818  0.2382
16470TIP3   OH270900   4.269   5.893  15.725  0.0865 -0.0628  0.4056
16470TIP3    H170901   4.256   5.986  15.708  0.6582  0.0711  0.6595
16470TIP3    H270902   4.340   5.868  15.665 -0.4077 -0.4561 -0.0211
16471TIP3   OH270903   5.534   1.025  14.710  0.2074  0.2080  0.0228
16471TIP3    H170904   5.465   0.959  14.717  1.7795 -1.9053 -2.5494
16471TIP3    H270905   5.489   1.103  14.677 -1.2022 -0.4904  0.2049
16472TIP3   OH270906   6.066   3.206  13.343 -0.2156  0.3608  0.4705
16472TIP3    H170907   6.006   3.270  13.380 -1.5934 -0.5631 -0.0660
16472TIP3    H270908   6.068   3.226  13.249  0.6876  0.6510  0.5364
16473TIP3   OH270909   6.614   2.369  15.962 -0.1709 -0.1950  0.7499
16473TIP3    H170910   6.672   2.374  16.037  0.9634  0.3668 -0.1408
16473TIP3    H270911   6.616   2.276  15.936  0.5409 -0.1358  0.5699
16474TIP3   OH270912   4.537   6.471   5.316 -0.0540  0.1811  0.0434
16474TIP3    H170913   4.513   6.399   5.258 -1.9477 -0.6428  1.7513
16474TIP3    H270914   4.577   6.429   5.392 -0.5991  0.9791  0.7881
16475TIP3   OH270915   5.203   1.843  13.867  0.2273  0.0797  0.0916
16475TIP3    H170916   5.218   1.768  13.808 -0.8260 -0.6759  0.7320
16475TIP3    H270917   5.114   1.828  13.900 -0.8276  2.6803 -1.2762
16476TIP3   OH270918   2.265   6.133   6.087 -0.2028 -0.9518 -0.0587
16476TIP3    H170919   2.299   6.191   6.155 -0.6885 -0.6694 -0.0573
16476TIP3    H270920   2.312   6.050   6.102 -0.3162 -0.9005  0.6305
16477TIP3   OH270921   1.958   2.279   1.429 -0.2011  0.0782 -0.3099
16477TIP3    H170922   2.013   2.201   1.414 -0.2562  0.1071 -0.6817
16477TIP3    H270923   2.018   2.353   1.421  0.0271  0.0460  0.9123
16478TIP3   OH270924   4.190   6.660   3.026  0.0824  0.3273 -0.4484
16478TIP3    H170925   4.138   6.737   3.002  1.5954  0.6348 -3.1497
16478TIP3    H270926   4.241   6.689   3.102 -0.9894  1.2444 -0.0544
16479TIP3   OH270927   5.413   1.172   4.147 -0.1772 -0.4341  0.4507
16479TIP3    H170928   5.317   1.172   4.143 -0.1890  0.8145  0.2102
16479TIP3    H270929   5.436   1.262   4.171  0.8983 -1.0951  2.0627
16480TIP3   OH270930   1.624   0.799  10.728 -0.1178  0.7166  0.7144
16480TIP3    H170931   1.715   0.822  10.744  0.6921 -2.0520  0.6552
16480TIP3    H270932   1.608   0.827  10.638  0.4529  1.7855  0.9298
16481TIP3   OH270933   1.508   5.237   2.543  0.4474  0.0664 -0.3339
16481TIP3    H170934   1.471   5.151   2.562  0.5308  0.3629  1.3518
16481TIP3    H270935   1.537   5.270   2.628  2.3114  0.8947 -1.2144
16482TIP3   OH270936   6.759   0.892  13.406 -0.5236  0.2526  0.6034
16482TIP3    H170937   6.762   0.963  13.342 -0.9644  1.6578  2.0783
16482TIP3    H270938   6.691   0.833  13.373  0.6428 -0.1409 -1.2482
16483TIP3   OH270939   2.212   1.119   0.944  0.1282 -0.3329  0.1392
16483TIP3    H170940   2.242   1.121   0.853  0.0005 -0.2832  0.0983
16483TIP3    H270941   2.276   1.064   0.989  0.8048  0.5190  0.2374
16484TIP3   OH270942   4.850   2.379  11.266 -0.6641  0.1193 -0.0602
16484TIP3    H170943   4.870   2.465  11.227 -1.0038  0.5782  0.7486
16484TIP3    H270944   4.762   2.359  11.234 -0.8953  0.4410  0.3608
16485TIP3   OH270945   6.805   4.052   2.988 -0.3342 -0.0457  0.6078
16485TIP3    H170946   6.764   3.966   2.979 -2.3456  0.6624  2.3483
16485TIP3    H270947   6.885   4.045   2.936  0.1682 -3.3288  1.5575
16486TIP3   OH270948   4.924   6.222   2.414 -0.2584  0.0079  0.1669
16486TIP3    H170949   4.903   6.187   2.500  1.0230 -1.3653 -0.0384
16486TIP3    H270950   4.938   6.316   2.429  0.9283 -0.3564  1.6765
16487TIP3   OH270951   1.522   5.561   4.392  0.2115 -0.1370  0.3201
16487TIP3    H170952   1.529   5.614   4.472  0.8082  1.7828 -0.9135
16487TIP3    H270953   1.613   5.553   4.362 -0.0880 -0.1008 -0.6053
16488TIP3   OH270954   0.740   5.976   3.051 -0.2836 -0.3612  0.4223
16488TIP3    H170955   0.689   5.932   2.983  1.8842 -0.4952 -1.1998
16488TIP3    H270956   0.779   5.905   3.102 -0.9102 -0.2533  1.0801
16489TIP3   OH270957   2.012   6.095   4.443  0.0303  0.3648 -0.0151
16489TIP3    H170958   1.998   6.164   4.509  1.5911 -0.0557  0.7923
16489TIP3    H270959   2.004   6.013   4.493  0.2223  0.0162 -0.5566
16490TIP3   OH270960   3.798   3.966  11.811 -0.2826 -0.1199 -0.2720
16490TIP3    H170961   3.737   3.960  11.738 -1.6278  2.3192  0.5408
16490TIP3    H270962   3.761   4.033  11.868  1.7815 -0.4815  1.6482
16491TIP3   OH270963   6.777   2.012   2.229 -0.0906 -0.2677 -0.0515
16491TIP3    H170964   6.835   2.030   2.155  0.4258 -0.2281  0.3543
16491TIP3    H270965   6.756   2.099   2.264 -0.0576 -0.3041  0.0582
16492TIP3   OH270966   2.027   6.217  15.897 -0.2739  0.3140 -0.6877
16492TIP3    H170967   2.082   6.143  15.869  0.8216  1.9420 -3.2158
16492TIP3    H270968   1.977   6.241  15.819 -2.5266  0.7051  0.7831
16493TIP3   OH270969   1.662   5.428  16.394  0.2447  0.0674 -0.5101
16493TIP3    H170970   1.691   5.514  16.423  0.2748  0.3636 -1.3918
16493TIP3    H270971   1.743   5.380  16.377  0.2264  0.0793 -0.6309
16494TIP3   OH270972   0.052   6.002   1.734 -0.0579 -0.0488  0.8273
16494TIP3    H170973   0.103   5.927   1.763  0.0383 -0.4335 -0.3310
16494TIP3    H270974   0.115   6.058   1.688  0.2532  1.5530  2.9804
16495TIP3   OH270975   3.504   2.876  14.563 -0.2587  0.6012  0.2147
16495TIP3    H170976   3.569   2.863  14.495  2.0113  1.0032  2.1938
16495TIP3    H270977   3.503   2.793  14.612 -1.2135  0.6226  0.2598
16496TIP3   OH270978   0.863   1.280  14.066 -0.3292  0.2925  0.3502
16496TIP3    H170979   0.827   1.352  14.118  0.4512  3.1481 -2.7074
16496TIP3    H270980   0.953   1.272  14.097 -0.4321  0.6347  0.7483
16497TIP3   OH270981   5.609   4.914   4.567 -0.0496 -0.0162 -0.5066
16497TIP3    H170982   5.588   4.905   4.474 -3.5847  0.1277  0.1484
16497TIP3    H270983   5.616   4.824   4.599  0.0046 -0.0715 -0.6697
16498TIP3   OH270984   4.673   6.036  10.997  0.6756  0.4492 -0.0214
16498TIP3    H170985   4.669   6.032  10.902 -0.9400 -2.4018  0.0662
16498TIP3    H270986   4.608   6.103  11.021  0.8904  0.9779 -0.8803
16499TIP3   OH270987   0.477   0.978  12.211  0.1333 -0.5295 -1.0538
16499TIP3    H170988   0.466   0.956  12.119 -0.4591 -1.4337 -0.7785
16499TIP3    H270989   0.393   0.954  12.252 -0.7557  2.6210 -0.7672
16500TIP3   OH270990   2.587   2.437  15.394  0.4338  0.0072 -0.5498
16500TIP3    H170991   2.544   2.486  15.464  0.3661 -1.2805  0.3417
16500TIP3    H270992   2.515   2.389  15.352  0.5313  0.4760 -1.2628
16501TIP3   OH270993   1.596   2.464   2.199 -0.2567  0.0048  0.4316
16501TIP3    H170994   1.620   2.519   2.273  0.0326 -1.3934  1.4067
16501TIP3    H270995   1.535   2.399   2.235 -1.3415  0.2283 -0.8840
16502TIP3   OH270996   5.344   1.095  10.975 -0.1157  0.3764  0.0505
16502TIP3    H170997   5.415   1.030  10.976  0.4700  0.9600  2.1767
16502TIP3    H270998   5.278   1.058  10.916  1.7860 -0.3315 -1.7722
16503TIP3   OH270999   0.311   6.413   4.810  0.8397 -0.6579  0.3940
16503TIP3    H171000   0.372   6.437   4.879  1.2889 -1.0021  0.1219
16503TIP3    H271001   0.232   6.386   4.857  1.5062 -1.9411  0.8351
16504TIP3   OH271002   6.314   3.036  12.136  0.2390 -0.4825  0.4485
16504TIP3    H171003   6.377   3.002  12.200 -0.0892 -1.1245  0.4324
16504TIP3    H271004   6.320   3.131  12.147  1.1019 -0.5325  0.5506
16505TIP3   OH271005   5.756   4.306  10.572  0.0307 -0.8599 -0.3576
16505TIP3    H171006   5.825   4.352  10.524  0.3620  0.2686  1.1554
16505TIP3    H271007   5.678   4.315  10.517  0.9790 -1.9897 -2.0065
16506TIP3   OH271008   5.183   4.239  11.153  0.1837 -0.1926  0.2142
16506TIP3    H171009   5.277   4.243  11.141 -0.1164 -0.0121 -2.5150
16506TIP3    H271010   5.172   4.210  11.244  2.8390 -0.9701  0.3561
16507TIP3   OH271011   4.670   5.353   4.140  0.2589 -0.0147  0.2871
16507TIP3    H171012   4.621   5.330   4.219 -2.4913 -1.4080 -1.6366
16507TIP3    H271013   4.731   5.281   4.127 -0.1216 -0.3841  0.5300
16508TIP3   OH271014   2.119   1.844  15.146 -0.0654 -0.0019 -0.0012
16508TIP3    H171015   2.030   1.874  15.127 -0.2427 -1.6306 -2.0984
16508TIP3    H271016   2.176   1.909  15.104 -0.3022  0.1937 -0.0210
16509TIP3   OH271017   5.836   2.136  12.329 -0.2203 -0.5681  0.1307
16509TIP3    H171018   5.857   2.086  12.250 -0.7613 -0.7044  0.0665
16509TIP3    H271019   5.893   2.212  12.325 -0.0733 -0.6947 -0.2730
16510TIP3   OH271020   4.127   0.261  14.554  0.4985 -0.1097 -0.3980
16510TIP3    H171021   4.035   0.275  14.530  0.8229 -0.5246 -1.9171
16510TIP3    H271022   4.124   0.253  14.650 -1.0570 -0.2116 -0.4166
16511TIP3   OH271023   2.745   3.029  15.661  0.0105 -0.0661  0.6206
16511TIP3    H171024   2.756   3.005  15.569  0.0374 -0.4182  0.7152
16511TIP3    H271025   2.739   3.124  15.660  3.7540  0.3248  0.5925
16512TIP3   OH271026   4.627   3.963  17.187  0.2742  0.3592 -0.3475
16512TIP3    H171027   4.618   4.043  17.135 -2.0346  1.2743  1.3078
16512TIP3    H271028   4.686   3.988  17.258 -0.3173  0.5594  0.0787
16513TIP3   OH271029   2.401   3.438  12.881  0.3204 -0.0552  0.2568
16513TIP3    H171030   2.432   3.488  12.805 -0.3012  1.4876  0.9745
16513TIP3    H271031   2.453   3.471  12.954 -0.9571  0.4817  0.9606
16514TIP3   OH271032   3.649   5.941  17.166 -0.3184 -0.7976 -0.1900
16514TIP3    H171033   3.724   5.949  17.226 -0.4562 -0.1163 -0.0956
16514TIP3    H271034   3.573   5.946  17.223 -0.4603 -3.2604 -0.0780
16515TIP3   OH271035   1.779   3.184  16.897  0.7722 -0.2564 -1.2828
16515TIP3    H171036   1.873   3.186  16.917  1.3208  0.1801 -3.6610
16515TIP3    H271037   1.748   3.271  16.921  0.7287 -0.7229  0.4573
16516TIP3   OH271038   3.335   1.384   5.226 -0.5038  0.3031  0.2070
16516TIP3    H171039   3.419   1.417   5.194 -1.7308  2.8618 -0.5826
16516TIP3    H271040   3.302   1.453   5.283 -1.7763 -0.9692  1.0896
16517TIP3   OH271041   5.899   4.771  17.038 -0.2742  0.4016  0.4589
16517TIP3    H171042   5.907   4.681  17.071 -1.4742 -0.0690 -0.4499
16517TIP3    H271043   5.907   4.826  17.116 -0.4764 -0.5484  1.1716
16518TIP3   OH271044   2.445   0.388  11.921  0.8174  0.1603  0.5661
16518TIP3    H171045   2.461   0.392  11.826  0.0896 -0.0544  0.4272
16518TIP3    H271046   2.409   0.301  11.935  0.0408  0.5272  0.9005
16519TIP3   OH271047   2.307   1.109  16.528 -0.2587  0.5374 -0.2920
16519TIP3    H171048   2.259   1.128  16.448 -0.6992  1.3266  0.1460
16519TIP3    H271049   2.254   1.043  16.573 -0.3483  0.5718 -0.3472
16520TIP3   OH271050   2.694   5.490   2.029 -0.1577 -0.3310 -1.1058
16520TIP3    H171051   2.641   5.510   2.106  1.0052  0.9371 -0.6003
16520TIP3    H271052   2.784   5.498   2.059  0.3460 -1.4580 -2.2032
16521TIP3   OH271053   4.034   1.087  15.210  0.3287 -0.0397  0.2383
16521TIP3    H171054   4.006   1.000  15.184  0.9074  0.2954 -1.6613
16521TIP3    H271055   3.956   1.127  15.249  0.4339 -1.8326  2.4385
16522TIP3   OH271056   2.534   3.729   1.539 -0.5061 -0.6046  0.1698
16522TIP3    H171057   2.468   3.670   1.577 -0.9546 -1.1211 -1.3555
16522TIP3    H271058   2.607   3.671   1.517  0.9068  0.0803  2.6579
16523TIP3   OH271059   4.623   6.578   2.978 -0.2464 -0.1118  0.0103
16523TIP3    H171060   4.680   6.512   2.940  0.8343  2.2620 -2.9036
16523TIP3    H271061   4.534   6.548   2.957  0.1039 -1.5017  0.4043
16524TIP3   OH271062   6.750   0.510  11.732  0.4233 -0.2815 -0.5014
16524TIP3    H171063   6.669   0.543  11.772  0.3240 -1.4248  0.3126
16524TIP3    H271064   6.736   0.519  11.638 -0.7847 -0.7291 -0.3902
16525TIP3   OH271065   4.233   5.343   3.059 -0.4497 -0.0212 -0.0766
16525TIP3    H171066   4.265   5.408   2.996  0.6503  1.9178  2.2859
16525TIP3    H271067   4.312   5.311   3.103 -1.2065 -0.8707  0.7090
16526TIP3   OH271068   5.784   0.183   4.049 -0.6521 -0.1983 -0.4467
16526TIP3    H171069   5.752   0.263   4.006  0.3789  0.4417 -0.0558
16526TIP3    H271070   5.724   0.115   4.019 -2.0904  0.8561 -0.1048
16527TIP3   OH271071   0.391   6.138   5.938  0.1684  0.3561  0.3074
16527TIP3    H171072   0.406   6.070   6.005 -0.5064 -0.1030  0.0038
16527TIP3    H271073   0.479   6.162   5.909  0.4077 -1.3676 -0.5390
16528TIP3   OH271074   4.334   1.421  15.518  0.3677  0.2416  0.2798
16528TIP3    H171075   4.383   1.349  15.477 -0.5589 -0.9255  1.1679
16528TIP3    H271076   4.334   1.490  15.452  1.9538 -0.2538 -0.3030
16529TIP3   OH271077   3.365   6.728   2.991  0.3451 -0.1309 -0.0125
16529TIP3    H171078   3.400   6.798   3.046  0.4851 -0.0717 -0.1742
16529TIP3    H271079   3.388   6.754   2.902 -1.0123  0.4241 -0.2218
16530TIP3   OH271080   1.843   5.962   0.217 -0.7908 -0.3669 -0.0839
16530TIP3    H171081   1.828   5.949   0.311 -0.4762 -0.9902 -0.1186
16530TIP3    H271082   1.938   5.970   0.208 -0.7068 -1.6955 -0.5167
16531TIP3   OH271083   1.498   0.891   0.185  0.0385  0.1775 -0.6623
16531TIP3    H171084   1.533   0.822   0.242 -1.2586  0.0601  0.0378
16531TIP3    H271085   1.472   0.844   0.106 -0.0808 -0.0020 -0.5182
16532TIP3   OH271086   1.298   4.143   1.684  0.0900 -0.1734 -0.2116
16532TIP3    H171087   1.274   4.050   1.680 -0.7121 -0.0014  0.3007
16532TIP3    H271088   1.311   4.168   1.593  0.4601 -0.8238 -0.3458
16533TIP3   OH271089   5.820   4.493  16.051  0.3865 -0.6435 -0.0185
16533TIP3    H171090   5.841   4.560  16.116  2.3631  0.0303 -1.2444
16533TIP3    H271091   5.889   4.427  16.061  0.4299 -0.7760 -1.0671
16534TIP3   OH271092   5.222   2.405   3.777 -0.1831  0.1888 -0.1974
16534TIP3    H171093   5.259   2.487   3.810 -0.8707 -0.0270  1.1889
16534TIP3    H271094   5.233   2.343   3.849  0.4473 -0.9937 -1.2747
16535TIP3   OH271095   0.026   6.470  14.935  0.2943  0.6479 -0.0013
16535TIP3    H171096  -0.041   6.403  14.918 -0.4096  1.2442  0.3484
16535TIP3    H271097   0.039   6.467  15.029 -0.3965  1.6060  0.1337
16536TIP3   OH271098   6.502   0.923   2.436  0.1240  0.0534  0.0695
16536TIP3    H171099   6.483   1.015   2.417 -1.1609 -0.0421  0.7806
16536TIP3    H271100   6.447   0.874   2.376 -1.4864 -0.2309  1.7027
16537TIP3   OH271101   3.808   1.246  15.622 -0.1969  0.0508  0.3506
16537TIP3    H171102   3.720   1.221  15.593  0.5490  0.2976 -2.3180
16537TIP3    H271103   3.865   1.178  15.586  0.8910  0.7247  0.7633
16538TIP3   OH271104   6.301   0.651  15.251 -0.3058  0.5761  0.1187
16538TIP3    H171105   6.293   0.651  15.156  0.9005  2.3110 -0.0256
16538TIP3    H271106   6.246   0.724  15.280 -1.9482 -0.9065  0.9350
16539TIP3   OH271107   3.552   2.238   0.401  0.3660 -0.3750  0.0859
16539TIP3    H171108   3.487   2.198   0.458  0.2714  0.9186  0.9141
16539TIP3    H271109   3.611   2.285   0.460  0.7321  0.3395 -0.8153
16540TIP3   OH271110   5.089   5.716  12.016  0.9987 -0.1699 -0.2138
16540TIP3    H171111   5.069   5.749  12.103  1.1074  1.8541 -0.9194
16540TIP3    H271112   5.034   5.637  12.007  0.2770  0.1380  1.3063
16541TIP3   OH271113   6.213   6.811   2.404 -0.3586  0.0676  0.6212
16541TIP3    H171114   6.250   6.739   2.454 -0.5400 -0.8742 -0.5554
16541TIP3    H271115   6.123   6.820   2.437 -0.0631  0.3309  1.3602
16542TIP3   OH271116   5.618   3.190  15.313 -0.2397 -0.3936  0.3345
16542TIP3    H171117   5.616   3.120  15.378  1.6400 -2.2712 -1.4498
16542TIP3    H271118   5.586   3.268  15.359 -2.5997 -2.4109  2.3737
16543TIP3   OH271119   4.473   4.360  11.066 -0.0223  1.0032  0.2659
16543TIP3    H171120   4.377   4.363  11.062 -0.0746 -0.1632  0.4176
16543TIP3    H271121   4.496   4.274  11.030  0.9317  1.0203  0.7985
16544TIP3   OH271122   5.923   5.926   4.020  0.3897 -0.0339 -0.4140
16544TIP3    H171123   5.905   5.987   4.091 -0.7968  0.4970 -1.1373
16544TIP3    H271124   6.014   5.943   3.995  1.4512 -1.4742  2.1086
16545TIP3   OH271125   2.309   1.890  14.111 -0.0238  0.4857 -0.3124
16545TIP3    H171126   2.347   1.803  14.128 -1.7668 -0.1507  0.4557
16545TIP3    H271127   2.383   1.950  14.123  0.8137 -0.7187  0.9442
16546TIP3   OH271128   0.411   5.612   3.374 -0.1519  0.1405  0.0014
16546TIP3    H171129   0.356   5.682   3.340  0.2705  0.3363 -0.2889
16546TIP3    H271130   0.367   5.583   3.454 -0.4008  0.6417  0.0479
16547TIP3   OH271131   0.276   5.842   0.395 -0.5435  0.1726 -0.3015
16547TIP3    H171132   0.234   5.927   0.384  0.7815  1.0364  0.8955
16547TIP3    H271133   0.350   5.844   0.334  0.0147  0.2596  0.3675
16548TIP3   OH271134   6.426   1.738  13.319  0.2768 -0.8052 -0.2104
16548TIP3    H171135   6.463   1.827  13.322  0.7031 -0.8352 -2.4438
16548TIP3    H271136   6.343   1.749  13.272 -0.5916 -1.3406  1.1607
16549TIP3   OH271137   4.993   5.090  17.057 -0.3293  0.0843  0.5107
16549TIP3    H171138   5.010   5.174  17.016 -2.5783 -0.0480 -0.9215
16549TIP3    H271139   4.946   5.111  17.138 -1.3081  0.2472 -0.0773
16550TIP3   OH271140   0.143   6.744  13.774  0.7468  0.4665  0.5322
16550TIP3    H171141   0.189   6.760  13.692 -0.2463 -0.4389 -0.2382
16550TIP3    H271142   0.180   6.662  13.808  0.9865  0.7113  0.8659
16551TIP3   OH271143   5.879   5.467  16.282 -0.4537 -0.1900  0.0655
16551TIP3    H171144   5.907   5.426  16.364 -0.9084 -0.6145  0.0151
16551TIP3    H271145   5.960   5.494  16.240  0.0820 -2.9241 -0.8859
16552TIP3   OH271146   5.411   3.565  12.527 -0.1594 -0.2011 -0.0529
16552TIP3    H171147   5.491   3.617  12.532  2.2451 -3.3552 -1.6968
16552TIP3    H271148   5.379   3.578  12.437 -2.3558  1.9878  0.9374
16553TIP3   OH271149   2.085   3.968   4.704  0.2070  0.1704 -0.3242
16553TIP3    H171150   2.108   3.909   4.776 -0.8684  0.4892  0.3138
16553TIP3    H271151   2.107   3.919   4.625  2.8159  0.3757  0.1871
16554TIP3   OH271152   3.488   0.895  12.844 -0.0222 -0.2593 -0.5145
16554TIP3    H171153   3.548   0.909  12.916 -1.1385 -0.0428  0.4066
16554TIP3    H271154   3.541   0.909  12.765  1.5251 -1.7626  0.2097
16555TIP3   OH271155   2.744   6.650  14.945  0.0738  0.6035 -0.5493
16555TIP3    H171156   2.754   6.567  14.897 -0.7676  0.4510 -0.4784
16555TIP3    H271157   2.826   6.696  14.930  1.1361 -0.8374  0.5521
16556TIP3   OH271158   2.350   5.739  11.680  0.3830 -0.7879 -0.4964
16556TIP3    H171159   2.345   5.644  11.670 -0.2288 -0.7574 -0.4673
16556TIP3    H271160   2.399   5.752  11.761 -0.1907 -1.0870 -0.1021
16557TIP3   OH271161   1.915   5.468  10.673 -0.0205  0.9642  0.2339
16557TIP3    H171162   1.906   5.516  10.755 -0.1762 -0.6091  1.1947
16557TIP3    H271163   1.855   5.394  10.683  0.4769  0.3710 -1.0172
16558TIP3   OH271164   2.239   2.797  12.667 -0.3455  0.7504  0.3918
16558TIP3    H171165   2.254   2.844  12.585  1.3401  1.1866  0.9074
16558TIP3    H271166   2.271   2.708  12.650 -3.3953 -0.3133 -0.5348
16559TIP3   OH271167   5.007   6.588  11.241  0.5958 -0.3236 -0.1414
16559TIP3    H171168   4.994   6.548  11.155 -0.3310 -1.2265  0.3977
16559TIP3    H271169   5.053   6.522  11.292 -1.1425 -0.8448  0.8273
16560TIP3   OH271170   6.205   4.295  12.482 -0.0072 -0.1101  0.4012
16560TIP3    H171171   6.181   4.237  12.554 -0.9667  0.2746  0.4095
16560TIP3    H271172   6.281   4.254  12.442  1.8926  0.7466  2.8980
16561TIP3   OH271173   5.365   2.320   4.237 -0.0227 -0.2675  0.2512
16561TIP3    H171174   5.435   2.375   4.200  0.3826 -1.1539 -0.3411
16561TIP3    H271175   5.291   2.333   4.178  0.5169 -1.4162 -0.7443
16562TIP3   OH271176   1.839   5.506   1.482  0.2539  0.4025 -0.2656
16562TIP3    H171177   1.834   5.580   1.423  0.7920  0.3019 -0.4456
16562TIP3    H271178   1.748   5.480   1.498  0.0827  0.8998 -0.4497
16563TIP3   OH271179   0.342   1.119   6.456  0.6646 -0.5371 -0.1531
16563TIP3    H171180   0.430   1.153   6.469  0.9864 -2.1536  2.7218
16563TIP3    H271181   0.353   1.024   6.451 -1.0285 -1.0600  3.2112
16564TIP3   OH271182   2.433   6.642   0.590  0.3503  0.5438  0.3441
16564TIP3    H171183   2.519   6.602   0.603 -0.1677 -0.5935  0.3725
16564TIP3    H271184   2.429   6.663   0.497  0.4557  0.1144  0.2433
16565TIP3   OH271185   3.498   4.011  16.968  0.2904  0.4259 -0.6522
16565TIP3    H171186   3.563   3.964  16.916  0.5592 -1.5146  1.2941
16565TIP3    H271187   3.541   4.093  16.992  1.0013  0.3396 -1.5690
16566TIP3   OH271188   0.506   3.486  16.046  0.3528  0.3940 -0.2670
16566TIP3    H171189   0.552   3.406  16.020  0.0795  0.6122 -1.5182
16566TIP3    H271190   0.562   3.527  16.111  0.5842 -0.7169  0.2668
16567TIP3   OH271191   5.555   3.342  13.925  0.4267 -0.6680 -0.4737
16567TIP3    H171192   5.644   3.315  13.903  1.3612 -0.9356  3.1043
16567TIP3    H271193   5.505   3.260  13.925  0.3492 -0.6364 -1.6010
16568TIP3   OH271194   1.343   1.326  11.556  0.5823  0.5013 -0.8397
16568TIP3    H171195   1.386   1.401  11.596  0.9865  0.2830 -0.8597
16568TIP3    H271196   1.376   1.250  11.605 -0.6000  0.4129 -0.1390
16569TIP3   OH271197   6.805   5.602   3.214  0.2112  0.2455 -0.6148
16569TIP3    H171198   6.747   5.606   3.137 -0.1641  0.5848 -0.3189
16569TIP3    H271199   6.859   5.525   3.199  0.6040  0.6904 -1.5529
16570TIP3   OH271200   2.201   1.498  12.556  0.1037  0.1444 -0.5514
16570TIP3    H171201   2.226   1.581  12.598 -0.7503  0.5455 -0.8088
16570TIP3    H271202   2.264   1.434  12.590 -1.7635 -0.0469  3.0664
16571TIP3   OH271203   2.427   2.959   4.297  0.1426 -0.0552 -0.3213
16571TIP3    H171204   2.458   3.046   4.274 -0.9216  0.7555  1.1419
16571TIP3    H271205   2.471   2.939   4.380 -1.9815  0.4930  1.0195
16572TIP3   OH271206   6.115   6.459  16.992  0.4434  0.7857  0.3366
16572TIP3    H171207   6.136   6.367  16.976  1.3913  0.7556  1.6065
16572TIP3    H271208   6.026   6.458  17.026 -0.2477  0.5369 -1.3681
16573TIP3   OH271209   4.328   3.499  16.316 -0.0818  0.3780 -0.0614
16573TIP3    H171210   4.262   3.528  16.379  0.7795  0.6322  0.7556
16573TIP3    H271211   4.408   3.544  16.343  0.2844  0.6105 -1.4428
16574TIP3   OH271212   0.103   0.469  14.077 -0.0773 -0.6114 -0.5791
16574TIP3    H171213   0.084   0.484  13.985 -0.7230 -1.2847 -0.5686
16574TIP3    H271214   0.017   0.466  14.119  0.2198 -0.0526  0.0896
16575TIP3   OH271215   5.786   1.148   4.185  0.3444 -0.8442 -0.1681
16575TIP3    H171216   5.860   1.104   4.144  0.8001 -0.5480  0.3242
16575TIP3    H271217   5.811   1.158   4.277  0.5413  0.9896 -0.3768
16576TIP3   OH271218   6.477   4.915  14.756 -0.9625  0.1565  0.2653
16576TIP3    H171219   6.519   4.867  14.827  0.1467  1.9582  0.8845
16576TIP3    H271220   6.509   4.873  14.676 -1.0274 -0.9222  0.7868
16577TIP3   OH271221   3.625   0.418  13.737 -0.2619  0.4544  0.0326
16577TIP3    H171222   3.559   0.475  13.776  1.0789  1.0017  1.6670
16577TIP3    H271223   3.664   0.471  13.667 -0.1339  0.9643  0.4745
16578TIP3   OH271224   5.377   5.160   3.617  0.5455 -0.7792 -0.3762
16578TIP3    H171225   5.434   5.150   3.693  1.0139  3.3366  0.0145
16578TIP3    H271226   5.290   5.134   3.648  1.0076 -0.6302  1.0941
16579TIP3   OH271227   5.453   0.300  15.971 -0.1656  0.0456  0.2229
16579TIP3    H171228   5.408   0.248  15.905  0.7820 -1.0091  0.3732
16579TIP3    H271229   5.413   0.386  15.965  0.1073  0.0756 -1.9431
16580TIP3   OH271230   2.308   0.102   3.261  0.0199  0.0794 -0.1642
16580TIP3    H171231   2.363   0.090   3.184  0.8110  0.3663  0.3362
16580TIP3    H271232   2.347   0.045   3.327 -1.0196 -0.6353 -0.1400
16581TIP3   OH271233   3.875   1.435   2.129 -0.3615  0.0958  0.0155
16581TIP3    H171234   3.828   1.513   2.098 -2.3381 -1.2433 -0.5337
16581TIP3    H271235   3.901   1.457   2.219 -0.0761  1.7026 -0.4289
16582TIP3   OH271236   3.735   3.817   1.510 -0.0533  0.2953 -0.6663
16582TIP3    H171237   3.805   3.754   1.491 -0.2846  0.0512 -0.7298
16582TIP3    H271238   3.736   3.826   1.606  0.0062  0.2226 -0.6602
16583TIP3   OH271239   1.058   6.207  12.021 -0.2468 -0.0480  0.3361
16583TIP3    H171240   1.032   6.257  12.099 -0.2793 -0.2178  0.4342
16583TIP3    H271241   1.152   6.222  12.012 -0.7142  2.5413 -1.4023
16584TIP3   OH271242   1.483   5.746  14.183 -0.4531  0.3352 -0.3847
16584TIP3    H171243   1.450   5.836  14.184 -2.4964 -0.3574 -0.8102
16584TIP3    H271244   1.441   5.704  14.257  0.7053 -0.2316 -0.0186
16585TIP3   OH271245   4.993   0.129  11.631  0.5455  0.3825  0.0020
16585TIP3    H171246   5.023   0.193  11.696  2.2788  1.0623 -1.3986
16585TIP3    H271247   4.916   0.169  11.592 -0.4617  0.0110  1.5167
16586TIP3   OH271248   4.818   1.611   0.218 -0.4958 -0.2027 -0.2871
16586TIP3    H171249   4.865   1.546   0.165  2.8067  1.8643 -0.1122
16586TIP3    H271250   4.755   1.650   0.157 -0.2161 -1.2520 -1.2947
16587TIP3   OH271251   3.468   2.500   3.127  0.2460 -0.1651  0.6185
16587TIP3    H171252   3.396   2.562   3.142  0.6560  0.5749 -0.3536
16587TIP3    H271253   3.458   2.435   3.196 -0.4846  0.7246  1.3864
16588TIP3   OH271254   2.426   6.314  16.897 -0.1891  0.0511  0.3390
16588TIP3    H171255   2.340   6.342  16.929 -0.2475 -0.1269  0.3348
16588TIP3    H271256   2.460   6.392  16.852 -1.8742 -0.8693 -2.8505
16589TIP3   OH271257   0.267   0.576  11.411 -0.1136 -0.6057 -0.3853
16589TIP3    H171258   0.264   0.497  11.357  1.7681 -0.6665 -0.4610
16589TIP3    H271259   0.329   0.634  11.367  0.8924 -0.3506  1.2694
16590TIP3   OH271260   4.992   5.348  11.011 -0.0995  0.3329 -0.1920
16590TIP3    H171261   5.070   5.293  10.999 -0.2564 -0.0396  0.4675
16590TIP3    H271262   5.027   5.434  11.036  0.1160  0.2656 -0.2647
16591TIP3   OH271263   2.966   4.453  12.915 -0.2556  0.1017  0.6405
16591TIP3    H171264   3.026   4.387  12.950  0.9867  1.0593  0.3874
16591TIP3    H271265   2.915   4.481  12.992 -0.5386 -0.8643  0.8194
16592TIP3   OH271266   4.264   5.999   3.848 -0.0975  0.0072 -0.2279
16592TIP3    H171267   4.279   5.918   3.798  1.7312  1.3501 -1.9830
16592TIP3    H271268   4.340   6.005   3.906 -1.5962 -0.8834  1.9777
16593TIP3   OH271269   2.717   1.980   0.377 -0.1302  0.1014 -0.5753
16593TIP3    H171270   2.635   2.029   0.379 -0.3857 -0.3166 -0.5037
16593TIP3    H271271   2.717   1.937   0.291 -0.6462 -0.9692 -0.0715
16594TIP3   OH271272   0.631   1.976  16.016  0.5099  0.4754 -0.1536
16594TIP3    H171273   0.659   1.956  16.105  2.4048  0.5905 -0.6756
16594TIP3    H271274   0.538   1.955  16.015  0.1150  1.7094  2.2122
16595TIP3   OH271275   2.623   4.234   5.733  0.3767 -0.0093 -0.0585
16595TIP3    H171276   2.673   4.155   5.755  0.6405  0.3067  0.4840
16595TIP3    H271277   2.660   4.264   5.650 -0.4051 -1.0237 -0.8122
16596TIP3   OH271278   5.436   5.532   1.355  0.0407  0.3959  0.0272
16596TIP3    H171279   5.494   5.481   1.411  2.2524  3.3377  0.7292
16596TIP3    H271280   5.370   5.568   1.414  0.1012  0.4888  0.0384
16597TIP3   OH271281   0.044   5.245  13.137 -0.4094  0.4217  0.0127
16597TIP3    H171282  -0.006   5.320  13.169 -0.6493  1.1133 -1.8347
16597TIP3    H271283   0.119   5.284  13.092  0.0679 -0.5005 -0.0138
16598TIP3   OH271284   5.160   4.681   0.027  0.3991  0.3526 -0.6542
16598TIP3    H171285   5.241   4.653  -0.015  0.6417 -0.9116  0.5951
16598TIP3    H271286   5.111   4.600   0.042 -0.3978  0.9387  0.0282
16599TIP3   OH271287   3.411   3.315  14.682 -0.2603  0.0446 -0.0590
16599TIP3    H171288   3.479   3.379  14.700  0.9437 -1.0881 -0.4364
16599TIP3    H271289   3.329   3.360  14.704  0.4685  1.9516 -1.0362
16600TIP3   OH271290   0.293   5.343   1.960  0.0201 -0.2833 -0.2383
16600TIP3    H171291   0.281   5.342   1.865 -0.0518  0.9930 -0.2585
16600TIP3    H271292   0.324   5.255   1.982 -2.1983 -1.3611 -1.1453
16601TIP3   OH271293   6.689   2.468   1.846  0.3256 -0.2620 -0.1989
16601TIP3    H171294   6.721   2.552   1.813 -0.4689  0.5839  1.1392
16601TIP3    H271295   6.713   2.405   1.777  0.1352  1.1863 -1.6333
16602TIP3   OH271296   2.533   2.560  13.413  0.3994 -0.2554 -0.1539
16602TIP3    H171297   2.497   2.501  13.347  0.3918  1.4211 -1.7430
16602TIP3    H271298   2.460   2.619  13.434  0.3551 -0.8745  1.5085
16603TIP3   OH271299   4.268   3.222  16.915  0.1012  0.4147 -0.0446
16603TIP3    H171300   4.255   3.232  17.009  0.4036 -0.6884  0.1355
16603TIP3    H271301   4.180   3.226  16.878  0.1113  2.5116  0.0841
16604TIP3   OH271302   0.061   4.138   0.900 -0.5748  0.4131 -0.2862
16604TIP3    H171303   0.153   4.163   0.905 -0.3200 -0.2361 -1.4782
16604TIP3    H271304   0.045   4.122   0.807 -2.0383  1.0512 -0.1660
16605TIP3   OH271305   6.235   3.984   1.553 -0.4291 -0.1287 -0.0108
16605TIP3    H171306   6.237   3.923   1.479  1.2337 -1.2347  0.8788
16605TIP3    H271307   6.197   3.932   1.625  1.1863 -0.2203  0.8088
16606TIP3   OH271308   5.085   1.421  12.260 -0.2041  0.1400  0.8341
16606TIP3    H171309   5.023   1.354  12.231 -0.2989  1.0493 -1.1706
16606TIP3    H271310   5.168   1.374  12.267 -0.1683 -0.1234 -1.0138
16607TIP3   OH271311   3.346   0.266   6.234 -0.0875  0.1895 -0.0267
16607TIP3    H171312   3.269   0.314   6.264 -0.8712 -1.7082  1.2130
16607TIP3    H271313   3.311   0.199   6.176  0.6786 -0.3508  0.1175
16608TIP3   OH271314   2.259   3.061  15.889  0.3292  0.3060 -0.4502
16608TIP3    H171315   2.267   3.122  15.815  0.4053 -0.2295 -0.8871
16608TIP3    H271316   2.342   3.013  15.890  0.9763  1.3809  0.9620
16609TIP3   OH271317   2.776   2.353   1.477 -0.2674 -0.2141 -0.0582
16609TIP3    H171318   2.729   2.278   1.512  0.8465 -0.9946 -0.1674
16609TIP3    H271319   2.817   2.394   1.554  3.1132 -2.5782 -0.3512
16610TIP3   OH271320   6.708   1.848   6.224  0.1239 -0.7339  0.7209
16610TIP3    H171321   6.715   1.937   6.190 -0.0961 -0.0834  2.2917
16610TIP3    H271322   6.659   1.801   6.158  2.1036 -0.2799 -1.1751
16611TIP3   OH271323   4.177   0.653  12.015 -0.0637 -0.1839 -0.0967
16611TIP3    H171324   4.177   0.743  12.048 -1.1623 -0.4274  0.6251
16611TIP3    H271325   4.145   0.661  11.925 -1.2592  0.0548  0.3253
16612TIP3   OH271326   6.397   5.719  14.194 -0.0243 -0.0274 -0.0370
16612TIP3    H171327   6.328   5.775  14.228  1.5883  1.3544  1.0745
16612TIP3    H271328   6.456   5.705  14.268  2.2184  0.9353 -1.5473
16613TIP3   OH271329   4.183   6.079  11.782 -0.1400 -0.1394 -0.2294
16613TIP3    H171330   4.156   6.135  11.709  1.9291 -0.6957 -1.4825
16613TIP3    H271331   4.256   6.126  11.823 -1.0984  0.0359  1.3671
16614TIP3   OH271332   6.709   1.898  14.662  0.0363  0.2933  0.5408
16614TIP3    H171333   6.748   1.814  14.640 -2.2294 -0.7492  0.1687
16614TIP3    H271334   6.655   1.880  14.740 -0.3443  1.4413  0.5677
16615TIP3   OH271335   3.670   0.668   2.072  0.7858 -0.0417  0.0432
16615TIP3    H171336   3.729   0.638   2.142  0.9230 -0.9753 -0.4625
16615TIP3    H271337   3.724   0.670   1.994 -0.1101 -2.2042 -0.7195
16616TIP3   OH271338   3.645   6.261   5.215 -0.0909 -0.8298  0.7231
16616TIP3    H171339   3.631   6.288   5.306  0.1871  1.7956  0.0871
16616TIP3    H271340   3.565   6.213   5.193 -1.5281  0.9923  1.5597
16617TIP3   OH271341   4.547   2.957  14.610 -0.2664 -0.0958 -0.0621
16617TIP3    H171342   4.579   2.952  14.700 -3.1715 -1.2651  1.0183
16617TIP3    H271343   4.542   2.867  14.580  1.5868  0.3233 -1.8306
16618TIP3   OH271344   2.758   0.736  10.756 -0.1205 -0.1468  0.3684
16618TIP3    H171345   2.806   0.669  10.707 -1.1500 -0.6063 -0.0496
16618TIP3    H271346   2.704   0.686  10.818 -1.6038  0.2152 -0.5851
16619TIP3   OH271347   2.077   4.658   1.974  0.3270  0.0098  0.3242
16619TIP3    H171348   2.137   4.619   1.911 -0.5430 -0.4307 -0.2547
16619TIP3    H271349   2.080   4.601   2.050  0.1458 -0.3910  0.0350
16620TIP3   OH271350   3.708   5.812   4.974  0.1607 -0.3274  0.3726
16620TIP3    H171351   3.660   5.860   5.041  0.4618  1.8141 -0.8581
16620TIP3    H271352   3.678   5.849   4.891  3.1293  0.4441 -0.4907
16621TIP3   OH271353   1.463   4.918   0.786  0.0314 -0.7275  0.5622
16621TIP3    H171354   1.462   4.931   0.691  1.0365  1.5760  0.8006
16621TIP3    H271355   1.371   4.918   0.811 -0.3170 -2.6276 -0.5020
16622TIP3   OH271356   1.955   3.450  15.071 -0.1905  0.2298 -0.9645
16622TIP3    H171357   2.013   3.387  15.115 -1.9720 -0.2840  0.7990
16622TIP3    H271358   2.006   3.481  14.997  1.9424 -0.9512 -0.0940
16623TIP3   OH271359   3.833   5.969  10.737 -0.2738 -0.3173 -0.0239
16623TIP3    H171360   3.758   5.944  10.683  0.1101 -1.0695 -0.2210
16623TIP3    H271361   3.910   5.942  10.686  0.1931  1.5861 -0.4087
16624TIP3   OH271362   3.298   5.573   0.286 -0.9798 -0.2823 -0.3072
16624TIP3    H171363   3.332   5.573   0.197 -0.1309 -1.2678  0.0045
16624TIP3    H271364   3.205   5.552   0.277 -0.8709 -0.4875 -0.9477
16625TIP3   OH271365   3.426   1.687   2.618 -0.6336  0.3763  0.2217
16625TIP3    H171366   3.423   1.727   2.530 -1.5554  2.2069  1.0199
16625TIP3    H271367   3.436   1.762   2.677  0.6750 -0.8848  1.6673
16626TIP3   OH271368   4.076   1.637  14.445 -0.1292 -0.6049  0.2112
16626TIP3    H171369   4.158   1.593  14.424 -0.0202 -0.6679  0.7518
16626TIP3    H271370   4.034   1.579  14.509 -0.1916 -0.1470  0.5899
16627TIP3   OH271371   0.791   5.768   5.738 -0.0463  0.2169 -0.1620
16627TIP3    H171372   0.808   5.680   5.769  0.8281  0.2907 -0.4029
16627TIP3    H271373   0.749   5.756   5.652  0.9999  0.0269 -0.6633
16628TIP3   OH271374   0.806   0.379  13.419  0.3452 -0.4097 -0.5909
16628TIP3    H171375   0.778   0.360  13.509  1.7694  0.8723  0.1845
16628TIP3    H271376   0.879   0.318  13.404  2.1164  1.3562  0.3234
16629TIP3   OH271377   6.425   5.561   5.597  0.3386  0.5133 -0.1884
16629TIP3    H171378   6.520   5.552   5.594  0.4028  1.3227 -1.9224
16629TIP3    H271379   6.397   5.498   5.664  1.8829 -1.5552 -1.3763
16630TIP3   OH271380   0.791   1.644  14.542  0.3806 -0.2971  0.1691
16630TIP3    H171381   0.762   1.731  14.513  2.7286 -0.0016 -1.5672
16630TIP3    H271382   0.849   1.663  14.616 -0.4019 -0.5530  0.8635
16631TIP3   OH271383   3.639   1.095  14.083  0.8341  0.4250 -0.0506
16631TIP3    H171384   3.561   1.040  14.092  0.5488  0.4644 -1.8537
16631TIP3    H271385   3.604   1.184  14.071  1.1815  0.5745  0.0446
16632TIP3   OH271386   4.208   5.853  16.892  0.1017 -0.3002 -0.4468
16632TIP3    H171387   4.236   5.925  16.949 -1.8863  0.1858  0.0058
16632TIP3    H271388   4.285   5.796  16.885  1.3070  1.1710  0.2813
16633TIP3   OH271389   1.220   2.885   0.287  0.1092 -0.2430  0.2769
16633TIP3    H171390   1.133   2.870   0.249  0.6688 -0.9689 -0.8029
16633TIP3    H271391   1.238   2.977   0.271  1.5661 -1.0357 -4.2314
16634TIP3   OH271392   4.594   2.963  16.671  0.0344  0.4020 -0.2076
16634TIP3    H171393   4.545   3.040  16.640  2.0510  0.5893 -3.3854
16634TIP3    H271394   4.529   2.893  16.672 -1.6053  1.8205  1.6826
16635TIP3   OH271395   5.177   6.032  11.022  0.3113 -0.2877  0.2192
16635TIP3    H171396   5.250   5.983  11.061  0.2169 -1.0809 -0.5583
16635TIP3    H271397   5.219   6.105  10.977  0.7267 -1.2067 -0.9322
16636TIP3   OH271398   0.857   6.067   5.093 -0.3380  0.7153  0.1359
16636TIP3    H171399   0.763   6.055   5.104 -0.1608 -0.3347  0.6903
16636TIP3    H271400   0.884   6.120   5.168 -0.6999  2.3295 -0.8311
16637TIP3   OH271401   4.831   0.673  13.868  0.6091 -0.0085 -0.4149
16637TIP3    H171402   4.875   0.738  13.813 -0.6161 -0.2404 -1.7239
16637TIP3    H271403   4.744   0.662  13.829 -0.1348 -0.5771  1.2739
16638TIP3   OH271404   5.932   3.564   6.162  0.3310 -0.5569 -0.2598
16638TIP3    H171405   5.927   3.477   6.124  1.5365 -1.0535  0.6619
16638TIP3    H271406   6.026   3.586   6.160  0.4110 -0.4532  2.0374
16639TIP3   OH271407   5.765   4.386   6.097 -0.3757  0.4363 -0.2635
16639TIP3    H171408   5.852   4.363   6.128 -0.1135 -0.2676 -1.4460
16639TIP3    H271409   5.776   4.471   6.054  0.1877 -0.4868 -2.0894
16640TIP3   OH271410   3.178   4.510  15.342  0.2908  0.3729 -0.1076
16640TIP3    H171411   3.139   4.596  15.359  0.4706  0.5838 -0.7143
16640TIP3    H271412   3.263   4.512  15.385  0.8173  0.9627 -1.1393
16641TIP3   OH271413   0.181   5.750   5.724 -0.4805  0.2587  0.1726
16641TIP3    H171414   0.256   5.782   5.773 -0.0939 -0.9189  0.3694
16641TIP3    H271415   0.113   5.817   5.738  0.1623  0.7738  0.9125
16642TIP3   OH271416   3.673   3.017  10.891  0.5868  0.0297 -0.1269
16642TIP3    H171417   3.716   3.102  10.896 -0.6593  0.6967 -0.4757
16642TIP3    H271418   3.663   2.990  10.983  0.6247  0.4425 -0.0003
16643TIP3   OH271419   0.819   3.282  14.678  0.2858  0.3414  0.1976
16643TIP3    H171420   0.820   3.377  14.692  1.1492  0.3082  0.4229
16643TIP3    H271421   0.900   3.264  14.629 -0.9660 -0.0005 -1.8429
16644TIP3   OH271422   2.878   4.913  15.588  0.0589  0.3019  0.4876
16644TIP3    H171423   2.788   4.928  15.615 -0.1592 -1.5126  0.9086
16644TIP3    H271424   2.929   4.918  15.670  0.6363  2.8572  0.0716
16645TIP3   OH271425   0.495   1.280  16.966 -0.2204  0.5361 -0.0027
16645TIP3    H171426   0.479   1.266  17.059 -1.0066 -2.0955 -0.4303
16645TIP3    H271427   0.588   1.301  16.959 -0.6277  3.2821  1.5065
16646TIP3   OH271428   4.265   6.789  11.475  0.6436  0.0872  0.1564
16646TIP3    H171429   4.189   6.749  11.432  1.7469 -1.0764 -0.7928
16646TIP3    H271430   4.250   6.883  11.466 -0.1496 -0.1207 -1.0229
16647TIP3   OH271431   4.221   5.952  16.381 -0.3280  0.6459  0.3021
16647TIP3    H171432   4.315   5.938  16.391  0.0013  2.2947 -0.1644
16647TIP3    H271433   4.183   5.917  16.461  0.7081  0.2067  0.6234
16648TIP3   OH271434   4.106   0.695   2.223 -0.6781  0.1975  0.6124
16648TIP3    H171435   4.194   0.687   2.187 -0.8057 -0.5794  0.4664
16648TIP3    H271436   4.049   0.699   2.147 -0.8021  0.3883  0.7120
16649TIP3   OH271437   6.201   0.181   4.672 -0.1128  0.2467 -0.1227
16649TIP3    H171438   6.285   0.200   4.715 -0.7053 -1.4675  2.0030
16649TIP3    H271439   6.146   0.256   4.693 -0.1932 -0.2703  1.7014
16650TIP3   OH271440   2.880   2.203  14.450  0.1322 -0.1996 -0.2737
16650TIP3    H171441   2.878   2.167  14.362 -0.0920 -0.1490 -0.2898
16650TIP3    H271442   2.808   2.161  14.495  0.4966 -0.5294  0.0073
16651TIP3   OH271443   5.981   0.010  10.997 -0.3548 -0.2529 -0.2796
16651TIP3    H171444   6.043  -0.050  11.039 -1.9411 -1.4390  0.4862
16651TIP3    H271445   6.036   0.068  10.944  1.5599 -0.1409  1.6663
16652TIP3   OH271446   0.182   2.616   1.822  0.8273 -0.3421 -0.9812
16652TIP3    H171447   0.094   2.649   1.805 -0.8637 -2.9814  1.6123
16652TIP3    H271448   0.234   2.693   1.841 -0.6775  1.3652 -3.2312
16653TIP3   OH271449   3.274   4.036  11.199  0.1473 -0.1845  0.1666
16653TIP3    H171450   3.194   3.991  11.227  0.3805  0.0705  1.2832
16653TIP3    H271451   3.314   4.067  11.280  0.7607  0.7510 -0.4729
16654TIP3   OH271452   1.346   5.469   2.010 -0.1342  0.0931 -0.0807
16654TIP3    H171453   1.324   5.558   2.040  0.0777  0.0220  0.2914
16654TIP3    H271454   1.440   5.472   1.994 -0.0876 -0.1258  0.1483
16655TIP3   OH271455   3.971   5.750  13.341 -0.6295 -0.2025  0.1773
16655TIP3    H171456   3.970   5.839  13.376  1.1823 -0.0099 -0.1494
16655TIP3    H271457   3.978   5.694  13.418  0.1350  0.0593  0.3159
16656TIP3   OH271458   4.061   3.354   3.326 -0.0958  0.3256  0.1907
16656TIP3    H171459   4.154   3.364   3.305 -0.2921  1.2238 -0.3189
16656TIP3    H271460   4.055   3.385   3.417  0.2828 -0.8545  0.6370
16657TIP3   OH271461   1.885   4.086   0.626  0.4011 -0.2371 -0.6930
16657TIP3    H171462   1.794   4.113   0.637  0.1929 -0.9283 -0.6883
16657TIP3    H271463   1.923   4.094   0.713  0.9940  2.2966 -1.1035
16658TIP3   OH271464   2.644   6.614  13.465 -0.7643  0.1681 -0.6217
16658TIP3    H171465   2.626   6.668  13.389 -2.0667  0.0967 -0.3885
16658TIP3    H271466   2.558   6.597  13.504 -0.2000 -0.4192  0.4351
16659TIP3   OH271467   5.852   1.561   1.593 -0.2433 -0.4047  0.3946
16659TIP3    H171468   5.803   1.542   1.513 -0.9753  0.2796  0.6682
16659TIP3    H271469   5.794   1.616   1.645  0.4656 -0.3245  1.1316
16660TIP3   OH271470   2.665   1.014  13.944  0.4013  0.1910 -0.8215
16660TIP3    H171471   2.585   0.965  13.929 -1.1524  2.2942 -0.0178
16660TIP3    H271472   2.659   1.041  14.036  1.9212  0.5934 -0.8106
16661TIP3   OH271473   6.724   4.548   2.532  0.0387  0.2204 -0.3287
16661TIP3    H171474   6.743   4.480   2.467 -2.4089 -1.8030  0.9032
16661TIP3    H271475   6.649   4.595   2.497  0.5032  1.0430 -0.2548
16662TIP3   OH271476   1.488   4.850   3.413 -0.3142 -0.1067  0.1986
16662TIP3    H171477   1.472   4.919   3.348 -2.6012  0.0717  0.8458
16662TIP3    H271478   1.543   4.891   3.479 -0.3380  0.6148 -0.2218
16663TIP3   OH271479   5.659   1.394   3.707 -0.4546 -0.7396 -0.0696
16663TIP3    H171480   5.635   1.309   3.670 -0.9566 -0.6421  0.0216
16663TIP3    H271481   5.661   1.379   3.802 -0.6000 -0.6359 -0.0500
16664TIP3   OH271482   5.896   1.406  15.614 -0.5334 -0.0635  0.6033
16664TIP3    H171483   5.803   1.398  15.636 -0.5555 -1.1839  0.1461
16664TIP3    H271484   5.936   1.328  15.650 -0.1758 -0.7647 -1.2124
16665TIP3   OH271485   5.122   6.060  16.527  0.1687  0.3838 -0.1459
16665TIP3    H171486   5.054   6.040  16.462  0.3722 -2.6111  0.4302
16665TIP3    H271487   5.085   6.131  16.579 -1.3405  0.7039 -1.5565
16666TIP3   OH271488   0.461   1.879   6.377 -0.0378  0.4406  0.5927
16666TIP3    H171489   0.508   1.950   6.422  0.1375  0.0741  0.9900
16666TIP3    H271490   0.368   1.897   6.395 -0.0514  1.0451 -0.0172
16667TIP3   OH271491   6.137   2.194   1.836  0.6514 -0.5776 -0.1549
16667TIP3    H171492   6.213   2.250   1.821  1.7570 -2.0394 -0.2797
16667TIP3    H271493   6.174   2.107   1.853 -0.9811 -1.2434  0.2496
16668TIP3   OH271494   0.310   4.192  15.147 -0.5047 -0.3699  0.2747
16668TIP3    H171495   0.341   4.138  15.074 -0.6082 -0.8496  0.5819
16668TIP3    H271496   0.278   4.272  15.106 -1.9445 -1.2336 -0.3655
16669TIP3   OH271497   2.611   2.785  16.543  0.1454 -0.0158 -0.5512
16669TIP3    H171498   2.522   2.754  16.557 -0.3719  1.1963 -1.0220
16669TIP3    H271499   2.638   2.821  16.627 -0.2626  0.6922 -0.7159
16670TIP3   OH271500   2.717   0.403   2.619  0.5456 -0.1099 -0.0709
16670TIP3    H171501   2.655   0.474   2.632  1.7169  0.9946 -0.2965
16670TIP3    H271502   2.663   0.325   2.604 -0.7560  0.8509 -0.4736
16671TIP3   OH271503   1.205   1.721  14.933 -0.2178 -0.2295  0.1832
16671TIP3    H171504   1.172   1.722  15.023 -0.8001 -2.5449  0.0624
16671TIP3    H271505   1.225   1.629  14.916  3.2925  0.5805 -0.8926
16672TIP3   OH271506   2.500   1.686  14.463 -0.1846  0.0390 -0.6298
16672TIP3    H171507   2.416   1.732  14.469  0.3666  0.9628  0.9318
16672TIP3    H271508   2.499   1.625  14.537  0.1733 -0.5828 -1.1274
16673TIP3   OH271509   5.493   6.099  11.524 -0.1029 -0.3812  0.3702
16673TIP3    H171510   5.574   6.128  11.481 -0.3823 -0.9143 -0.5319
16673TIP3    H271511   5.454   6.037  11.463 -0.3605 -1.4144  1.5335
16674TIP3   OH271512   1.170   2.852   3.038 -0.0841 -0.1286  0.2593
16674TIP3    H171513   1.243   2.907   3.065  0.3472  0.8126 -2.4861
16674TIP3    H271514   1.103   2.913   3.009 -1.2332 -1.0220  0.9463
16675TIP3   OH271515   6.615   2.885  12.769 -0.7140 -0.1013  0.2688
16675TIP3    H171516   6.524   2.869  12.744 -0.8995 -1.0289  1.4042
16675TIP3    H271517   6.609   2.932  12.853 -0.1934 -1.3242  1.0275
16676TIP3   OH271518   5.750   1.595   1.051 -0.3211  0.2315 -0.2541
16676TIP3    H171519   5.804   1.609   1.129  0.3724 -0.5514 -0.5736
16676TIP3    H271520   5.744   1.681   1.010 -1.1909  0.7675  0.9651
16677TIP3   OH271521   5.959   1.221   3.932  0.2389  0.0177  0.0016
16677TIP3    H171522   5.961   1.143   3.988 -2.0406  0.2203  0.4449
16677TIP3    H271523   5.926   1.191   3.848 -0.7599  0.5054  0.2082
16678TIP3   OH271524   6.330   6.043   5.514  0.1179  0.1859 -0.1468
16678TIP3    H171525   6.276   6.090   5.451 -4.1729 -1.8782  1.6286
16678TIP3    H271526   6.325   5.951   5.486  0.8853 -0.3462  1.3598
16679TIP3   OH271527   6.144   5.098   1.071 -0.3417  0.1682  0.6095
16679TIP3    H171528   6.167   5.021   1.019 -0.2033  0.6205 -0.0250
16679TIP3    H271529   6.106   5.159   1.007 -1.3503  0.2511  1.2772
16680TIP3   OH271530   2.744   2.710  11.218 -0.3336 -0.0519  0.4594
16680TIP3    H171531   2.791   2.629  11.198 -1.6315 -0.4220 -1.4082
16680TIP3    H271532   2.798   2.779  11.180 -1.5640 -0.5465 -2.4517
16681TIP3   OH271533   2.213   4.858  11.577 -0.3602 -0.0422 -0.3460
16681TIP3    H171534   2.157   4.814  11.513  0.1858  1.2614 -1.7735
16681TIP3    H271535   2.155   4.877  11.651 -1.0539 -1.3815 -0.5194
16682TIP3   OH271536   4.325   4.710   1.051  0.0706 -0.8167  0.0085
16682TIP3    H171537   4.363   4.742   0.969 -1.3656 -1.0248 -0.7749
16682TIP3    H271538   4.357   4.621   1.060  1.3419 -0.3332  0.4080
16683TIP3   OH271539   5.459   3.996   6.104 -0.5329  0.0408 -0.3345
16683TIP3    H171540   5.491   3.908   6.122 -1.7404 -0.6114 -1.2429
16683TIP3    H271541   5.425   4.027   6.188  0.0768 -0.2534  0.0335
16684TIP3   OH271542   3.799   5.580   3.894 -0.0973  0.3653  0.3426
16684TIP3    H171543   3.780   5.658   3.843  1.0116  0.1961 -0.3731
16684TIP3    H271544   3.818   5.613   3.982 -0.9538  0.7601  0.3903
16685TIP3   OH271545   3.457   3.349   3.400 -0.2668  0.5010  0.0254
16685TIP3    H171546   3.464   3.407   3.324 -0.4936  1.9688  1.0640
16685TIP3    H271547   3.489   3.403   3.473 -1.0046 -0.5087  1.1256
16686TIP3   OH271548   0.732   3.839   0.671  0.0576 -0.2034  0.1500
16686TIP3    H171549   0.768   3.918   0.712  2.4087 -1.0097 -0.1823
16686TIP3    H271550   0.808   3.780   0.663 -0.7534 -0.9952 -3.1903
16687TIP3   OH271551   1.044   0.862   1.151 -0.0759 -0.5394  0.3899
16687TIP3    H171552   1.052   0.822   1.065 -1.2477  2.3203 -1.2031
16687TIP3    H271553   0.962   0.828   1.186 -0.2817 -0.7089 -0.2456
16688TIP3   OH271554   4.201   0.615   4.490  0.1363 -0.4031 -0.0296
16688TIP3    H171555   4.217   0.644   4.400  0.5257  0.0004  0.1662
16688TIP3    H271556   4.153   0.533   4.480 -1.3679  0.4941 -0.5958
16689TIP3   OH271557   4.312   0.214   5.782 -0.5795 -0.1347  0.0194
16689TIP3    H171558   4.295   0.122   5.763  0.2486 -0.3141  0.1050
16689TIP3    H271559   4.259   0.233   5.859  0.2314 -0.9067  0.7938
16690TIP3   OH271560   5.686   0.920  11.543 -0.2128  0.7055  0.3639
16690TIP3    H171561   5.768   0.890  11.504  0.1784 -0.7307  2.1818
16690TIP3    H271562   5.684   1.014  11.524  1.2874  0.5706 -0.6535
16691TIP3   OH271563   6.403   6.724  12.145 -0.2401 -0.1059 -0.3083
16691TIP3    H171564   6.369   6.695  12.060  0.2511  0.4246 -0.6925
16691TIP3    H271565   6.411   6.643  12.196 -1.7446 -0.2794 -0.3216
16692TIP3   OH271566   3.938   4.960   0.033  1.0622 -0.3690  0.2454
16692TIP3    H171567   3.865   5.013   0.064  0.2392 -0.2931 -1.7241
16692TIP3    H271568   4.006   5.024   0.011  0.3184 -0.1086 -1.4719
16693TIP3   OH271569   0.297   2.764  11.293  0.5106 -0.1138  0.1208
16693TIP3    H171570   0.328   2.747  11.382  1.6565  0.3532 -0.1583
16693TIP3    H271571   0.365   2.821  11.255 -0.3274  0.2915 -0.8085
16694TIP3   OH271572   0.545   1.057   5.287 -0.4548  0.8801  0.5143
16694TIP3    H171573   0.532   1.120   5.216 -0.8706 -1.1760 -1.3420
16694TIP3    H271574   0.456   1.027   5.307 -0.0780 -1.8858 -1.3945
16695TIP3   OH271575   6.006   3.694   0.638 -0.3927  0.3352 -0.0653
16695TIP3    H171576   6.049   3.777   0.619 -1.0782  0.5652 -0.6744
16695TIP3    H271577   6.034   3.635   0.568 -1.3305  0.5960 -0.6874
16696TIP3   OH271578   6.506   6.343  16.880 -0.5001 -0.3751  0.0672
16696TIP3    H171579   6.425   6.353  16.830  0.0926 -0.6881 -0.9866
16696TIP3    H271580   6.570   6.313  16.816  0.1168 -1.4954  1.1647
16697TIP3   OH271581   3.935   4.598   0.516  0.3812 -0.1883  0.0136
16697TIP3    H171582   3.845   4.630   0.520  1.3684  2.9246  0.2838
16697TIP3    H271583   3.954   4.570   0.605 -0.7149 -2.2918 -0.3615
16698TIP3   OH271584   2.704   4.218   0.730  0.7662  0.2217  0.3761
16698TIP3    H171585   2.719   4.129   0.699  0.5572 -0.1502  1.2865
16698TIP3    H271586   2.622   4.212   0.779  2.4258  0.1033  3.3756
16699TIP3   OH271587   5.713   1.015   0.601  0.2685 -0.6033 -0.7677
16699TIP3    H171588   5.670   1.037   0.518 -0.3108 -0.5911 -0.4708
16699TIP3    H271589   5.754   1.097   0.629  3.0070 -1.2369 -2.4655
16700TIP3   OH271590   4.424   4.038   4.084 -0.0294 -0.2467 -1.0704
16700TIP3    H171591   4.435   4.003   4.172  1.2121 -1.5339 -1.7079
16700TIP3    H271592   4.342   3.999   4.052 -0.7377  0.5994 -0.3494
16701TIP3   OH271593   5.712   0.715  17.182  0.3819  0.2087 -0.5321
16701TIP3    H171594   5.706   0.630  17.137  1.5344 -0.0370 -0.2510
16701TIP3    H271595   5.625   0.754  17.170 -0.1577 -0.9845 -0.7133
16702TIP3   OH271596   4.342   2.529   1.281 -0.2181 -0.3336  0.7200
16702TIP3    H171597   4.281   2.569   1.219 -0.0661  0.8178  1.2747
16702TIP3    H271598   4.352   2.595   1.350  1.9117 -0.3239  0.4654
16703TIP3   OH271599   4.669   3.388   4.004  0.1087  0.1050 -0.1999
16703TIP3    H171600   4.699   3.308   4.047  1.1123 -0.0390 -1.1101
16703TIP3    H271601   4.625   3.357   3.925 -0.2232  0.4172 -0.1371
16704TIP3   OH271602   5.615   5.225   0.502 -0.9782  0.4067 -0.8055
16704TIP3    H171603   5.604   5.151   0.443  1.0482  1.4644 -2.6700
16704TIP3    H271604   5.691   5.202   0.556 -1.0233  0.6676 -0.6276
16705TIP3   OH271605   5.309   0.868  13.229  0.6477 -0.2553  0.0304
16705TIP3    H171606   5.300   0.815  13.150 -0.3163 -0.6454  0.3851
16705TIP3    H271607   5.247   0.829  13.291 -0.7453  1.8170  0.0178
16706TIP3   OH271608   0.269   6.600  17.249  0.2449  0.1278 -0.0913
16706TIP3    H171609   0.287   6.554  17.332  0.4459  0.2701 -0.0527
16706TIP3    H271610   0.231   6.684  17.276 -1.1813 -0.4576 -0.1900
16707TIP3   OH271611   3.354   0.034  14.334  0.0657 -0.1785  0.4997
16707TIP3    H171612   3.383   0.039  14.425  2.2574 -2.6414  0.0597
16707TIP3    H271613   3.428  -0.004  14.287  0.0057  3.2538 -2.8603
16708TIP3   OH271614   3.127   0.998  15.000 -0.3724  0.2061 -0.0877
16708TIP3    H171615   3.117   1.092  14.986 -0.6889  0.0681 -0.8201
16708TIP3    H271616   3.201   0.973  14.944  0.8651  0.3060  1.4131
16709TIP3   OH271617   4.537   6.521  10.964 -0.4302  0.2076 -0.4246
16709TIP3    H171618   4.492   6.438  10.979 -0.9318  0.3184 -1.2255
16709TIP3    H271619   4.472   6.575  10.919  0.1764  0.7332 -0.6813
16710TIP3   OH271620   3.571   6.369   1.894 -0.1838  0.3060  0.3622
16710TIP3    H171621   3.632   6.295   1.897 -0.5173  0.0229  0.1506
16710TIP3    H271622   3.583   6.413   1.979  2.2279  1.7984 -0.6306
16711TIP3   OH271623   2.814   6.716   0.993  0.5339 -0.3462  0.1062
16711TIP3    H171624   2.852   6.769   0.923 -0.1284 -1.0527 -0.8329
16711TIP3    H271625   2.888   6.670   1.032  0.7372 -1.7145 -1.6976
16712TIP3   OH271626   5.649   6.524   3.636  0.5269  0.4181 -0.6868
16712TIP3    H171627   5.694   6.591   3.688  0.1556  0.1295  0.0217
16712TIP3    H271628   5.559   6.526   3.668  0.7423 -1.1701  0.1380
16713TIP3   OH271629   3.599   3.161  11.547 -0.3046  0.3933  0.4981
16713TIP3    H171630   3.652   3.158  11.467  1.5519  0.8548  1.6358
16713TIP3    H271631   3.512   3.185  11.516 -0.6859 -3.1254 -1.7888
16714TIP3   OH271632   2.411   0.364   2.767 -0.1950  0.0391  0.2269
16714TIP3    H171633   2.411   0.456   2.741  1.0290 -0.0367 -0.0834
16714TIP3    H271634   2.390   0.366   2.861 -0.3096  0.6221  0.1945
16715TIP3   OH271635   3.823   3.718  14.718  0.1932 -0.0074 -0.2624
16715TIP3    H171636   3.761   3.788  14.740 -0.6255 -0.6401 -0.5183
16715TIP3    H271637   3.837   3.727  14.624 -2.8482 -2.4181 -1.1254
16716TIP3   OH271638   5.690   5.685  10.345 -0.0794  0.6550  0.0203
16716TIP3    H171639   5.671   5.777  10.325 -0.1768  0.9264  1.2893
16716TIP3    H271640   5.767   5.688  10.401  0.1180 -0.0664 -0.2048
16717TIP3   OH271641   6.081   4.674  12.182 -0.2860  0.5404  0.4334
16717TIP3    H171642   6.062   4.611  12.252  0.3041 -1.4138 -1.0874
16717TIP3    H271643   6.021   4.747  12.200 -0.7765 -0.2657  2.4555
16718TIP3   OH271644   3.759   4.870  16.306  0.2202  0.2129 -0.4472
16718TIP3    H171645   3.709   4.788  16.307  3.1266 -1.7331  1.8907
16718TIP3    H271646   3.733   4.914  16.387  2.6096 -1.1639  1.1692
16719TIP3   OH271647   5.952   5.171   3.484 -0.1565  0.2108  0.7254
16719TIP3    H171648   5.958   5.081   3.518  0.6645 -0.0616 -0.0907
16719TIP3    H271649   5.859   5.184   3.467 -0.3580 -0.2729  1.3915
16720TIP3   OH271650   1.707   0.664   6.116  0.1366  0.3004  0.0957
16720TIP3    H171651   1.802   0.669   6.108  0.1436  2.5024  0.8500
16720TIP3    H271652   1.690   0.676   6.209 -0.9187  1.3280 -0.2005
16721TIP3   OH271653   0.320   3.450   3.195  0.5702 -0.7724  0.1725
16721TIP3    H171654   0.388   3.456   3.262  1.1318 -0.4967 -0.4096
16721TIP3    H271655   0.266   3.527   3.210  0.0152 -1.3120  1.0224
16722TIP3   OH271656   4.073   5.682  15.237  0.4232  0.2473  0.7025
16722TIP3    H171657   4.148   5.633  15.272 -0.1784 -1.8015 -0.6603
16722TIP3    H271658   4.009   5.680  15.308  1.0877  0.7184  1.3395
16723TIP3   OH271659   5.612   3.691  15.188  0.7209 -0.2503 -0.0747
16723TIP3    H171660   5.640   3.774  15.149  1.3957  1.4286  3.5404
16723TIP3    H271661   5.540   3.661  15.133  1.9351  1.5203 -2.8226
16724TIP3   OH271662   4.407   3.188   6.580  0.3035  0.0830  0.5820
16724TIP3    H171663   4.327   3.140   6.599  0.0500 -0.8334 -2.3035
16724TIP3    H271664   4.378   3.270   6.540  0.7680 -0.0587 -0.0754
16725TIP3   OH271665   1.298   4.798  15.193 -0.3216  0.3934 -0.7059
16725TIP3    H171666   1.248   4.870  15.232  0.0922  0.6555 -0.6478
16725TIP3    H271667   1.246   4.720  15.212 -0.2417  0.5446  0.1870
16726TIP3   OH271668   2.021   1.318  14.515 -0.7337 -0.1403 -0.1809
16726TIP3    H171669   1.936   1.333  14.472 -1.2090  1.4921  1.1956
16726TIP3    H271670   2.082   1.376  14.469 -0.7855  0.0584 -0.0029
16727TIP3   OH271671   4.535   4.493   1.551  0.2348 -0.1011 -0.5732
16727TIP3    H171672   4.522   4.531   1.637 -0.8887 -1.2690 -0.2074
16727TIP3    H271673   4.623   4.455   1.554  1.1042  1.7372 -0.7178
16728TIP3   OH271674   2.792   4.837  13.081 -0.2304  0.0864 -0.2130
16728TIP3    H171675   2.814   4.880  13.164  0.5582  1.0582 -0.9085
16728TIP3    H271676   2.861   4.863  13.021 -1.0399 -0.2331 -1.3224
16729TIP3   OH271677   0.571   1.025  13.381 -0.2651 -0.0594 -0.1869
16729TIP3    H171678   0.531   1.008  13.467  0.9961  0.5322  0.5519
16729TIP3    H271679   0.664   1.004  13.394 -0.3136 -1.6130 -1.9125
16730TIP3   OH271680   4.079   2.069   5.829  0.6322 -0.1153 -0.0129
16730TIP3    H171681   4.042   2.157   5.833 -1.6586 -1.0532  0.7142
16730TIP3    H271682   4.034   2.020   5.897  0.3401 -2.3791 -1.6987
16731TIP3   OH271683   2.473   4.841  11.815 -0.1962  0.2532  0.3314
16731TIP3    H171684   2.510   4.910  11.871  1.7634  0.7542 -1.4323
16731TIP3    H271685   2.529   4.841  11.738 -1.6228 -1.7219 -0.7912
16732TIP3   OH271686   6.443   4.669  12.292  0.2555  0.1903 -0.0504
16732TIP3    H171687   6.403   4.747  12.330  0.7363  0.3916  0.0473
16732TIP3    H271688   6.423   4.599  12.354  1.0595  0.5213  0.5980
16733TIP3   OH271689   2.938   0.557  13.879 -0.0124 -0.8627  0.5806
16733TIP3    H171690   3.029   0.584  13.891  0.2399 -0.8986 -0.9732
16733TIP3    H271691   2.930   0.543  13.784 -1.3425 -1.8970  0.8127
16734TIP3   OH271692   1.781   5.957  16.054  0.4058  0.5923  0.0200
16734TIP3    H171693   1.722   5.883  16.068 -0.5512  1.2119 -0.6095
16734TIP3    H271694   1.820   5.942  15.968  0.2404  0.7976 -0.0917
16735TIP3   OH271695   2.799   3.488   4.269 -0.4711 -0.4387  0.2769
16735TIP3    H171696   2.892   3.498   4.251 -0.8192  1.1248 -0.8562
16735TIP3    H271697   2.773   3.409   4.221  0.2701 -0.9433  0.6881
16736TIP3   OH271698   5.224   2.629  13.275  0.5073  0.2110 -0.0555
16736TIP3    H171699   5.282   2.650  13.349 -0.1009  0.4334  0.3609
16736TIP3    H271700   5.139   2.663  13.301  0.3287  0.4616 -0.9545
16737TIP3   OH271701   3.002   4.089   3.559  0.5542 -0.2645  0.2019
16737TIP3    H171702   3.002   4.185   3.559  2.1191 -0.2056 -2.2676
16737TIP3    H271703   2.919   4.066   3.601 -0.3282  2.1811 -0.0378
16738TIP3   OH271704   5.151   6.036   2.937  0.5780  0.1664 -0.1823
16738TIP3    H171705   5.084   5.987   2.889 -0.4296  2.6660 -1.4898
16738TIP3    H271706   5.213   6.065   2.870  2.5475 -1.2811  0.8882
16739TIP3   OH271707   2.652   0.474  10.508 -0.8827  0.0093  0.3762
16739TIP3    H171708   2.683   0.417  10.438 -0.7961  0.2434  0.2245
16739TIP3    H271709   2.623   0.553  10.464 -1.3265 -0.0510  0.5553
16740TIP3   OH271710   1.277   2.081   3.726  0.3908  0.3576 -0.3310
16740TIP3    H171711   1.346   2.139   3.758 -0.1238 -0.3232  2.2576
16740TIP3    H271712   1.196   2.118   3.760 -0.3016 -0.0423 -1.4988
16741TIP3   OH271713   4.193   6.172   1.778 -0.8236 -0.3222 -0.2418
16741TIP3    H171714   4.103   6.164   1.807 -0.8296 -1.9617 -0.6586
16741TIP3    H271715   4.245   6.167   1.859 -1.0096 -1.3744 -0.1861
16742TIP3   OH271716   4.084   3.102   2.715 -0.5399  0.4168 -0.7095
16742TIP3    H171717   4.114   3.183   2.755 -0.4984  0.1146 -0.1198
16742TIP3    H271718   4.020   3.067   2.776 -0.0361 -0.3516 -0.6029
16743TIP3   OH271719   2.337   5.345  14.670  0.3479  0.6156  0.4846
16743TIP3    H171720   2.275   5.294  14.619  1.2856 -1.0996  0.9601
16743TIP3    H271721   2.402   5.375  14.607  0.6961 -0.2387  0.4171
16744TIP3   OH271722   6.629   3.003   3.267  1.2385  0.4475 -0.0964
16744TIP3    H171723   6.567   2.934   3.291  1.1789  1.2146  2.1367
16744TIP3    H271724   6.697   2.958   3.217  1.4569 -1.3326  1.7223
16745TIP3   OH271725   2.532   5.420   4.052 -0.4455 -0.0353  0.0668
16745TIP3    H171726   2.611   5.428   4.105 -0.7256 -0.6708  0.5983
16745TIP3    H271727   2.506   5.510   4.034 -0.0956  0.1841  0.6359
16746TIP3   OH271728   0.607   1.441  14.096 -0.5090  0.2150 -0.4445
16746TIP3    H171729   0.573   1.527  14.072  0.1371  0.4466 -0.5490
16746TIP3    H271730   0.658   1.457  14.175 -1.0852 -0.2259  0.0301
16747TIP3   OH271731   4.973   6.148  13.611  0.3125 -0.3536 -0.0809
16747TIP3    H171732   4.924   6.174  13.689 -0.6075  1.3097 -1.1612
16747TIP3    H271733   4.936   6.063  13.587  1.5940 -1.6205  2.0446
16748TIP3   OH271734   0.532   1.177   0.423 -0.1092 -0.2258  0.2391
16748TIP3    H171735   0.539   1.109   0.489  0.9919 -0.7685 -0.3999
16748TIP3    H271736   0.518   1.130   0.341 -1.8211  0.4528  0.1100
16749TIP3   OH271737   3.997   3.078   3.340 -0.0111  0.0847 -0.0189
16749TIP3    H171738   3.960   3.069   3.428  1.8186 -1.9094  0.6552
16749TIP3    H271739   4.031   3.168   3.338  0.8843 -0.1525  1.7842
16750TIP3   OH271740   1.787   4.679   1.874 -0.0813 -0.4710  0.2670
16750TIP3    H171741   1.801   4.688   1.780  0.6906  1.0054  0.4939
16750TIP3    H271742   1.874   4.659   1.909 -0.2468 -0.3838  0.7329
16751TIP3   OH271743   6.393   1.085  16.514  0.2034  0.8346 -0.5370
16751TIP3    H171744   6.317   1.104  16.569 -0.6566 -3.1321 -0.0641
16751TIP3    H271745   6.466   1.080  16.576  0.0924  0.7828 -0.4079
16752TIP3   OH271746   1.542   6.386   1.368 -0.5936 -0.1835  0.4013
16752TIP3    H171747   1.632   6.390   1.400 -0.3408  0.4685 -0.3538
16752TIP3    H271748   1.549   6.346   1.281 -0.9439  0.5338  0.0360
16753TIP3   OH271749   0.481   4.704   0.233 -0.5749  0.1634 -0.6977
16753TIP3    H171750   0.564   4.730   0.194  0.7948 -1.9204  0.6227
16753TIP3    H271751   0.473   4.757   0.312  0.1540 -0.4769 -0.1776
16754TIP3   OH271752   4.685   0.563  16.708  0.2991 -0.5351 -0.1748
16754TIP3    H171753   4.625   0.612  16.765  1.1375  1.0123 -0.5466
16754TIP3    H271754   4.754   0.532  16.767 -0.6117 -1.9433  0.1819
16755TIP3   OH271755   6.348   1.010  14.288 -0.5762  0.0040  0.1064
16755TIP3    H171756   6.291   1.082  14.262 -0.8817 -0.5645 -0.8731
16755TIP3    H271757   6.289   0.935  14.299 -0.2102 -0.2076  0.6867
16756TIP3   OH271758   2.936   0.965  14.007 -0.2167  0.0103  0.4179
16756TIP3    H171759   2.926   1.020  14.085  0.1393 -2.3036  2.2381
16756TIP3    H271760   2.849   0.963  13.967 -0.4087  1.2513  0.7396
16757TIP3   OH271761   4.893   6.562  15.814  0.4686 -0.1041  0.3603
16757TIP3    H171762   4.801   6.539  15.801  1.1443 -4.4546  1.5954
16757TIP3    H271763   4.898   6.588  15.906  0.7786 -3.0831  1.3085
16758TIP3   OH271764   1.441   5.569  16.366  0.4215  0.0189 -0.0895
16758TIP3    H171765   1.446   5.600  16.456  1.5589  2.1625 -0.8148
16758TIP3    H271766   1.513   5.506  16.358  0.0104 -0.5576  0.5911
16759TIP3   OH271767   6.765   6.645   3.363  0.1416 -0.1321 -0.7012
16759TIP3    H171768   6.794   6.708   3.430 -0.5497 -0.7082  0.1581
16759TIP3    H271769   6.779   6.560   3.403 -1.0359 -0.4693 -0.9707
16760TIP3   OH271770   3.696   0.903   5.968 -0.5239 -0.1373 -0.5075
16760TIP3    H171771   3.622   0.913   6.029 -0.3875 -3.0114  0.2523
16760TIP3    H271772   3.774   0.910   6.023 -0.1626  1.9483 -1.1731
16761TIP3   OH271773   2.753   0.420  16.418 -0.1779 -0.2730  0.1173
16761TIP3    H171774   2.709   0.359  16.477 -1.5956 -0.9808 -1.5798
16761TIP3    H271775   2.722   0.507  16.447 -0.8180 -0.5990  0.4357
16762TIP3   OH271776   1.870   4.610   5.271 -0.8042  0.4215 -0.0966
16762TIP3    H171777   1.881   4.627   5.178 -0.9066 -2.3174 -0.6957
16762TIP3    H271778   1.951   4.643   5.311  0.2812 -0.4079 -1.4932
16763TIP3   OH271779   6.155   5.624   0.781  0.3015 -0.2281 -0.3300
16763TIP3    H171780   6.064   5.619   0.811  0.4242 -0.0427  0.0733
16763TIP3    H271781   6.153   5.688   0.710  0.7462  2.7203  2.1219
16764TIP3   OH271782   2.338   0.087   2.454 -0.0907  0.0611 -0.3029
16764TIP3    H171783   2.319   0.001   2.415  1.9767 -0.7161  0.2286
16764TIP3    H271784   2.356   0.144   2.379 -2.3191  0.3172 -0.7076
16765TIP3   OH271785   5.027   0.226  17.213 -0.1899  0.1763  0.4240
16765TIP3    H171786   4.943   0.181  17.216 -0.3717  0.5446  2.7901
16765TIP3    H271787   5.005   0.318  17.229  0.4359  0.7116 -1.5855
16766TIP3   OH271788   2.931   4.125  16.760 -0.5731 -0.1382 -0.3732
16766TIP3    H171789   2.845   4.149  16.796 -0.6518 -1.5264  0.4334
16766TIP3    H271790   2.994   4.163  16.821 -0.7066 -2.5688  1.4539
16767TIP3   OH271791   1.567   3.718   3.544  0.3615  0.0702 -0.3581
16767TIP3    H171792   1.598   3.798   3.587 -1.4357  0.2448  0.7256
16767TIP3    H271793   1.620   3.648   3.581 -0.2063  0.3986  1.1148
16768TIP3   OH271794   2.568   5.914   5.032  0.1223 -0.5982  0.5417
16768TIP3    H171795   2.491   5.948   5.077 -0.5630 -0.0579 -0.9525
16768TIP3    H271796   2.576   5.969   4.954  2.1201 -0.5590  0.7302
16769TIP3   OH271797   0.354   3.931   0.158 -0.0253  0.6173  0.3851
16769TIP3    H171798   0.418   4.001   0.169  0.5257  0.3639 -1.0586
16769TIP3    H271799   0.277   3.975   0.122  0.3746  0.4747 -0.6692
16770TIP3   OH271800   1.515   6.301   3.539  0.1143  0.4890  0.1913
16770TIP3    H171801   1.579   6.316   3.469  0.8031  0.2320  0.7540
16770TIP3    H271802   1.450   6.370   3.528 -0.9103 -0.7066 -1.9630
16771TIP3   OH271803   5.006   0.839   5.772 -0.0809 -0.2207 -0.4478
16771TIP3    H171804   4.946   0.849   5.699 -0.9910 -2.3312 -0.0827
16771TIP3    H271805   4.993   0.748   5.801  3.3192 -0.8327 -0.3765
16772TIP3   OH271806   4.983   3.596  15.556  0.2029 -1.1701  0.1800
16772TIP3    H171807   5.077   3.576  15.562  0.0055 -2.2420 -0.0001
16772TIP3    H271808   4.956   3.612  15.646  0.8225  0.5064  0.0933
16773TIP3   OH271809   2.176   5.218   4.133  0.2624 -0.4700  0.0519
16773TIP3    H171810   2.239   5.191   4.199  0.2396  0.2483  0.3753
16773TIP3    H271811   2.117   5.279   4.178  0.7620  0.7111 -0.8248
16774TIP3   OH271812   0.480   3.357   4.648  0.0685 -0.3067  0.2039
16774TIP3    H171813   0.455   3.417   4.578  0.6352  0.3502  0.5544
16774TIP3    H271814   0.570   3.334   4.629  0.0914 -0.4530  0.4864
16775TIP3   OH271815   5.059   0.891   3.739  0.3955  0.0816 -0.0360
16775TIP3    H171816   5.072   0.858   3.650 -1.0238 -0.4374 -0.0727
16775TIP3    H271817   5.121   0.842   3.793  0.1748 -0.7213 -0.5063
16776TIP3   OH271818   3.579   0.127   0.003  0.0142 -0.6516 -0.2623
16776TIP3    H171819   3.628   0.192   0.053 -0.5549  0.2796 -0.8902
16776TIP3    H271820   3.491   0.163  -0.005 -0.0903 -1.0921 -1.3416
16777TIP3   OH271821   0.208   0.088   6.563 -0.2937  0.2208 -0.3823
16777TIP3    H171822   0.249   0.134   6.636  0.3251 -1.0822  0.1350
16777TIP3    H271823   0.274   0.090   6.494 -1.4354  2.7609 -1.5186
16778TIP3   OH271824   2.476   3.680  14.228  0.0402 -0.0259 -0.8107
16778TIP3    H171825   2.389   3.644  14.248  0.6992 -0.3374  1.8558
16778TIP3    H271826   2.465   3.774  14.234  0.4376 -0.1053  2.5774
16779TIP3   OH271827   5.108   5.352  14.021  0.1668  0.0394 -0.2482
16779TIP3    H171828   5.168   5.380  13.952 -0.3974  1.2731 -0.2650
16779TIP3    H271829   5.142   5.267  14.049  1.9703  0.7214 -0.1942
16780TIP3   OH271830   3.914   5.659   6.066  0.0737 -0.4252 -0.0863
16780TIP3    H171831   3.920   5.620   6.154 -0.5996  0.3713  0.3233
16780TIP3    H271832   3.882   5.588   6.011 -0.5742 -0.6270  0.5351
16781TIP3   OH271833   2.216   3.367  11.919  0.3464  0.0122 -0.0670
16781TIP3    H171834   2.233   3.425  11.993  0.2524 -0.7852  0.6056
16781TIP3    H271835   2.235   3.420  11.841  2.2088  0.3434  0.5537
16782TIP3   OH271836   2.365   0.324  16.351  0.3672 -0.1002 -0.8488
16782TIP3    H171837   2.409   0.315  16.267  0.0287  0.2578 -1.0621
16782TIP3    H271838   2.411   0.261  16.408 -0.4245 -1.5104 -1.7029
16783TIP3   OH271839   0.699   6.643   4.924  0.3600 -0.1092  0.2414
16783TIP3    H171840   0.692   6.688   4.840  0.1868 -1.7324 -0.6556
16783TIP3    H271841   0.664   6.705   4.988 -0.0693  0.9221 -0.9579
16784TIP3   OH271842   2.592   2.352   4.013  0.0027 -0.2387 -0.0427
16784TIP3    H171843   2.563   2.311   4.095  0.9221 -1.1875 -0.1845
16784TIP3    H271844   2.527   2.421   3.998 -0.0283  0.1610  1.6450
16785TIP3   OH271845   0.944   5.642   4.708  0.5400 -0.4448 -0.2329
16785TIP3    H171846   1.028   5.682   4.687  0.9779 -0.5247  1.2990
16785TIP3    H271847   0.910   5.695   4.780  0.2123 -1.6373  0.5045
16786TIP3   OH271848   2.191   3.379  16.674  0.0362 -0.6604 -0.2977
16786TIP3    H171849   2.163   3.388  16.583  0.4199 -0.4582 -0.3967
16786TIP3    H271850   2.126   3.320  16.713 -1.1802  0.6760 -0.2243
16787TIP3   OH271851   3.102   3.779  11.032  0.5333  0.4309 -0.2434
16787TIP3    H171852   3.120   3.717  10.960  1.4994 -0.2260  0.5300
16787TIP3    H271853   3.119   3.865  10.994  0.0022  0.1639 -1.1015
16788TIP3   OH271854   3.929   6.212  16.031  0.2519 -0.5638  0.4070
16788TIP3    H171855   3.857   6.155  16.005  0.9356 -0.8556 -0.9221
16788TIP3    H271856   3.938   6.198  16.125 -1.1283 -0.8561  0.5131
16789TIP3   OH271857   0.886   6.059  14.854 -0.0555  0.3106 -0.1003
16789TIP3    H171858   0.962   6.003  14.840 -0.8523 -1.4979  2.1281
16789TIP3    H271859   0.891   6.084  14.946 -1.2275  1.6298 -0.3595
16790TIP3   OH271860   3.539   1.809   3.781 -0.0777  0.3050  0.1394
16790TIP3    H171861   3.460   1.765   3.751 -0.2017  0.8574 -0.3600
16790TIP3    H271862   3.509   1.874   3.844 -0.1464  1.1492 -0.7241
16791TIP3   OH271863   3.044   2.697   0.975  0.2859 -0.1864 -0.0849
16791TIP3    H171864   2.994   2.770   0.940  0.0608  0.1943  0.9785
16791TIP3    H271865   2.980   2.626   0.983  0.6265 -0.7148 -1.6514
16792TIP3   OH271866   1.554   5.715   4.680  0.4363 -0.5821 -0.1742
16792TIP3    H171867   1.571   5.625   4.708  1.2127 -0.2720  0.3853
16792TIP3    H271868   1.641   5.753   4.666  0.0926 -0.2508 -1.4964
16793TIP3   OH271869   2.062   6.501   4.577 -0.2120  0.3194 -0.2383
16793TIP3    H171870   2.024   6.415   4.594 -2.0573  1.4059  1.6786
16793TIP3    H271871   2.136   6.506   4.637 -1.2900  0.7376  1.1196
16794TIP3   OH271872   1.585   3.785  16.867 -0.4977  0.4000  0.4532
16794TIP3    H171873   1.589   3.825  16.780  0.9688  0.8812  0.6963
16794TIP3    H271874   1.492   3.770  16.883 -1.0497  2.6966 -0.1348
16795TIP3   OH271875   1.481   5.498   0.375 -0.0564  1.0803  0.1735
16795TIP3    H171876   1.398   5.490   0.422 -0.1043  0.4819  0.0042
16795TIP3    H271877   1.473   5.437   0.301  0.2643  1.5396 -0.2441
16796TIP3   OH271878   4.383   5.556  16.155 -0.3745 -0.6893 -0.1769
16796TIP3    H171879   4.445   5.504  16.207  0.5093  0.3514 -0.1357
16796TIP3    H271880   4.425   5.642  16.148  0.6660 -1.3073 -4.4451
16797TIP3   OH271881   3.969   1.335  14.199  0.5446  0.5458 -0.5235
16797TIP3    H171882   3.962   1.387  14.119  0.3846  1.0211 -0.2096
16797TIP3    H271883   3.996   1.399  14.266  2.1026 -0.1128 -0.4912
16798TIP3   OH271884   6.562   0.418   4.474 -0.1606  0.6646 -0.0487
16798TIP3    H171885   6.483   0.385   4.431  1.2016 -1.1817 -1.2775
16798TIP3    H271886   6.579   0.502   4.432 -0.3817  0.1434 -1.2292
16799TIP3   OH271887   5.095   1.042  14.116 -0.3738 -0.4248  0.5485
16799TIP3    H171888   5.014   1.003  14.085 -0.6239 -0.1079  0.8007
16799TIP3    H271889   5.139   1.074  14.037 -1.7868  1.8941  0.6032
16800TIP3   OH271890   3.256   2.564  12.586 -0.1809 -0.3532  0.2858
16800TIP3    H171891   3.190   2.505  12.624 -1.4727 -1.5314 -3.2924
16800TIP3    H271892   3.213   2.650  12.584 -1.6685 -1.0542 -1.7684
16801TIP3   OH271893   0.876   0.192   5.135  0.1045  0.1548  0.1111
16801TIP3    H171894   0.885   0.131   5.061 -0.6544 -0.6138  0.6300
16801TIP3    H271895   0.854   0.276   5.094  0.2226 -0.1397 -0.5678
16802TIP3   OH271896   1.197   4.259  17.073 -0.2312  0.3488 -0.1728
16802TIP3    H171897   1.132   4.208  17.121  0.6768  0.2981  1.0312
16802TIP3    H271898   1.168   4.349  17.082  0.8080  0.5173  1.9270
16803TIP3   OH271899   3.321   3.983  14.316 -0.5077  0.2372  0.7450
16803TIP3    H171900   3.356   3.895  14.332 -2.4374 -0.3604  2.1310
16803TIP3    H271901   3.290   3.980  14.226  4.2176  1.3318 -1.1655
16804TIP3   OH271902   5.194   4.641   4.928  0.0655 -0.2788 -0.0813
16804TIP3    H171903   5.277   4.688   4.933 -0.6746  1.0561  0.0664
16804TIP3    H271904   5.136   4.688   4.988 -0.1832 -2.5577  1.5998
16805TIP3   OH271905   6.812   1.868  14.935 -0.1296 -0.0344  0.0475
16805TIP3    H171906   6.867   1.805  14.982  0.8114  1.5282  1.1717
16805TIP3    H271907   6.875   1.925  14.890 -0.8650  1.0006  0.2930
16806TIP3   OH271908   0.941   3.753  13.265  0.2291 -0.1757  0.0484
16806TIP3    H171909   0.994   3.830  13.283  0.6727 -0.0939 -1.5088
16806TIP3    H271910   0.855   3.789  13.241  0.6031 -0.1110 -1.2613
16807TIP3   OH271911   4.167   2.390  14.173  0.2228 -0.3307 -0.1055
16807TIP3    H171912   4.235   2.441  14.218  0.5799 -0.2905 -0.6844
16807TIP3    H271913   4.162   2.429  14.086 -2.5490  1.5603  0.7771
16808TIP3   OH271914   0.456   0.754   4.940  0.5279  0.5568  0.5095
16808TIP3    H171915   0.439   0.840   4.977  0.4267  0.9531 -0.4329
16808TIP3    H271916   0.550   0.739   4.956  0.4304  0.5950  1.1512
16809TIP3   OH271917   1.753   3.684   3.149 -0.3379  0.4619 -0.1060
16809TIP3    H171918   1.823   3.619   3.151 -0.8665 -0.1466 -0.7096
16809TIP3    H271919   1.795   3.766   3.173  0.2383 -0.1952  1.2175
16810TIP3   OH271920   0.086   1.254  15.228 -0.0446 -0.1217  0.1908
16810TIP3    H171921   0.046   1.334  15.195 -2.6607 -1.0355  0.8982
16810TIP3    H271922   0.143   1.282  15.299 -1.4432  1.0668  0.8756
16811TIP3   OH271923   1.204   4.473  12.352  0.1520  0.2541 -0.5710
16811TIP3    H171924   1.274   4.500  12.410  1.2588  0.5523 -1.9928
16811TIP3    H271925   1.124   4.499  12.398  0.9858  0.7570  0.6596
16812TIP3   OH271926   3.652   4.534  12.184  0.2114  0.8008 -0.1139
16812TIP3    H171927   3.658   4.630  12.190 -2.4768  1.1703 -1.6124
16812TIP3    H271928   3.574   4.512  12.235  0.9633 -0.6527  0.4477
16813TIP3   OH271929   1.189   4.481   5.377  0.0768  0.0177  0.5275
16813TIP3    H171930   1.223   4.453   5.462 -0.6355 -1.3343  0.3951
16813TIP3    H271931   1.113   4.426   5.363  0.4810 -0.1460 -1.2297
16814TIP3   OH271932   1.627   6.448  12.716  0.0729  0.2487  0.3842
16814TIP3    H171933   1.610   6.381  12.782 -0.7371 -0.3201 -0.3830
16814TIP3    H271934   1.718   6.433  12.690 -0.1879 -0.7526  0.0112
16815TIP3   OH271935   3.381   5.748   4.305  0.0999  0.2553  0.0633
16815TIP3    H171936   3.435   5.699   4.367  2.1498  1.5413 -0.5975
16815TIP3    H271937   3.437   5.757   4.227 -1.3043  1.1671 -0.8827
16816TIP3   OH271938   2.268   6.608  16.935 -0.0998  0.1033  0.1016
16816TIP3    H171939   2.181   6.604  16.976 -0.5748  0.7325 -0.7824
16816TIP3    H271940   2.329   6.619  17.008 -0.7945 -0.0270  0.7160
16817TIP3   OH271941   3.760   0.072   6.140 -0.6878  0.2656 -0.3672
16817TIP3    H171942   3.727  -0.003   6.091 -0.5018  0.0439 -0.1585
16817TIP3    H271943   3.855   0.070   6.126 -0.6572  0.3273 -0.1737
16818TIP3   OH271944   0.976   4.629  14.746  0.0109  0.0059  0.0232
16818TIP3    H171945   1.071   4.615  14.749 -0.0272 -0.2311  0.1477
16818TIP3    H271946   0.962   4.682  14.667  0.6402  3.2158  1.8901
16819TIP3   OH271947   6.503   1.861   5.677 -0.4007 -1.0640  0.3621
16819TIP3    H171948   6.553   1.787   5.642  1.0807 -0.5473  1.2503
16819TIP3    H271949   6.450   1.891   5.604 -0.0977 -2.2250 -0.3664
16820TIP3   OH271950   2.294   3.740  17.189 -0.0036 -0.3379  0.6163
16820TIP3    H171951   2.336   3.817  17.150  1.1744 -0.6801  1.1615
16820TIP3    H271952   2.200   3.757  17.182  0.2346  0.7593 -0.0383
16821TIP3   OH271953   5.115   3.376  12.873 -0.0585  0.3106  0.4332
16821TIP3    H171954   5.140   3.321  12.799  0.9189 -0.1285  1.0767
16821TIP3    H271955   5.077   3.316  12.937  1.5287  0.2617  1.3717
16822TIP3   OH271956   3.349   0.129  12.377 -0.1532 -0.0187 -0.3303
16822TIP3    H171957   3.297   0.209  12.370  0.5109  0.4689  0.2308
16822TIP3    H271958   3.325   0.078  12.300 -1.9128 -0.0740  0.2010
16823TIP3   OH271959   0.533   1.251   4.621 -0.1646  0.2658 -0.0280
16823TIP3    H171960   0.501   1.164   4.647 -0.2044 -0.2074 -1.5607
16823TIP3    H271961   0.459   1.310   4.639 -0.2256 -0.0490  0.7987
16824TIP3   OH271962   6.277   4.710   4.674 -0.0620  0.5218  0.1259
16824TIP3    H171963   6.261   4.683   4.764  0.7179  1.7804  0.6708
16824TIP3    H271964   6.195   4.691   4.629 -1.1110  1.4788  1.5125
16825TIP3   OH271965   4.301   0.467   5.253  0.0552  0.3261  0.0578
16825TIP3    H171966   4.288   0.415   5.174  1.7171  1.0310 -0.7323
16825TIP3    H271967   4.217   0.462   5.299  0.1960 -3.2098  0.1785
16826TIP3   OH271968   1.991   6.677  12.020 -0.0683 -0.0956 -0.2722
16826TIP3    H171969   2.001   6.742  11.951  2.0163 -0.3941 -0.2981
16826TIP3    H271970   1.922   6.712  12.076  0.3095  1.6279 -0.8367
16827TIP3   OH271971   0.490   0.986   3.150 -0.2289 -0.3405 -0.1063
16827TIP3    H171972   0.576   0.949   3.133 -0.4583 -1.2755  0.6232
16827TIP3    H271973   0.482   1.060   3.090 -0.3054 -2.3349 -2.7285
16828TIP3   OH271974   4.035   2.870   1.202 -0.1836 -0.4264 -0.0827
16828TIP3    H171975   3.996   2.896   1.285 -0.8387  0.1853 -0.5729
16828TIP3    H271976   4.073   2.784   1.219 -0.8511 -0.5787  0.6748
16829TIP3   OH271977   5.020   2.691   0.264  0.4193 -0.7951 -0.1764
16829TIP3    H171978   5.014   2.786   0.254 -1.6485 -1.1087 -2.9844
16829TIP3    H271979   5.109   2.669   0.239  1.9840  0.5395  3.4776
16830TIP3   OH271980   3.379   2.477  14.196  0.5038  0.1763  0.0198
16830TIP3    H171981   3.421   2.552  14.238  0.6178  0.5136 -0.6879
16830TIP3    H271982   3.292   2.509  14.172  0.7838  0.3009 -0.8776
16831TIP3   OH271983   1.918   2.061   1.800 -0.0136 -0.4128  0.1684
16831TIP3    H171984   1.997   2.097   1.759  0.3505 -1.1581  0.1969
16831TIP3    H271985   1.847   2.091   1.744  0.3216 -0.0293 -0.0641
16832TIP3   OH271986   2.235   5.356   2.270  0.2968  0.3941 -0.2846
16832TIP3    H171987   2.190   5.367   2.186  1.7926  0.0343 -1.1761
16832TIP3    H271988   2.303   5.291   2.252  0.3008 -0.0984  1.3627
16833TIP3   OH271989   3.328   1.149   3.786  0.2565 -0.1790 -0.6268
16833TIP3    H171990   3.297   1.082   3.725  1.0472 -1.1763  0.0275
16833TIP3    H271991   3.250   1.177   3.833 -0.0885 -0.6353 -0.9221
16834TIP3   OH271992   6.173   3.997   4.473  0.2247  0.4787 -0.1270
16834TIP3    H171993   6.194   4.090   4.480 -0.7876  0.8242 -1.3233
16834TIP3    H271994   6.154   3.970   4.562  2.5707  0.8824  0.5620
16835TIP3   OH271995   1.262   1.763  12.117 -0.0916  0.8849  0.1209
16835TIP3    H171996   1.194   1.806  12.170 -0.1508  0.5778  0.2944
16835TIP3    H271997   1.334   1.750  12.178 -0.6478 -0.6713  0.4780
16836TIP3   OH271998   3.677   2.197   3.050  0.4444 -0.3215 -0.4905
16836TIP3    H171999   3.597   2.160   3.088 -0.3836  2.4126  0.7237
16836TIP3    H272000   3.741   2.126   3.054 -0.6661 -1.3348  2.6896
16837TIP3   OH272001   3.307   4.892  10.380 -0.1079 -0.0564 -0.5133
16837TIP3    H172002   3.214   4.913  10.380  0.3307  2.8733  2.4562
16837TIP3    H272003   3.350   4.971  10.346  1.3431  0.0264  1.3251
16838TIP3   OH272004   4.468   5.780   3.239  0.0257 -0.2580  0.1232
16838TIP3    H172005   4.374   5.796   3.233 -0.0794 -1.1222 -0.9377
16838TIP3    H272006   4.496   5.826   3.319 -1.5834 -1.3609  1.3779
16839TIP3   OH272007   4.469   5.520   1.052 -0.5810 -0.2102  0.6125
16839TIP3    H172008   4.469   5.470   1.133 -1.1619 -0.5935  0.3853
16839TIP3    H272009   4.432   5.460   0.987  0.8293 -0.2752 -0.1718
16840TIP3   OH272010   0.048   0.356  16.932 -0.3957  0.6836  0.2837
16840TIP3    H172011   0.015   0.304  17.006 -0.6846  0.4831  0.0134
16840TIP3    H272012   0.125   0.308  16.902  0.5185  1.4556  1.2802
16841TIP3   OH272013   4.290   1.989  13.338  0.3121 -1.1369 -0.0041
16841TIP3    H172014   4.231   1.955  13.272 -0.2518 -1.3430  0.5928
16841TIP3    H272015   4.250   1.964  13.421 -0.5288  1.5384  0.5110
16842TIP3   OH272016   5.890   5.793  14.479  0.7433  0.6306 -0.0244
16842TIP3    H172017   5.933   5.804  14.564  0.9532 -0.6457  0.0613
16842TIP3    H272018   5.942   5.725  14.435  0.0295  0.5444 -0.7489
16843TIP3   OH272019   0.977   4.778   5.418 -0.3757 -0.7447  0.2113
16843TIP3    H172020   1.013   4.810   5.335  0.7535 -2.1694  0.0984
16843TIP3    H272021   1.039   4.710   5.445 -1.4737 -1.2524  1.5297
16844TIP3   OH272022   2.168   5.555  16.007  0.2797 -0.3344  0.1391
16844TIP3    H172023   2.242   5.497  16.024  0.4560  0.0475  0.7234
16844TIP3    H272024   2.097   5.497  15.981  1.0255 -0.6376 -1.3255
16845TIP3   OH272025   6.491   3.227   3.531 -0.5772 -0.0303 -0.3792
16845TIP3    H172026   6.559   3.270   3.479  0.0948  0.6293  1.0067
16845TIP3    H272027   6.410   3.247   3.484  0.0717 -0.0749 -1.5704
16846TIP3   OH272028   2.201   3.901  15.363 -0.0688 -0.2029 -0.0728
16846TIP3    H172029   2.123   3.850  15.386  0.8991 -1.4779  0.5278
16846TIP3    H272030   2.230   3.862  15.280  0.9280 -0.9686  0.6138
16847TIP3   OH272031   0.692   2.424  10.735  0.1047 -0.1583  0.5605
16847TIP3    H172032   0.665   2.369  10.662  0.8319  1.8673 -1.3405
16847TIP3    H272033   0.618   2.484  10.747 -0.6444 -1.3710  2.5467
16848TIP3   OH272034   0.326   4.256   0.011 -0.1595  0.0921 -0.6748
16848TIP3    H172035   0.247   4.213   0.044  0.8965 -0.3864  1.3973
16848TIP3    H272036   0.334   4.335   0.065  3.2506 -2.2054  2.7139
16849TIP3   OH272037   1.565   0.980   1.163  0.5546 -0.1260  0.3608
16849TIP3    H172038   1.633   0.993   1.230  1.0821 -1.0358  0.0226
16849TIP3    H272039   1.598   0.908   1.109 -0.0400  0.3410 -0.6563
16850TIP3   OH272040   1.955   4.745  10.965  0.2453 -0.6898 -0.2833
16850TIP3    H172041   1.957   4.787  10.879 -0.7731 -1.4802 -0.7095
16850TIP3    H272042   1.872   4.699  10.967  1.0886 -2.2562  0.3876
16851TIP3   OH272043   4.310   4.565  13.720  0.1924 -0.6851  0.5496
16851TIP3    H172044   4.274   4.515  13.647  2.3918 -1.8033  0.1373
16851TIP3    H272045   4.301   4.507  13.795  1.3726 -1.1195  0.3740
16852TIP3   OH272046   1.503   5.567   0.721  0.5468 -0.4100  0.1888
16852TIP3    H172047   1.598   5.584   0.722  0.4366  0.5408 -1.7997
16852TIP3    H272048   1.491   5.503   0.651 -0.6025  1.9914 -1.9348
16853TIP3   OH272049   1.736   3.011   1.461 -0.2422 -0.7126 -0.1865
16853TIP3    H172050   1.676   3.020   1.534  0.7547 -1.1531  0.7072
16853TIP3    H272051   1.808   2.957   1.495 -0.3033 -1.9119 -1.8022
16854TIP3   OH272052   6.687   4.723  16.862  0.1615 -0.1872 -0.1816
16854TIP3    H172053   6.686   4.680  16.776  1.4136 -0.8206  0.1042
16854TIP3    H272054   6.623   4.675  16.914 -0.5990  0.1920 -0.7465
16855TIP3   OH272055   3.340   0.432  16.789 -0.3087 -0.9096  0.1942
16855TIP3    H172056   3.258   0.471  16.818 -0.4993 -2.2750  1.6833
16855TIP3    H272057   3.360   0.475  16.706 -1.5546  0.7727  0.7095
16856TIP3   OH272058   4.209   0.618  13.241 -0.1509  0.0518 -0.4822
16856TIP3    H172059   4.168   0.682  13.298 -0.2597 -0.7179  0.3297
16856TIP3    H272060   4.199   0.535  13.287  1.7438 -0.2658 -0.5540
16857TIP3   OH272061   0.890   2.517   1.220  0.2336  0.3443  0.1263
16857TIP3    H172062   0.853   2.465   1.291 -0.0253 -0.3355 -0.4941
16857TIP3    H272063   0.888   2.607   1.253  1.0941 -0.0636  1.3934
16858TIP3   OH272064   2.625   4.947  16.489 -0.6336  0.6219  0.1035
16858TIP3    H172065   2.545   4.913  16.531  0.1592  0.4820  1.5800
16858TIP3    H272066   2.642   5.030  16.533 -0.5272  1.1562 -0.9262
16859TIP3   OH272067   4.627   0.653  12.977  0.1205  0.0430 -0.2474
16859TIP3    H172068   4.657   0.566  12.950  0.3776  0.0120  0.1199
16859TIP3    H272069   4.608   0.643  13.071  0.4135  0.4489 -0.1408
16860TIP3   OH272070   2.202   6.496   5.896 -0.0327  0.1477 -0.0467
16860TIP3    H172071   2.222   6.563   5.831 -3.8456  2.1774  0.5677
16860TIP3    H272072   2.269   6.507   5.963  0.4985  2.1865 -0.8336
16861TIP3   OH272073   1.972   0.840   0.695 -0.1098  0.3725 -0.2569
16861TIP3    H172074   2.036   0.832   0.624  1.5621  1.8905  0.9668
16861TIP3    H272075   2.015   0.798   0.770 -2.8753 -3.5376 -0.6044
16862TIP3   OH272076   5.663   5.148  14.315 -0.2527 -0.3551  0.0795
16862TIP3    H172077   5.642   5.140  14.222  0.8642  0.6252 -0.2775
16862TIP3    H272078   5.598   5.094  14.359 -1.7060  0.3024 -1.1665
16863TIP3   OH272079   5.727   3.143  11.801  0.3667  0.0576  0.5325
16863TIP3    H172080   5.680   3.212  11.848  0.8775 -0.0835  1.2626
16863TIP3    H272081   5.786   3.189  11.743  1.4478  0.2671  1.7518
16864TIP3   OH272082   0.570   4.389  15.774  0.5510  0.1953 -0.3514
16864TIP3    H172083   0.569   4.407  15.680  0.7797 -0.7829 -0.5537
16864TIP3    H272084   0.510   4.315  15.786 -2.0196  2.3045  0.7508
16865TIP3   OH272085   3.864   1.251   3.702 -0.2153 -0.1536 -0.4094
16865TIP3    H172086   3.866   1.254   3.606  1.1283 -3.1028 -0.5878
16865TIP3    H272087   3.793   1.190   3.722  0.0119 -0.1425  0.4640
16866TIP3   OH272088   5.345   5.774   6.358  0.5205  0.0307  0.2546
16866TIP3    H172089   5.393   5.691   6.364 -0.5263 -0.6020  0.2502
16866TIP3    H272090   5.261   5.756   6.401  0.1859  1.0244  0.0474
16867TIP3   OH272091   5.402   2.005   4.792  0.1793 -0.3008 -0.5943
16867TIP3    H172092   5.447   2.052   4.722 -1.1686  2.4892  0.2661
16867TIP3    H272093   5.463   2.008   4.866 -0.4677  1.4936 -0.0986
16868TIP3   OH272094   1.497   6.121   4.860  0.5481  0.1767 -0.0498
16868TIP3    H172095   1.527   6.173   4.785  0.6628 -0.7457 -0.6663
16868TIP3    H272096   1.409   6.091   4.835 -0.0582  1.1307  0.8543
16869TIP3   OH272097   0.392   6.035   0.929 -0.3628  0.4682  0.0596
16869TIP3    H172098   0.375   6.127   0.907  1.2319  1.0019  0.8892
16869TIP3    H272099   0.358   6.026   1.018 -2.0466 -0.2446 -0.6171
16870TIP3   OH272100   6.723   0.044   0.347 -0.5836 -0.1096  0.0215
16870TIP3    H172101   6.814   0.073   0.343  0.0208 -1.8984 -0.2723
16870TIP3    H272102   6.678   0.097   0.281  0.3120  0.5940 -0.0369
16871TIP3   OH272103   5.157   4.974  11.533 -0.6632 -0.1991 -0.0369
16871TIP3    H172104   5.068   4.967  11.500 -1.1815  1.2220  0.9821
16871TIP3    H272105   5.163   5.062  11.570  0.4500 -1.0337  1.9654
16872TIP3   OH272106   2.873   5.116  12.840  0.5729  0.6610  0.4508
16872TIP3    H172107   2.781   5.116  12.811  0.5071  1.2941  0.6447
16872TIP3    H272108   2.920   5.160  12.770  0.5570  1.3452  0.8660
16873TIP3   OH272109   0.926   5.917  14.353  0.2218 -0.5660  0.1030
16873TIP3    H172110   1.018   5.902  14.374  0.0708 -2.3159 -0.3209
16873TIP3    H272111   0.892   5.965  14.428  1.4620  0.1011  0.2681
16874TIP3   OH272112   2.370   1.977  14.747  0.0384 -0.0262  0.0778
16874TIP3    H172113   2.324   1.918  14.687 -0.9773 -0.2965  1.1112
16874TIP3    H272114   2.448   2.004  14.697 -0.2942 -0.9736 -1.0108
16875TIP3   OH272115   3.953   3.860  12.006  0.4208  0.1734 -0.1990
16875TIP3    H172116   3.887   3.826  12.067 -0.0591  1.0417 -0.2255
16875TIP3    H272117   3.903   3.900  11.935  0.9794 -0.1792 -0.8079
16876TIP3   OH272118   3.250   3.643  13.187  0.2540 -0.0121  0.4793
16876TIP3    H172119   3.286   3.584  13.121  0.8944  1.1575 -0.2414
16876TIP3    H272120   3.224   3.721  13.138 -2.5817 -0.4760  1.0697
16877TIP3   OH272121   0.679   5.635   5.506  0.3112  0.2670 -0.0395
16877TIP3    H172122   0.670   5.545   5.537 -0.0602 -0.1543 -1.3354
16877TIP3    H272123   0.762   5.636   5.459  0.4608  0.6932  0.2215
16878TIP3   OH272124   0.636   2.578   6.092 -0.5611  0.5659  0.0200
16878TIP3    H172125   0.584   2.543   6.165  0.2039  1.6939  1.1433
16878TIP3    H272126   0.578   2.642   6.051 -1.3204 -0.6926 -0.9621
16879TIP3   OH272127   1.920   5.651  13.327  0.0116 -0.0599  0.2433
16879TIP3    H172128   1.956   5.662  13.239  1.9106  0.0630  0.9854
16879TIP3    H272129   1.915   5.556  13.339 -0.4824 -0.0770 -0.0798
16880TIP3   OH272130   6.595   2.073  15.927  0.2091 -0.8267  0.1606
16880TIP3    H172131   6.634   2.117  15.851  1.4254  0.1085  1.2759
16880TIP3    H272132   6.632   1.985  15.926  0.9643 -0.5154  0.1964
16881TIP3   OH272133   5.247   0.052  16.876  0.4523 -0.1347 -0.2090
16881TIP3    H172134   5.153   0.049  16.896  0.5222 -0.2621  0.0990
16881TIP3    H272135   5.273   0.142  16.898  1.0362 -0.9154  2.6000
16882TIP3   OH272136   0.217   2.562   0.135 -0.4066  0.3616  0.5000
16882TIP3    H172137   0.304   2.557   0.095 -0.5682 -0.0457  0.1838
16882TIP3    H272138   0.168   2.492   0.092 -1.0075  0.8486  0.3822
16883TIP3   OH272139   6.268   3.493   3.540  0.2913  0.0344 -0.3583
16883TIP3    H172140   6.299   3.444   3.464  2.6030 -1.5423  1.4520
16883TIP3    H272141   6.206   3.434   3.583  0.0207  0.3575 -0.3025
16884TIP3   OH272142   6.001   6.312  12.767 -0.7628 -0.4844  0.9319
16884TIP3    H172143   5.936   6.369  12.808 -0.8037 -1.4669  2.2866
16884TIP3    H272144   6.030   6.254  12.837  1.5342 -0.1333  0.3686
16885TIP3   OH272145   3.749   2.779  13.155  0.5215 -0.5230 -0.2565
16885TIP3    H172146   3.831   2.757  13.199  0.1019 -0.7041  0.4439
16885TIP3    H272147   3.729   2.868  13.183  0.8382 -0.2123 -0.9894
16886TIP3   OH272148   0.884   5.780  16.372  0.2513  0.4431  0.0270
16886TIP3    H172149   0.892   5.875  16.359 -1.0141  0.4066 -1.3178
16886TIP3    H272150   0.956   5.743  16.320  0.0071  0.6357 -0.4627
16887TIP3   OH272151   6.054   1.154  11.826 -0.7164 -0.4831  0.9986
16887TIP3    H172152   6.078   1.062  11.817 -0.1943 -0.1557 -1.7997
16887TIP3    H272153   6.128   1.193  11.873  0.8143 -0.8986 -0.9282
16888TIP3   OH272154   4.819   4.035   0.425  0.5755 -0.2469 -0.4168
16888TIP3    H172155   4.738   4.072   0.461  0.7933 -1.7069  1.8082
16888TIP3    H272156   4.818   3.944   0.454  2.5348 -0.5639 -1.2121
16889TIP3   OH272157   5.240   4.934   1.714  0.0128 -0.1735  0.1779
16889TIP3    H172158   5.247   4.852   1.666  2.0189 -0.0417  0.1545
16889TIP3    H272159   5.211   4.909   1.802  0.7964 -0.9282  0.2235
16890TIP3   OH272160   0.282   5.590  13.071 -0.4489 -0.0678  0.2967
16890TIP3    H172161   0.307   5.674  13.033  0.0256  0.4564  1.6980
16890TIP3    H272162   0.268   5.533  12.996 -0.4333  1.1639 -0.6716
16891TIP3   OH272163   5.792   4.498  12.174 -0.1159 -0.0033 -0.2302
16891TIP3    H172164   5.752   4.552  12.243 -0.1912 -1.4036  0.8622
16891TIP3    H272165   5.826   4.422  12.220 -1.8829 -1.9697 -1.9382
16892TIP3   OH272166   5.148   1.359   4.691 -0.3111 -0.2059 -0.5716
16892TIP3    H172167   5.137   1.444   4.734 -0.4200 -0.1691 -0.6720
16892TIP3    H272168   5.061   1.335   4.661 -0.5298 -1.0138  0.6675
16893TIP3   OH272169   4.901   6.625  16.113  0.0577  0.0055  0.3452
16893TIP3    H172170   4.890   6.613  16.207 -0.7444  0.0287  0.2601
16893TIP3    H272171   4.909   6.719  16.102 -1.1060  0.1065  0.2722
16894TIP3   OH272172   2.082   2.013  11.319 -0.3131 -0.1412 -0.2536
16894TIP3    H172173   2.097   1.980  11.230 -1.4531 -1.6571  0.0699
16894TIP3    H272174   2.133   1.954  11.375  1.6976  1.7705  0.0361
16895TIP3   OH272175   5.414   6.806  14.901  0.3594 -0.2857 -0.4227
16895TIP3    H172176   5.508   6.820  14.914  0.3362 -0.5646  0.0926
16895TIP3    H272177   5.377   6.894  14.892  0.6676 -0.1753 -0.6219
16896TIP3   OH272178   1.391   1.977   1.082 -0.3360 -0.6157 -0.0893
16896TIP3    H172179   1.458   1.995   1.148  0.3643 -0.9002 -0.7115
16896TIP3    H272180   1.435   1.995   0.999 -1.4710  0.6072 -0.4534
16897TIP3   OH272181   6.349   5.002  17.049 -0.3267 -0.0455 -0.3775
16897TIP3    H172182   6.272   4.966  17.004  0.2766 -0.0958 -1.3759
16897TIP3    H272183   6.315   5.079  17.095 -0.6923  0.7786 -1.9813
16898TIP3   OH272184   6.504   4.870  14.035  0.5550  0.2942  0.1666
16898TIP3    H172185   6.434   4.896  14.095 -0.1358  0.3605 -0.6572
16898TIP3    H272186   6.569   4.827  14.091 -1.0400 -1.5704  0.6828
16899TIP3   OH272187   1.447   5.822  15.362 -0.0309  0.5416  0.5180
16899TIP3    H172188   1.482   5.747  15.314  2.1550  1.3354  0.7627
16899TIP3    H272189   1.488   5.816  15.448 -2.0629  0.4656  1.5210
16900TIP3   OH272190   4.043   5.034   5.367  0.3909 -0.3795  0.0569
16900TIP3    H172191   3.976   5.058   5.302  1.6632 -1.0737 -1.5888
16900TIP3    H272192   4.112   5.099   5.354  0.2292  0.1011  1.4757
16901TIP3   OH272193   5.994   2.760   5.609 -0.0170 -0.0337  0.0844
16901TIP3    H172194   6.041   2.678   5.601 -0.2540 -0.1178 -0.4256
16901TIP3    H272195   5.923   2.741   5.671  0.8928  0.2207  1.2331
16902TIP3   OH272196   2.811   2.181  10.858  0.1034 -0.1031 -0.6080
16902TIP3    H172197   2.827   2.275  10.864  0.4734 -0.2215  0.7174
16902TIP3    H272198   2.872   2.150  10.791 -0.0680  0.6000 -1.0952
16903TIP3   OH272199   0.444   4.149  15.813 -0.2710  0.0582 -0.1557
16903TIP3    H172200   0.360   4.108  15.794 -0.8047  0.1173  1.7787
16903TIP3    H272201   0.508   4.099  15.763 -1.2136 -1.4517  0.1026
16904TIP3   OH272202   6.291   5.458  16.578 -0.4206 -0.1748  0.0667
16904TIP3    H172203   6.292   5.464  16.674  0.1986  0.9101 -0.0052
16904TIP3    H272204   6.361   5.397  16.557  0.8007  1.1435  0.2128
16905TIP3   OH272205   3.972   6.784   5.603  0.4610 -0.4342  0.0738
16905TIP3    H172206   3.930   6.833   5.673  1.6312 -0.4065  0.7906
16905TIP3    H272207   4.062   6.771   5.633  1.2145  0.2076 -1.7356
16906TIP3   OH272208   3.004   2.008  13.708  0.0278 -0.0437  0.6455
16906TIP3    H172209   3.028   2.029  13.798  1.7566  1.1189 -0.0327
16906TIP3    H272210   2.915   2.043  13.698  0.0466  0.3503  1.7300
16907TIP3   OH272211   1.340   3.332  15.150  0.4072  0.3635 -0.1145
16907TIP3    H172212   1.364   3.342  15.242 -0.9095  1.2694  0.1618
16907TIP3    H272213   1.374   3.411  15.108 -1.4854  1.3993  0.1834
16908TIP3   OH272214   6.432   4.382  11.012  0.1099 -0.1819  0.1117
16908TIP3    H172215   6.345   4.391  10.974  1.0335 -0.4533 -2.2434
16908TIP3    H272216   6.419   4.326  11.088 -1.6774 -0.7342 -0.5477
16909TIP3   OH272217   2.784   4.855   4.959 -0.1696  0.3630 -0.7587
16909TIP3    H172218   2.870   4.874   4.997 -0.1840  0.5874 -0.8381
16909TIP3    H272219   2.798   4.778   4.904 -0.1877 -0.0816 -0.1470
16910TIP3   OH272220   4.621   0.313   4.961  0.0797 -0.6470 -0.0203
16910TIP3    H172221   4.704   0.345   4.996 -0.0565  1.3230 -1.3650
16910TIP3    H272222   4.571   0.289   5.039  1.5734 -1.0575  0.8571
16911TIP3   OH272223   0.279   2.406  11.641 -0.0770  0.3518  1.0562
16911TIP3    H172224   0.215   2.350  11.597 -0.1702  0.4624  1.0503
16911TIP3    H272225   0.263   2.394  11.734 -1.6267  2.0850  1.0803
16912TIP3   OH272226   0.346   4.493   5.315 -0.0053  0.2360 -0.3939
16912TIP3    H172227   0.318   4.446   5.394  1.4235 -0.8509 -0.5023
16912TIP3    H272228   0.417   4.440   5.279  0.3488  1.4803 -1.6145
16913TIP3   OH272229   3.163   3.252  11.790 -0.1031  0.2389  0.0909
16913TIP3    H172230   3.224   3.309  11.743 -1.4390  1.3314 -0.4026
16913TIP3    H272231   3.077   3.289  11.771 -0.7411  0.7476  3.3719
16914TIP3   OH272232   2.655   0.930   5.908 -0.0712 -0.3493 -0.0651
16914TIP3    H172233   2.664   0.960   5.818 -1.4141 -0.4944 -0.2733
16914TIP3    H272234   2.588   0.861   5.904 -0.5993  0.0597  1.1264
16915TIP3   OH272235   6.710   0.423  11.451  0.1664 -0.2273  0.0841
16915TIP3    H172236   6.803   0.444  11.445  0.4038 -1.2765 -0.0902
16915TIP3    H272237   6.674   0.451  11.366  0.2829  0.3497  0.2220
16916TIP3   OH272238   5.528   2.437  15.860 -0.2673 -0.7297  0.3696
16916TIP3    H172239   5.442   2.412  15.827 -0.2452 -0.0975 -0.1900
16916TIP3    H272240   5.510   2.506  15.924 -0.1337  0.1001 -0.4579
16917TIP3   OH272241   1.923   5.003  15.283 -1.1009 -0.5999 -0.0055
16917TIP3    H172242   2.001   4.970  15.239 -1.1894  0.6642 -1.1658
16917TIP3    H272243   1.881   4.925  15.319 -0.1303 -1.4783 -0.7146
16918TIP3   OH272244   1.028   6.281   4.283  0.6891 -0.3896  0.9128
16918TIP3    H172245   0.946   6.293   4.331  0.9774 -1.8561  1.8238
16918TIP3    H272246   1.040   6.186   4.278  1.8881 -0.2156  0.0183
16919TIP3   OH272247   5.427   5.784  13.868  0.5611 -0.3279  0.0325
16919TIP3    H172248   5.405   5.866  13.824  1.0448  1.2867  2.6334
16919TIP3    H272249   5.344   5.735  13.870  0.6174 -0.7274 -2.9672
16920TIP3   OH272250   0.258   3.990   6.026 -0.2267 -0.8517  0.0606
16920TIP3    H172251   0.302   3.975   5.942 -1.5390 -1.2849 -0.5867
16920TIP3    H272252   0.324   3.971   6.092  0.7364 -0.8411 -0.8761
16921TIP3   OH272253   6.478   1.594   1.894  0.0936  0.2750  0.2204
16921TIP3    H172254   6.532   1.643   1.955  0.0275  0.4488  0.1396
16921TIP3    H272255   6.503   1.627   1.808  2.0384 -1.7286 -0.0656
16922TIP3   OH272256   5.199   1.095  15.167  0.1332  0.0815 -0.6370
16922TIP3    H172257   5.107   1.072  15.179 -0.0072  0.7081 -0.4920
16922TIP3    H272258   5.220   1.063  15.079 -0.3729  0.4176 -0.8848
16923TIP3   OH272259   2.511   5.720   5.903  0.5700  0.2196  0.1749
16923TIP3    H172260   2.563   5.700   5.981 -0.8526  0.3368  1.1952
16923TIP3    H272261   2.575   5.724   5.832  1.7334 -1.4297  1.0498
16924TIP3   OH272262   5.597   5.379   3.048  0.2921  0.0254 -0.2409
16924TIP3    H172263   5.570   5.436   3.120 -2.3234  0.5786 -1.5131
16924TIP3    H272264   5.656   5.432   2.995 -0.6457  0.9559 -0.3970
16925TIP3   OH272265   6.813   1.645  13.888  0.8063 -0.0919  0.0829
16925TIP3    H172266   6.815   1.735  13.856  0.7287 -0.3102 -0.5669
16925TIP3    H272267   6.730   1.638  13.935  0.8692  0.2067  0.2425
16926TIP3   OH272268   0.521   2.949   4.051 -0.2539  0.0021 -0.8291
16926TIP3    H172269   0.560   2.994   4.126 -0.2887 -0.3640 -0.5894
16926TIP3    H272270   0.567   2.986   3.975 -0.0118  0.1631 -0.6080
16927TIP3   OH272271   5.651   0.450   0.936 -0.1214 -0.0626 -0.4051
16927TIP3    H172272   5.619   0.503   1.009 -1.0111 -0.2029 -0.6880
16927TIP3    H272273   5.718   0.505   0.895 -2.0948  1.5450 -1.6338
16928TIP3   OH272274   0.246   1.198   3.364 -0.7713 -0.6260  0.5795
16928TIP3    H172275   0.322   1.225   3.312 -0.9978 -0.3871  0.3697
16928TIP3    H272276   0.283   1.141   3.432 -0.3979 -0.4793  0.5059
16929TIP3   OH272277   5.149   2.591  16.845 -0.2023  0.6745  0.5825
16929TIP3    H172278   5.120   2.500  16.846  0.5465  0.4287  0.8026
16929TIP3    H272279   5.244   2.586  16.858  0.0036  1.4237 -0.5220
16930TIP3   OH272280   3.171   0.458   1.691 -0.2496  0.6854 -0.2983
16930TIP3    H172281   3.139   0.460   1.600 -1.2418  0.5609  0.0338
16930TIP3    H272282   3.265   0.471   1.683 -0.2933  0.4825 -1.3637
16931TIP3   OH272283   2.013   0.904   4.265  0.0800  0.7093  0.3632
16931TIP3    H172284   1.936   0.942   4.307  1.9396  3.4046  1.5808
16931TIP3    H272285   2.061   0.862   4.336 -0.2548 -1.0911 -0.4160
16932TIP3   OH272286   5.530   2.082  13.210  0.1181  0.1631  0.0556
16932TIP3    H172287   5.492   2.169  13.220  0.1720  0.2975 -0.8329
16932TIP3    H272288   5.617   2.098  13.172  0.7895 -0.1861  1.3739
16933TIP3   OH272289   3.687   5.253  12.283 -0.1950  0.2164 -0.4977
16933TIP3    H172290   3.765   5.301  12.311  1.1999 -1.1224 -1.8914
16933TIP3    H272291   3.721   5.180  12.231 -2.3618 -0.7759 -0.6332
16934TIP3   OH272292   0.402   5.313   3.685 -0.0751 -0.3166 -0.4790
16934TIP3    H172293   0.397   5.407   3.700 -3.3351 -0.5385  0.6511
16934TIP3    H272294   0.474   5.283   3.742  0.6649  1.3774 -0.4727
16935TIP3   OH272295   3.644   3.282  16.268 -1.0820 -0.2412  0.1389
16935TIP3    H172296   3.582   3.233  16.322 -0.0726 -0.3971  1.2036
16935TIP3    H272297   3.646   3.234  16.185 -0.9390 -1.3786  0.7746
16936TIP3   OH272298   4.911   3.050  14.928  0.6761  0.0783  0.2423
16936TIP3    H172299   4.934   3.005  15.009 -0.4473 -2.1760 -0.6178
16936TIP3    H272300   4.967   3.010  14.862  0.4262  0.7343 -0.3817
16937TIP3   OH272301   1.945   0.825   1.530  0.5701 -0.8776  0.6787
16937TIP3    H172302   1.897   0.744   1.547  1.1090 -2.4199 -3.8881
16937TIP3    H272303   2.034   0.806   1.559  0.5103 -1.6588  0.3832
16938TIP3   OH272304   6.793   3.500  14.136  0.3377  0.1821 -0.6285
16938TIP3    H172305   6.737   3.511  14.213 -0.2153 -0.3910 -0.9450
16938TIP3    H272306   6.878   3.537  14.163  0.3368 -0.5746  0.4713
16939TIP3   OH272307   2.328   2.683  13.533 -0.3003 -0.2676 -0.7808
16939TIP3    H172308   2.267   2.669  13.606 -0.4893 -1.1123 -1.0860
16939TIP3    H272309   2.272   2.707  13.460 -0.2054 -0.3888 -0.8932
16940TIP3   OH272310   1.103   5.268  13.581  0.5975  0.1387 -0.3438
16940TIP3    H172311   1.109   5.329  13.654  0.9257 -0.9322  0.5600
16940TIP3    H272312   1.009   5.256  13.567  0.4491 -1.2634  1.3694
16941TIP3   OH272313   4.401   4.275   1.448  0.4435  0.5175 -0.3834
16941TIP3    H172314   4.411   4.348   1.509  1.2039  0.4156 -0.3781
16941TIP3    H272315   4.485   4.269   1.403  0.8057 -1.0572  0.4102
16942TIP3   OH272316   0.360   1.281   2.413 -0.0995 -0.5899  0.0417
16942TIP3    H172317   0.427   1.345   2.390 -1.0532  0.5427  0.2792
16942TIP3    H272318   0.332   1.307   2.501 -0.3031 -1.5168  0.2585
16943TIP3   OH272319   0.706   5.880  12.447  0.1194 -0.3703  0.4325
16943TIP3    H172320   0.617   5.861  12.419  0.1190 -2.0363  1.4622
16943TIP3    H272321   0.746   5.794  12.460  1.4743  0.3501  1.2208
16944TIP3   OH272322   4.019   3.327   0.631 -0.0464 -0.1787 -0.1747
16944TIP3    H172323   3.976   3.322   0.716  0.2868  0.3745  0.0331
16944TIP3    H272324   3.954   3.295   0.569 -0.0930 -1.1303  0.3483
16945TIP3   OH272325   6.274   0.985  13.679 -0.0930  0.1427  0.0261
16945TIP3    H172326   6.235   0.917  13.733  0.0039 -0.1624 -0.2850
16945TIP3    H272327   6.329   1.035  13.739 -0.7567  0.4250  0.4189
16946TIP3   OH272328   2.565   6.312   4.531  0.3393 -0.8083  0.3300
16946TIP3    H172329   2.491   6.298   4.473  0.3417  2.1312 -0.5476
16946TIP3    H272330   2.632   6.250   4.501  0.1528  0.2565 -2.5417
16947TIP3   OH272331   6.686   3.383   2.843  0.2571 -0.4951 -0.6330
16947TIP3    H172332   6.761   3.442   2.839  0.1340 -0.0062  2.1791
16947TIP3    H272333   6.697   3.335   2.926 -1.9865 -1.1575 -0.6423
16948TIP3   OH272334   3.575   1.415  14.004  0.0507 -0.1633 -0.0430
16948TIP3    H172335   3.510   1.400  13.935  0.1428 -2.0401  0.2227
16948TIP3    H272336   3.525   1.420  14.084  0.1294 -0.2770  0.0134
16949TIP3   OH272337   0.379   6.095   0.553  0.7498  0.2744 -0.5823
16949TIP3    H172338   0.382   6.180   0.510  0.4667 -0.3260 -1.8322
16949TIP3    H272339   0.471   6.074   0.571  0.7617  1.2486  0.6075
16950TIP3   OH272340   1.153   3.478   1.872 -0.0758 -0.1769 -0.1586
16950TIP3    H172341   1.089   3.548   1.855 -0.4229  0.3343  2.7240
16950TIP3    H272342   1.099   3.400   1.886  0.0050 -0.0513  0.8945
16951TIP3   OH272343   4.216   5.689  11.521  0.0442 -0.1951 -0.6444
16951TIP3    H172344   4.292   5.637  11.495  1.3502  0.7124  1.1838
16951TIP3    H272345   4.245   5.738  11.598 -2.4928 -0.0622  0.3235
16952TIP3   OH272346   4.849   1.995  15.320 -0.3707 -0.1767 -0.1358
16952TIP3    H172347   4.801   2.028  15.244 -1.3940 -1.0761  0.1066
16952TIP3    H272348   4.921   2.057  15.331 -0.5085  0.2596 -1.5189
16953TIP3   OH272349   0.805   1.043   1.492 -0.0800 -0.1937 -0.7802
16953TIP3    H172350   0.729   1.064   1.437 -0.6293  0.8603  0.3448
16953TIP3    H272351   0.802   0.948   1.501 -1.0673 -0.2008 -1.0336
16954TIP3   OH272352   4.142   2.990  13.325  0.0466  0.0915 -0.2813
16954TIP3    H172353   4.128   2.989  13.420 -0.1758  1.4096 -0.2814
16954TIP3    H272354   4.229   2.952  13.313  0.4938  0.8089  0.5466
16955TIP3   OH272355   1.988   0.321  15.497  0.6037 -0.3215 -0.2104
16955TIP3    H172356   1.967   0.407  15.533 -0.5972 -0.1496 -1.2362
16955TIP3    H272357   2.057   0.287  15.554  0.8417  1.1543  0.4368
16956TIP3   OH272358   0.078   2.080   5.315  0.0702 -0.2890 -0.1952
16956TIP3    H172359   0.025   2.001   5.299 -0.1318  0.0363 -1.1912
16956TIP3    H272360   0.165   2.058   5.281  0.1704 -0.2942  0.0673
16957TIP3   OH272361   6.057   5.785   2.380  0.0189 -0.5092 -0.3860
16957TIP3    H172362   6.146   5.811   2.357 -0.5245 -0.4246 -2.6472
16957TIP3    H272363   6.027   5.733   2.305 -1.8423 -0.5068  0.3003
16958TIP3   OH272364   5.658   2.613   0.590  0.0642 -0.2528  0.3490
16958TIP3    H172365   5.644   2.562   0.510  1.1250  0.5119 -0.3345
16958TIP3    H272366   5.721   2.561   0.641 -1.1232 -1.0779  1.0293
16959TIP3   OH272367   2.096   3.039   4.806 -0.0757 -0.5676 -0.1111
16959TIP3    H172368   2.115   3.118   4.756 -0.6923  0.7892  1.6831
16959TIP3    H272369   2.181   3.009   4.837 -0.0308  0.9478  1.3628
16960TIP3   OH272370   1.522   2.535   0.518  0.3497  0.1842 -0.2551
16960TIP3    H172371   1.490   2.614   0.475 -1.2250  0.3912  1.2026
16960TIP3    H272372   1.544   2.563   0.607 -3.4360 -1.4811  1.4597
16961TIP3   OH272373   0.957   0.299  11.876  0.0924 -0.1018  0.4989
16961TIP3    H172374   0.931   0.368  11.814  1.6926  0.1431  0.0338
16961TIP3    H272375   1.018   0.244  11.825  0.5642 -0.5512  1.5239
16962TIP3   OH272376   1.693   1.871  13.100  0.2349 -0.0370  0.0194
16962TIP3    H172377   1.762   1.830  13.048  0.5356 -0.5584  0.8068
16962TIP3    H272378   1.727   1.958  13.121  0.7652 -0.3795  0.6037
16963TIP3   OH272379   1.675   5.521   2.887  0.2562  0.9659 -0.0851
16963TIP3    H172380   1.765   5.547   2.903  0.6031  0.6312 -1.3516
16963TIP3    H272381   1.628   5.603   2.873  1.0284  1.0502 -2.5456
16964TIP3   OH272382   1.624   3.459   5.931 -0.4164  0.0565 -0.4659
16964TIP3    H172383   1.700   3.510   5.904  0.0137  1.8869  3.5211
16964TIP3    H272384   1.654   3.368   5.927  0.9513  0.5191 -1.7538
16965TIP3   OH272385   0.232   1.558  11.613 -0.0819 -0.3402 -0.0319
16965TIP3    H172386   0.191   1.639  11.584 -1.1999 -0.6983  0.5178
16965TIP3    H272387   0.171   1.489  11.586  0.7881 -1.0059 -0.3754
16966TIP3   OH272388   0.552   1.396  16.692  0.0871 -0.1364  0.0768
16966TIP3    H172389   0.625   1.338  16.714  0.7165  0.6627  0.1708
16966TIP3    H272390   0.539   1.449  16.771  1.5768  1.9442 -0.9746
16967TIP3   OH272391   6.799   3.452  14.674 -0.1552  0.1768  0.2680
16967TIP3    H172392   6.819   3.527  14.729 -0.9066 -0.0252  0.8378
16967TIP3    H272393   6.705   3.457  14.659 -0.2650 -0.7825  0.5302
16968TIP3   OH272394   5.689   2.612  13.612  0.0063 -0.2848 -0.0792
16968TIP3    H172395   5.735   2.694  13.598  0.2080 -0.2833  0.5315
16968TIP3    H272396   5.739   2.568  13.681 -0.5190 -0.5825  0.1208
16969TIP3   OH272397   4.149   1.922  15.398  0.6833  0.1057  0.3000
16969TIP3    H172398   4.066   1.923  15.351  0.1656 -0.7361  1.1668
16969TIP3    H272399   4.125   1.946  15.488  1.5133  0.7596  0.3535
16970TIP3   OH272400   1.202   2.613   5.447 -0.3956 -0.8164  0.5225
16970TIP3    H172401   1.297   2.628   5.447 -0.6348  0.8911  0.7377
16970TIP3    H272402   1.183   2.578   5.360  0.9488 -5.3420  1.7982
16971TIP3   OH272403   0.933   3.443  15.199  0.4098 -0.0271 -0.1316
16971TIP3    H172404   0.847   3.456  15.159  0.2764  0.9547  0.4581
16971TIP3    H272405   0.975   3.529  15.196  0.6479 -0.0729  1.2616
16972TIP3   OH272406   4.940   0.296   0.973  0.4372  0.0874 -0.7484
16972TIP3    H172407   4.934   0.298   0.878  0.1755  0.9190 -0.7213
16972TIP3    H272408   5.001   0.225   0.992 -2.4495 -2.8068 -1.4015
16973TIP3   OH272409   1.714   1.060  16.804 -0.2224 -0.0347 -0.2340
16973TIP3    H172410   1.689   1.152  16.802  0.3309  0.1232 -0.1299
16973TIP3    H272411   1.731   1.042  16.896 -2.4037 -0.8332  0.0710
16974TIP3   OH272412   5.760   1.510   2.588 -0.1118 -0.8587 -0.0252
16974TIP3    H172413   5.689   1.574   2.591  0.1093 -0.5662 -0.6807
16974TIP3    H272414   5.716   1.425   2.586 -0.5124 -0.6598 -1.6465
16975TIP3   OH272415   1.469   4.074  14.308  0.1578  0.3531  0.7478
16975TIP3    H172416   1.517   4.136  14.363  0.6963  1.0956 -0.5135
16975TIP3    H272417   1.530   4.053  14.237 -0.6224 -0.3559  0.2682
16976TIP3   OH272418   4.115   6.662  17.259  0.6872 -0.0732 -0.2377
16976TIP3    H172419   4.126   6.713  17.178  0.4224 -2.1096 -1.6302
16976TIP3    H272420   4.158   6.579  17.240  0.3481 -0.7089  1.6419
16977TIP3   OH272421   1.903   0.825   2.945 -0.3827  0.0901  0.4231
16977TIP3    H172422   1.841   0.826   3.017  0.2444  2.2480  0.9885
16977TIP3    H272423   1.883   0.903   2.893  1.8684  0.9215  0.6831
16978TIP3   OH272424   2.931   3.439  12.106 -0.3280  0.2561  0.2116
16978TIP3    H172425   2.904   3.456  12.016 -1.6229 -0.6158  0.4129
16978TIP3    H272426   2.952   3.525  12.141  2.8199  0.4131 -1.6742
16979TIP3   OH272427   2.075   4.186  11.249 -0.0558 -0.0920 -0.0531
16979TIP3    H172428   2.122   4.139  11.180 -0.7681 -1.0323  0.0964
16979TIP3    H272429   1.990   4.143  11.255  0.0162 -0.0750  1.4608
16980TIP3   OH272430   4.490   4.947   6.331  0.1946  0.3386 -0.7101
16980TIP3    H172431   4.484   5.042   6.337  0.5715  0.2789  2.8455
16980TIP3    H272432   4.583   4.928   6.328  0.3081  0.1169  1.8609
16981TIP3   OH272433   4.763   3.571  16.908 -0.2745  0.4086 -0.1597
16981TIP3    H172434   4.709   3.492  16.901 -1.5312  1.2107  0.1074
16981TIP3    H272435   4.797   3.584  16.820 -1.1119  0.2865 -0.5112
16982TIP3   OH272436   1.649   5.186  13.927  0.2917 -0.0630 -0.4894
16982TIP3    H172437   1.558   5.216  13.918  0.4942  0.7912  0.1391
16982TIP3    H272438   1.688   5.202  13.842  0.3789  1.4825 -0.1937
16983TIP3   OH272439   5.687   4.610  12.405 -0.9254  0.2410  0.4573
16983TIP3    H172440   5.696   4.667  12.481 -2.8062 -2.0442  2.5591
16983TIP3    H272441   5.669   4.524  12.442 -1.1428 -1.1443 -2.6018
16984TIP3   OH272442   1.318   1.752   4.233 -0.0450 -0.1389  0.2405
16984TIP3    H172443   1.395   1.698   4.216 -0.0926 -0.3872  0.7859
16984TIP3    H272444   1.264   1.742   4.155  0.0888 -0.6369  0.2089
16985TIP3   OH272445   6.252   2.840  13.946 -0.1994 -0.2220  0.2972
16985TIP3    H172446   6.215   2.812  14.030 -0.5802 -1.8368 -0.3619
16985TIP3    H272447   6.346   2.835  13.958 -0.0842  2.8685  1.6475
16986TIP3   OH272448   6.310   0.875   2.751  0.7665  0.2444  0.1753
16986TIP3    H172449   6.278   0.905   2.665  1.0914 -0.1853 -0.0949
16986TIP3    H272450   6.288   0.947   2.810  1.6849  1.1119 -0.4983
16987TIP3   OH272451   5.392   2.484   1.102  0.2657  0.0337 -0.1138
16987TIP3    H172452   5.350   2.399   1.091 -0.3436  0.0575  1.7217
16987TIP3    H272453   5.454   2.490   1.030  1.8351 -2.8607  0.8687
16988TIP3   OH272454   1.471   1.688  13.640 -0.0846 -0.0746 -0.2640
16988TIP3    H172455   1.451   1.651  13.727  0.8692  0.2209  0.0890
16988TIP3    H272456   1.504   1.614  13.590  1.0218  0.0979  0.1812
16989TIP3   OH272457   1.276   0.120  13.632  0.1348  0.0817  0.7626
16989TIP3    H172458   1.249   0.088  13.546  0.2987 -0.9241  1.0779
16989TIP3    H272459   1.335   0.194  13.612 -1.5649  1.3186  0.0569
16990TIP3   OH272460   2.755   2.794  14.830  0.0872  0.0924  0.1677
16990TIP3    H172461   2.846   2.772  14.851 -0.1857 -0.2166  1.0371
16990TIP3    H272462   2.739   2.748  14.747  0.8092  0.3831 -0.1427
16991TIP3   OH272463   1.643   5.744  14.909  0.6375  0.1210 -0.0688
16991TIP3    H172464   1.587   5.667  14.899  2.0718 -0.8905 -0.5228
16991TIP3    H272465   1.661   5.750  15.003 -0.2265  0.4782  0.0870
16992TIP3   OH272466   2.863   5.769   1.754  0.3477 -0.0287  0.2173
16992TIP3    H172467   2.881   5.676   1.768 -0.7663 -0.1546  0.8989
16992TIP3    H272468   2.895   5.812   1.833 -0.3168  0.0129  0.4638
16993TIP3   OH272469   0.591   1.219   6.510  0.0807 -0.5554  0.0902
16993TIP3    H172470   0.670   1.195   6.560 -0.8235  1.2697  2.6074
16993TIP3    H272471   0.618   1.294   6.458  0.3032 -0.6567  0.0559
16994TIP3   OH272472   0.760   6.762  16.687  0.6486 -0.3904 -0.1546
16994TIP3    H172473   0.727   6.676  16.715  0.0981 -0.2727 -0.4274
16994TIP3    H272474   0.855   6.752  16.686  0.5995 -0.9192  0.0711
16995TIP3   OH272475   1.092   2.144   4.281 -0.0400 -0.2475 -0.3207
16995TIP3    H172476   1.160   2.098   4.330 -1.1677 -0.9486  0.6606
16995TIP3    H272477   1.044   2.075   4.236  0.2154  0.2887 -1.4400
16996TIP3   OH272478   6.001   2.228  13.876 -0.9233  0.0465  0.2269
16996TIP3    H172479   5.919   2.196  13.839 -1.1458 -0.2641  0.9647
16996TIP3    H272480   6.000   2.198  13.967 -0.1544  0.3430  0.3464
16997TIP3   OH272481   5.424   0.356  15.620 -0.2620 -0.5286 -0.8352
16997TIP3    H172482   5.394   0.274  15.658 -0.4559 -0.6660 -1.2753
16997TIP3    H272483   5.515   0.340  15.598  0.0275 -0.2530  0.1048
16998TIP3   OH272484   5.551   4.155  12.804 -0.1632  0.1946  0.5869
16998TIP3    H172485   5.469   4.139  12.850  0.0477  0.0992  0.9302
16998TIP3    H272486   5.598   4.217  12.859  0.0230  0.2006  0.4234
16999TIP3   OH272487   4.180   5.005   3.066 -0.2941  0.0211  0.4328
16999TIP3    H172488   4.265   4.998   3.110  0.0056  1.1510  0.0748
16999TIP3    H272489   4.182   5.091   3.024 -2.1262  0.6248  1.4578
17000TIP3   OH272490   2.950   5.670  14.329  0.6200  0.2239  0.3993
17000TIP3    H172491   2.997   5.695  14.249 -0.7706  0.3577 -0.4141
17000TIP3    H272492   2.988   5.723  14.398  0.8881  1.1622 -0.4535
17001TIP3   OH272493   0.508   6.325  14.185 -0.3563  0.3786 -0.1896
17001TIP3    H172494   0.504   6.288  14.273  0.9530 -0.6330 -0.5182
17001TIP3    H272495   0.593   6.296  14.151  0.0938  2.4984 -1.0198
17002TIP3   OH272496   0.341   2.461  15.845  0.1810 -0.2292 -0.3889
17002TIP3    H172497   0.334   2.484  15.937 -0.2588 -0.8695 -0.2588
17002TIP3    H272498   0.253   2.435  15.819 -0.1210  1.6707 -1.4785
17003TIP3   OH272499   2.337   0.098  14.470  0.3657  0.5485  0.0501
17003TIP3    H172500   2.245   0.090  14.443  0.8950  0.1703 -1.7086
17003TIP3    H272501   2.337   0.174  14.529 -1.8439 -2.0985  3.8855
17004TIP3   OH272502   0.089   0.371  12.534  0.3931  0.3726  0.0163
17004TIP3    H172503   0.051   0.456  12.510  2.2904  1.6069  1.0862
17004TIP3    H272504   0.132   0.387  12.618  1.1427 -1.5755  0.0540
17005TIP3   OH272505   4.945   3.770   0.098 -0.0459 -0.3055  0.7047
17005TIP3    H172506   5.024   3.798   0.052 -0.3428 -1.5687 -0.6336
17005TIP3    H272507   4.888   3.736   0.030 -1.3923 -0.2441  1.7606
17006TIP3   OH272508   5.002   5.118   5.790  0.3197  0.2201  0.2782
17006TIP3    H172509   4.998   5.193   5.731  1.9832 -0.2996 -0.5794
17006TIP3    H272510   5.069   5.061   5.751 -0.0430 -1.1384  1.5498
17007TIP3   OH272511   0.292   6.764   2.748  0.5044 -0.0942 -0.2881
17007TIP3    H172512   0.313   6.857   2.743  1.9324 -0.4502 -2.6762
17007TIP3    H272513   0.275   6.738   2.657 -1.6805 -1.8211  0.5211
17008TIP3   OH272514   0.737   2.432   1.461  0.1213  0.3681 -0.5482
17008TIP3    H172515   0.651   2.463   1.432 -0.5926 -1.1472 -0.1728
17008TIP3    H272516   0.730   2.430   1.556 -0.3951 -2.1431 -0.5492
17009TIP3   OH272517   1.127   3.957  15.680 -0.2179 -0.1034  0.6974
17009TIP3    H172518   1.154   3.866  15.691  0.3330 -0.1111 -0.5342
17009TIP3    H272519   1.031   3.954  15.681 -0.2142 -0.4579  2.3005
17010TIP3   OH272520   5.594   0.675  11.178 -0.2513  0.1300  0.4588
17010TIP3    H172521   5.542   0.724  11.242  1.1459 -1.3665  2.8779
17010TIP3    H272522   5.546   0.593  11.165 -0.6495  0.5118 -0.6976
17011TIP3   OH272523   4.492   3.875   1.961  0.4168  0.0203 -0.2816
17011TIP3    H172524   4.535   3.873   2.047  0.6750  2.6174 -0.2648
17011TIP3    H272525   4.561   3.849   1.899  0.7663 -0.0815  0.1418
17012TIP3   OH272526   2.619   4.551  14.993  0.4516  0.8267 -0.0310
17012TIP3    H172527   2.659   4.638  15.001  0.8356  0.5397  1.3773
17012TIP3    H272528   2.586   4.532  15.081 -0.2152 -0.1750 -0.4900
17013TIP3   OH272529   4.473   4.436   1.951 -0.4410  0.2476 -0.2919
17013TIP3    H172530   4.547   4.483   1.912  1.2327  0.0895  2.4603
17013TIP3    H272531   4.513   4.364   2.000 -2.7000 -1.8095 -1.2884
17014TIP3   OH272532   1.985   1.118  16.498  0.0482  0.5484 -0.0763
17014TIP3    H172533   1.955   1.028  16.515 -1.0898  0.6533 -1.3841
17014TIP3    H272534   1.993   1.123  16.403 -0.5787  2.0366 -0.0732
17015TIP3   OH272535   0.733   4.699   1.559 -0.2252  0.3908  0.0648
17015TIP3    H172536   0.640   4.706   1.580 -0.0822 -0.3689  1.0328
17015TIP3    H272537   0.776   4.759   1.620  0.1375 -1.3398  1.6046
17016TIP3   OH272538   2.917   4.422  11.695  0.4595  0.0983  0.8872
17016TIP3    H172539   2.947   4.505  11.731 -0.1836  0.5750  0.3574
17016TIP3    H272540   2.886   4.443  11.607 -0.5399 -0.5227  1.0601
17017TIP3   OH272541   4.793   1.158   5.582  0.0239  0.0388  0.7058
17017TIP3    H172542   4.746   1.124   5.657  1.2613 -1.6951  0.7602
17017TIP3    H272543   4.772   1.098   5.510 -1.0736  1.6172 -0.3480
17018TIP3   OH272544   6.734   5.387   1.727 -0.6925 -0.3442  0.0146
17018TIP3    H172545   6.799   5.438   1.777 -0.3245 -1.7313  1.0151
17018TIP3    H272546   6.764   5.393   1.637  1.0244 -1.1605  0.4863
17019TIP3   OH272547   1.978   1.244   1.461 -0.7055 -0.3073 -0.7953
17019TIP3    H172548   2.001   1.332   1.492 -0.5407 -0.4803 -0.4321
17019TIP3    H272549   1.949   1.198   1.539 -4.4605  0.5584 -1.4831
17020TIP3   OH272550   5.519   4.593   4.382  0.3792 -0.6124  0.1046
17020TIP3    H172551   5.495   4.686   4.374 -0.2961 -0.7716  0.2093
17020TIP3    H272552   5.446   4.554   4.430 -0.4963 -1.6725 -1.9667
17021TIP3   OH272553   6.429   5.702  11.917 -0.5572 -0.3506  0.5131
17021TIP3    H172554   6.389   5.616  11.905 -1.0322 -0.0643  0.0035
17021TIP3    H272555   6.522   5.683  11.927 -0.6075 -0.8992  0.0181
17022TIP3   OH272556   4.196   3.646  15.085 -0.0932 -0.0660 -0.0139
17022TIP3    H172557   4.208   3.728  15.036 -0.5389  0.0838  0.1238
17022TIP3    H272558   4.281   3.632  15.128  0.0003  0.3063 -0.0672
17023TIP3   OH272559   0.481   5.787   2.599  0.3375  0.3524 -0.1603
17023TIP3    H172560   0.409   5.727   2.622  0.0045  0.2147 -1.5022
17023TIP3    H272561   0.554   5.729   2.578  0.7640  0.4890  0.8598
17024TIP3   OH272562   5.286   3.924  16.435 -0.8175  0.0814  0.0393
17024TIP3    H172563   5.286   3.831  16.461  1.7413 -0.3686 -1.1911
17024TIP3    H272564   5.373   3.955  16.461 -1.2351  1.8450 -0.5805
17025TIP3   OH272565   6.650   6.538   2.428  0.2317  0.1676 -0.3596
17025TIP3    H172566   6.597   6.465   2.395  0.8784 -0.9185  0.8875
17025TIP3    H272567   6.598   6.574   2.500  2.3330 -3.0355  3.2003
17026TIP3   OH272568   4.336   2.735   1.477  0.7274 -0.1356  0.3037
17026TIP3    H172569   4.364   2.811   1.529  1.8049  0.1504 -0.6651
17026TIP3    H272570   4.248   2.758   1.447 -0.6072 -0.9415  3.2008
17027TIP3   OH272571   5.721   1.509  15.206 -0.0524  0.8911 -0.6664
17027TIP3    H172572   5.798   1.527  15.258  0.5625  1.5264 -1.7543
17027TIP3    H272573   5.732   1.418  15.176 -0.2011  0.6698 -0.0617
17028TIP3   OH272574   6.490   4.994  12.281 -0.0468  0.1796  0.2098
17028TIP3    H172575   6.458   4.998  12.371 -1.1207 -0.7346 -0.1126
17028TIP3    H272576   6.410   4.996  12.227  0.6067  2.2793 -0.8068
17029TIP3   OH272577   1.785   6.361   1.491  0.1952  0.1240  0.0047
17029TIP3    H172578   1.839   6.415   1.549  1.1062 -1.2398  0.4614
17029TIP3    H272579   1.824   6.274   1.495 -1.0397 -0.5118 -0.9779
17030TIP3   OH272580   4.614   3.140  15.523  0.2035  0.0341 -0.0782
17030TIP3    H172581   4.659   3.198  15.583 -0.7549  1.0247 -0.2750
17030TIP3    H272582   4.637   3.051  15.552 -0.0001  0.4881  1.5534
17031TIP3   OH272583   3.427   3.056   6.371  0.7186  0.3113 -0.0312
17031TIP3    H172584   3.430   2.981   6.312 -1.5029 -0.2093  0.4455
17031TIP3    H272585   3.519   3.075   6.390  1.4028 -0.9085 -1.8524
17032TIP3   OH272586   1.054   4.575   2.129  0.5032 -0.3184 -0.5691
17032TIP3    H172587   0.993   4.603   2.061 -1.6648 -1.0151  0.9739
17032TIP3    H272588   1.138   4.568   2.084 -1.1274 -2.6862 -3.7269
17033TIP3   OH272589   4.902   3.168  15.721  0.3458 -0.2638 -0.2642
17033TIP3    H172590   4.932   3.085  15.758  0.0801 -0.3705 -0.2788
17033TIP3    H272591   4.978   3.225  15.723  0.5471 -0.5292 -0.3075
17034TIP3   OH272592   1.077   4.190   3.695  0.2475 -0.2822  0.7110
17034TIP3    H172593   1.122   4.109   3.671 -0.7837 -1.0597  1.3336
17034TIP3    H272594   1.086   4.245   3.618 -0.5288 -1.6487 -0.4109
17035TIP3   OH272595   6.193   4.336   0.436 -0.5634 -0.0822  0.3419
17035TIP3    H172596   6.126   4.276   0.470 -1.1106  0.8402  0.9308
17035TIP3    H272597   6.143   4.401   0.386  0.2123 -1.4307 -2.3956
17036TIP3   OH272598   4.696   3.830  13.345 -0.4731 -0.1437 -0.1782
17036TIP3    H172599   4.744   3.769  13.289  1.2165  1.1445 -0.2422
17036TIP3    H272600   4.703   3.915  13.301  1.6729  1.1102  2.2558
17037TIP3   OH272601   3.688   2.064   0.181 -0.0496  0.0202  0.8410
17037TIP3    H172602   3.768   2.018   0.205  0.0717 -0.0578  0.2986
17037TIP3    H272603   3.691   2.146   0.231  1.5511  1.1175 -0.9402
17038TIP3   OH272604   4.461   2.357  13.198  0.0422  0.1030  0.0135
17038TIP3    H172605   4.409   2.425  13.155  0.6660  0.4207 -0.2368
17038TIP3    H272606   4.401   2.320  13.264 -0.5740  0.3122 -0.4216
17039TIP3   OH272607   3.481   0.102   1.933 -0.2284 -0.1112  0.1971
17039TIP3    H172608   3.455   0.010   1.931 -0.1922 -0.1581  1.2745
17039TIP3    H272609   3.576   0.101   1.920 -0.4397 -0.0919 -1.5172
17040TIP3   OH272610   1.539   1.682   4.568  0.1207 -0.2279 -0.5295
17040TIP3    H172611   1.612   1.724   4.613  0.4268 -0.4952 -0.7736
17040TIP3    H272612   1.539   1.722   4.481  0.7564 -1.1230 -0.9507
17041TIP3   OH272613   6.305   5.035  13.856  0.7818  0.0076 -0.0896
17041TIP3    H172614   6.305   4.963  13.920  2.5407 -0.4250 -0.5161
17041TIP3    H272615   6.273   5.111  13.905 -1.5192 -1.1024  0.2727
17042TIP3   OH272616   5.006   0.043   3.944 -0.3447  0.7754  0.8325
17042TIP3    H172617   5.028   0.123   3.991  1.5365  0.6557  0.2222
17042TIP3    H272618   4.967   0.074   3.862 -0.4432  1.0549  0.9842
17043TIP3   OH272619   3.309   2.098   1.524  0.0121  0.3221 -0.2641
17043TIP3    H172620   3.224   2.079   1.485 -0.1598  0.4736  0.0354
17043TIP3    H272621   3.289   2.137   1.609  0.3798  0.3792 -0.2000
17044TIP3   OH272622   6.727   2.709   1.029  0.0421  0.5955  0.5993
17044TIP3    H172623   6.811   2.662   1.030 -0.6736 -0.9846 -2.5322
17044TIP3    H272624   6.732   2.768   1.105  3.1970 -0.7321  1.5905
17045TIP3   OH272625   3.176   3.963  17.062  0.3246  0.1217 -0.3550
17045TIP3    H172626   3.271   3.964  17.046  0.2994  0.5480 -0.4743
17045TIP3    H272627   3.168   3.946  17.155  0.5129 -0.1839 -0.3919
17046TIP3   OH272628   2.539   2.808  16.969 -0.2460 -0.0132  0.3251
17046TIP3    H172629   2.504   2.889  17.007  0.9228  0.9463 -0.5862
17046TIP3    H272630   2.463   2.750  16.965 -1.2555  1.2409  0.4285
17047TIP3   OH272631   1.109   4.975  15.268  0.3942  0.1730 -0.1946
17047TIP3    H172632   1.076   5.065  15.277  0.7658  0.2357  0.7228
17047TIP3    H272633   1.048   4.922  15.319  0.5727  0.0145 -0.1416
17048TIP3   OH272634   6.719   4.038   6.687  0.0848  0.2445  0.3790
17048TIP3    H172635   6.704   4.108   6.624 -0.2912  0.6160  0.8764
17048TIP3    H272636   6.631   4.009   6.711  0.2387 -0.4589  0.1148
17049TIP3   OH272637   5.554   2.917  12.477 -0.0638  0.2502 -0.2377
17049TIP3    H172638   5.507   2.945  12.399  0.9045  0.5478 -0.7345
17049TIP3    H272639   5.514   2.833  12.501  0.9461 -0.8819 -2.2608
17050TIP3   OH272640   1.393   5.147   3.734 -0.1385 -0.2322  0.0506
17050TIP3    H172641   1.309   5.177   3.701  0.3201  1.3049  0.2036
17050TIP3    H272642   1.375   5.117   3.823 -0.7237 -1.0486 -0.3295
17051TIP3   OH272643   4.273   4.770   5.907  0.3708  0.8929 -0.4564
17051TIP3    H172644   4.352   4.772   5.961  0.2704  1.2977 -0.3245
17051TIP3    H272645   4.301   4.728   5.826  0.4802  0.1189 -0.0293
17052TIP3   OH272646   0.308   3.405   0.717  0.1086  0.1720  0.1605
17052TIP3    H172647   0.292   3.483   0.663  0.9265  0.0653 -0.2527
17052TIP3    H272648   0.262   3.334   0.670 -2.1116  0.6718  1.4371
17053TIP3   OH272649   5.229   5.067  12.453  0.5899 -0.6096 -0.2309
17053TIP3    H172650   5.172   5.018  12.394 -0.5630  1.1600 -0.6792
17053TIP3    H272651   5.187   5.153  12.461  0.5712 -0.7737  3.3187
17054TIP3   OH272652   3.851   2.322  12.758  0.2910  0.6959 -0.0173
17054TIP3    H172653   3.938   2.308  12.721  0.1179  1.4531 -0.7287
17054TIP3    H272654   3.824   2.236  12.789  0.6272  0.1167 -1.2750
17055TIP3   OH272655   4.736   1.429   2.087  0.1926  0.1719  0.2442
17055TIP3    H172656   4.682   1.400   2.160 -0.1035 -0.3587 -0.1824
17055TIP3    H272657   4.705   1.518   2.068  2.2562  1.5592  2.6753
17056TIP3   OH272658   1.907   0.121  14.169 -0.0159  0.1311  0.3966
17056TIP3    H172659   1.841   0.091  14.106 -0.2242  0.3726  0.5005
17056TIP3    H272660   1.875   0.206  14.199 -0.4751 -0.4551  1.6300
17057TIP3   OH272661   5.168   1.051  13.439 -1.2175  0.5523  0.7641
17057TIP3    H172662   5.150   0.957  13.440 -0.9210  0.4454 -0.8662
17057TIP3    H272663   5.257   1.058  13.473 -1.4706  0.3285  1.5060
17058TIP3   OH272664   6.418   1.528   4.462 -0.2907 -0.1575 -0.0426
17058TIP3    H172665   6.363   1.601   4.433 -0.2223  0.2589  0.8192
17058TIP3    H272666   6.501   1.569   4.488  0.3587 -0.7537 -1.1053
17059TIP3   OH272667   6.611   6.419   3.032 -0.2890 -0.1567  0.0421
17059TIP3    H172668   6.703   6.427   3.008 -0.0841 -0.3438  0.7487
17059TIP3    H272669   6.566   6.402   2.949  0.2867  0.0897 -0.3282
17060TIP3   OH272670   6.141   3.586   5.922 -0.1796  0.2081 -0.6433
17060TIP3    H172671   6.163   3.614   6.011 -1.7899  0.4975 -0.2895
17060TIP3    H272672   6.163   3.493   5.920 -0.4825  0.1010  0.2000
17061TIP3   OH272673   5.253   3.116  15.572  0.3389 -0.1695  0.0573
17061TIP3    H172674   5.256   3.181  15.502  1.4939 -1.3955 -1.0847
17061TIP3    H272675   5.246   3.168  15.653  0.1100  1.3113 -0.8812
17062TIP3   OH272676   2.240   2.006  14.974  0.3983  0.0468  0.3028
17062TIP3    H172677   2.246   2.101  14.963 -1.7849  0.1925 -0.1119
17062TIP3    H272678   2.292   1.971  14.902  2.4919  0.8676  1.3338
17063TIP3   OH272679   5.834   5.712  13.463  0.0955 -0.3936 -0.3023
17063TIP3    H172680   5.834   5.646  13.531 -0.5187  0.9385  1.0400
17063TIP3    H272681   5.895   5.679  13.397  0.5882 -1.7781  0.8107
17064TIP3   OH272682   2.529   4.133   2.181  0.3405  0.1688 -0.3061
17064TIP3    H172683   2.604   4.191   2.197  0.4569 -0.3322  1.0719
17064TIP3    H272684   2.533   4.068   2.251 -2.8475  1.5810  1.3832
17065TIP3   OH272685   6.562   1.906   4.681 -0.3977  0.2805  0.0346
17065TIP3    H172686   6.496   1.908   4.750  0.8101 -0.9639  1.2834
17065TIP3    H272687   6.582   1.813   4.669  1.7965  0.6319  0.4190
17066TIP3   OH272688   4.366   6.503   2.903 -0.2806 -0.1468 -0.2137
17066TIP3    H172689   4.295   6.565   2.916  0.6506  0.4614  2.7555
17066TIP3    H272690   4.328   6.417   2.923 -0.1798  0.2165  1.7252
17067TIP3   OH272691   2.227   2.373  16.929 -0.2716  0.2203  0.2462
17067TIP3    H172692   2.161   2.305  16.944  0.4227 -0.4545  0.3118
17067TIP3    H272693   2.310   2.332  16.954  0.1350  1.1728  0.5042
17068TIP3   OH272694   3.343   4.760  17.182 -0.1770 -0.5587 -0.2980
17068TIP3    H172695   3.434   4.739  17.159 -0.1862 -0.1897 -0.6848
17068TIP3    H272696   3.302   4.783  17.099 -0.7320 -1.0946 -0.1798
17069TIP3   OH272697   1.512   4.399   5.342 -0.3895 -0.6030  0.0791
17069TIP3    H172698   1.514   4.479   5.393 -0.8232 -0.0339 -0.7764
17069TIP3    H272699   1.472   4.424   5.259 -0.0536 -1.5866 -0.4010
17070TIP3   OH272700   6.279   0.691  15.635 -0.0175  0.0504  0.6058
17070TIP3    H172701   6.226   0.619  15.602 -0.6902  0.9504 -0.3975
17070TIP3    H272702   6.345   0.705  15.566 -0.2959  0.7853  0.4763
17071TIP3   OH272703   5.686   3.135   1.408 -0.7890  0.1687  0.1310
17071TIP3    H172704   5.688   3.039   1.406 -0.3340  0.1450  1.0874
17071TIP3    H272705   5.673   3.157   1.501  0.3156  1.0340  0.1026
17072TIP3   OH272706   1.161   5.806  16.481  0.6504  0.2494 -0.6515
17072TIP3    H172707   1.237   5.750  16.497  1.6931  1.8276  0.1899
17072TIP3    H272708   1.152   5.806  16.385  1.5582 -0.1435 -0.7499
17073TIP3   OH272709   5.611   6.641  10.722 -0.0365 -0.5300 -0.4939
17073TIP3    H172710   5.548   6.643  10.651 -0.4092  0.7203 -0.1535
17073TIP3    H272711   5.696   6.636  10.678 -0.2977 -0.6365 -0.9951
17074TIP3   OH272712   0.147   4.673   3.899  0.1316 -0.1922  0.1185
17074TIP3    H172713   0.085   4.701   3.832  0.4027  0.0997 -0.0074
17074TIP3    H272714   0.113   4.588   3.928  0.2428 -0.5113 -0.6750
17075TIP3   OH272715   0.098   5.518   3.540  0.2351  0.1160 -0.2724
17075TIP3    H172716   0.059   5.603   3.562  2.1988  1.2879 -0.9432
17075TIP3    H272717   0.101   5.471   3.623 -1.6300  0.3506 -0.0344
17076TIP3   OH272718   3.474   5.161  13.994 -0.3094  0.5450 -0.0851
17076TIP3    H172719   3.531   5.094  14.031  0.1949  0.7061 -0.5577
17076TIP3    H272720   3.424   5.193  14.069 -0.9644 -0.7425  0.0638
17077TIP3   OH272721   4.233   6.543  11.592 -0.2603 -0.6624  0.0304
17077TIP3    H172722   4.185   6.607  11.646  0.4174 -1.5612  1.8018
17077TIP3    H272723   4.278   6.596  11.526 -1.6940  0.4229 -0.1262
17078TIP3   OH272724   5.120   3.492  16.876  0.0646 -0.0694  0.5791
17078TIP3    H172725   5.048   3.530  16.826  0.9277  0.7721 -0.0602
17078TIP3    H272726   5.177   3.452  16.810  0.5727 -0.0591  1.0022
17079TIP3   OH272727   4.947   4.862   3.823  0.1028 -0.0791 -0.0225
17079TIP3    H172728   5.001   4.940   3.834 -0.0452 -0.1036  1.0461
17079TIP3    H272729   4.879   4.887   3.762 -0.9882  1.2203  1.6454
17080TIP3   OH272730   0.580   6.355   4.393 -0.6274 -0.6203 -0.3572
17080TIP3    H172731   0.535   6.423   4.343 -0.4140  0.0660  0.3625
17080TIP3    H272732   0.551   6.368   4.484 -0.3496 -1.2984 -0.1598
17081TIP3   OH272733   5.509   4.431   3.046  0.0916  0.3137 -0.1046
17081TIP3    H172734   5.454   4.410   3.122  1.6281  0.0707  0.9919
17081TIP3    H272735   5.537   4.521   3.061  1.6920 -0.2448  0.5008
17082TIP3   OH272736   4.046   1.379  12.684  0.5228  0.2713 -0.4904
17082TIP3    H172737   4.053   1.323  12.761 -2.7027  0.5106  0.0960
17082TIP3    H272738   3.952   1.385  12.666  1.0484  1.5952 -3.4561
17083TIP3   OH272739   0.954   0.040  16.424 -0.0613 -0.5180  0.3847
17083TIP3    H172740   0.999   0.071  16.503 -1.7074 -1.8480  1.9446
17083TIP3    H272741   0.861   0.050  16.444 -0.5456 -2.2775 -0.7834
17084TIP3   OH272742   1.410   3.190   3.492  0.0498  0.3897  0.1161
17084TIP3    H172743   1.350   3.117   3.475 -0.2935  0.5368  0.6907
17084TIP3    H272744   1.354   3.261   3.524  0.3765  0.9224 -0.4538
17085TIP3   OH272745   6.585   4.888   5.013  0.8291 -0.3187  0.0315
17085TIP3    H172746   6.569   4.909   5.106 -1.2876  0.7929 -0.5125
17085TIP3    H272747   6.507   4.920   4.968  0.9710 -2.5037 -1.9330
17086TIP3   OH272748   2.213   4.804   0.904 -0.0332 -0.0923 -0.1858
17086TIP3    H172749   2.150   4.818   0.975 -0.0675 -0.7069 -0.0919
17086TIP3    H272750   2.187   4.720   0.865  0.6626 -0.2960 -0.2167
17087TIP3   OH272751   6.192   2.801   6.173 -0.3153  0.2397  0.0191
17087TIP3    H172752   6.262   2.822   6.111 -0.3845  2.1397  0.5185
17087TIP3    H272753   6.126   2.757   6.121  0.3237  0.3602 -0.9113
17088TIP3   OH272754   0.107   2.992  12.530  0.3918 -0.2024 -0.1473
17088TIP3    H172755   0.047   2.927  12.493  1.3430 -0.4140 -1.4164
17088TIP3    H272756   0.134   3.044  12.454  1.8386 -0.1449  0.3788
17089TIP3   OH272757   4.461   3.822   5.555 -0.5326  0.5141  0.4358
17089TIP3    H172758   4.493   3.767   5.485 -0.5282  0.6446  0.3351
17089TIP3    H272759   4.539   3.864   5.591 -0.5273  0.4013  0.5593
17090TIP3   OH272760   0.048   3.591   4.341  0.2589 -0.4176 -0.3573
17090TIP3    H172761  -0.041   3.570   4.311 -0.0464  0.3903 -0.0569
17090TIP3    H272762   0.076   3.662   4.283  0.5656 -0.4274 -0.2200
17091TIP3   OH272763   5.161   4.929  15.411 -0.6277 -0.6778 -0.1340
17091TIP3    H172764   5.110   4.989  15.356  0.3471 -0.7093 -1.1082
17091TIP3    H272765   5.197   4.865  15.349 -0.3933 -1.3646  0.6961
17092TIP3   OH272766   5.599   5.557   3.912 -0.5670 -0.2980 -0.0135
17092TIP3    H172767   5.644   5.559   3.997  0.3992  0.3840 -0.5212
17092TIP3    H272768   5.639   5.485   3.865  2.2048  2.0653 -1.5785
17093TIP3   OH272769   4.419   0.448  12.778  1.1083  0.3806  0.9844
17093TIP3    H172770   4.511   0.475  12.771  1.1001  0.7790  2.1589
17093TIP3    H272771   4.371   0.517  12.732  1.5549 -1.4483 -2.5188
17094TIP3   OH272772   0.354   4.536   2.262  0.3054 -0.6283 -0.2806
17094TIP3    H172773   0.273   4.555   2.215 -0.2848 -1.0391  0.5476
17094TIP3    H272774   0.424   4.569   2.204 -0.4188 -0.6501 -1.1927
17095TIP3   OH272775   3.110   2.219   5.518  0.0129 -0.9159 -0.5266
17095TIP3    H172776   3.144   2.289   5.461  0.4573 -1.5789 -1.0963
17095TIP3    H272777   3.137   2.244   5.606  0.4088 -0.5127 -0.7604
17096TIP3   OH272778   4.739   0.586   1.576  0.2922 -0.8255 -0.0201
17096TIP3    H172779   4.792   0.667   1.577 -0.5797 -0.2433  0.6324
17096TIP3    H272780   4.803   0.516   1.563  1.0866 -0.0423 -0.4441
17097TIP3   OH272781   1.878   0.762  10.902 -0.6449  0.7517 -0.1366
17097TIP3    H172782   1.879   0.694  10.834 -2.2848  0.1111  0.4342
17097TIP3    H272783   1.874   0.844  10.854 -2.6343  0.2846 -0.8663
17098TIP3   OH272784   5.652   4.099   4.418 -0.2808 -0.0259 -0.1449
17098TIP3    H172785   5.606   4.020   4.448  0.3827  0.2675  1.7805
17098TIP3    H272786   5.595   4.171   4.443  0.1339  0.2122  0.1315
17099TIP3   OH272787   3.979   2.504   5.571  0.6561 -0.1101  0.3302
17099TIP3    H172788   3.960   2.452   5.493 -2.9336 -0.1761  1.0932
17099TIP3    H272789   3.949   2.592   5.549  1.1734  0.2597  1.0745
17100TIP3   OH272790   1.802   6.786   1.257 -0.4974  0.0699 -0.4521
17100TIP3    H172791   1.870   6.829   1.204 -0.9689 -0.2147 -1.3198
17100TIP3    H272792   1.755   6.858   1.299  0.6380  0.2467  0.5488
17101TIP3   OH272793   0.190   0.312   3.102 -0.4702  0.2731 -0.9032
17101TIP3    H172794   0.258   0.322   3.169 -0.9227  3.2073 -0.7334
17101TIP3    H272795   0.124   0.256   3.143  0.1216  0.4640  0.3745
17102TIP3   OH272796   3.318   0.931   4.076 -0.8817 -0.0955  0.3997
17102TIP3    H172797   3.337   1.010   4.026 -2.3251 -0.2481 -0.4553
17102TIP3    H272798   3.246   0.956   4.134 -0.6253 -0.4952  0.8960
17103TIP3   OH272799   6.066   5.948  15.870  0.6942 -0.0459  0.1550
17103TIP3    H172800   6.059   5.913  15.782  0.6098  0.4148 -0.0221
17103TIP3    H272801   6.152   5.988  15.874  1.0017 -0.7211  0.5265
17104TIP3   OH272802   6.519   6.629   1.555 -0.6624  0.0619  0.2674
17104TIP3    H172803   6.478   6.574   1.622 -0.6202 -0.8478 -0.4418
17104TIP3    H272804   6.445   6.670   1.510 -0.7820 -0.9289 -0.4646
17105TIP3   OH272805   3.600   3.372  13.657 -0.4946  0.3490 -0.2343
17105TIP3    H172806   3.525   3.424  13.685 -0.9027 -0.2682 -0.1519
17105TIP3    H272807   3.613   3.396  13.565  0.4343  1.8859  0.2743
17106TIP3   OH272808   4.640   1.714   0.018 -0.0734  0.8638 -0.1607
17106TIP3    H172809   4.613   1.805   0.009 -0.5707  0.6510 -0.8858
17106TIP3    H272810   4.687   1.695  -0.063 -1.7644 -0.1206 -0.9547
17107TIP3   OH272811   4.189   3.933  16.582 -0.2142  0.4907 -0.1415
17107TIP3    H172812   4.271   3.964  16.544 -1.2805  2.1706 -1.2131
17107TIP3    H272813   4.196   3.838  16.580  0.6405  0.5391 -2.7217
17108TIP3   OH272814   5.108   3.824  13.073  0.3546  0.1881 -0.2642
17108TIP3    H172815   5.198   3.818  13.103 -0.1523 -1.7453  1.0222
17108TIP3    H272816   5.097   3.751  13.013 -0.7941 -0.6715  0.9325
17109TIP3   OH272817   5.166   5.183  16.750 -0.0073 -0.0146  0.1276
17109TIP3    H172818   5.195   5.270  16.776 -2.3057  0.4791  1.2122
17109TIP3    H272819   5.248   5.133  16.739  1.2726  1.5705  1.8737
17110TIP3   OH272820   1.177   0.700  13.827  0.2421 -0.0120 -0.4025
17110TIP3    H172821   1.092   0.679  13.788 -0.7128 -1.0497  2.0416
17110TIP3    H272822   1.228   0.738  13.755 -1.8493 -0.4979 -2.2401
17111TIP3   OH272823   6.269   6.425   3.321  0.4986 -0.1279  0.0947
17111TIP3    H172824   6.363   6.415   3.312  0.3285 -1.1131 -0.7514
17111TIP3    H272825   6.239   6.454   3.235  0.1344  1.2892  0.6522
17112TIP3   OH272826   0.546   2.429   3.962 -0.0876 -0.3995 -0.1811
17112TIP3    H172827   0.458   2.413   3.996 -1.2462  0.8321 -2.4432
17112TIP3    H272828   0.562   2.521   3.980  1.0441 -0.7671  0.7966
17113TIP3   OH272829   4.881   4.200   2.532  0.2368  0.2149  0.0446
17113TIP3    H172830   4.886   4.142   2.607  2.6605  0.1124 -0.1316
17113TIP3    H272831   4.804   4.169   2.483 -0.3470 -0.8149  1.5542
17114TIP3   OH272832   3.489   6.281  16.478 -0.1806 -0.3966 -0.2193
17114TIP3    H172833   3.448   6.202  16.513 -1.1848 -0.2271 -0.9787
17114TIP3    H272834   3.513   6.332  16.556 -0.8904 -0.7737  0.2545
17115TIP3   OH272835   2.041   1.404   3.399 -0.1647  0.8396 -0.0379
17115TIP3    H172836   1.956   1.440   3.426  0.1502  1.6838 -0.1269
17115TIP3    H272837   2.021   1.354   3.320 -0.9002 -0.6797  1.0601
17116TIP3   OH272838   5.787   6.267   5.276 -0.2789 -0.0694 -0.5437
17116TIP3    H172839   5.732   6.243   5.350  2.6935 -2.5583  1.0813
17116TIP3    H272840   5.758   6.210   5.204 -1.7445  0.8472 -0.7362
17117TIP3   OH272841   2.053   6.463   1.648  0.4350 -0.5635 -0.4547
17117TIP3    H172842   2.022   6.540   1.599  0.6440  0.3715  0.8174
17117TIP3    H272843   2.072   6.398   1.581 -0.9609  0.0487 -1.5031
17118TIP3   OH272844   1.169   3.274  11.952  0.5173  0.1279 -0.0274
17118TIP3    H172845   1.155   3.369  11.947 -1.0344 -0.1310 -1.4375
17118TIP3    H272846   1.132   3.249  12.036 -2.5370  0.3294 -1.1840
17119TIP3   OH272847   0.525   5.138   4.292  0.3312 -0.1081  0.5446
17119TIP3    H172848   0.614   5.144   4.327  0.3632  0.2497  0.4114
17119TIP3    H272849   0.509   5.225   4.255 -0.3952  0.1027  1.3322
17120TIP3   OH272850   5.487   2.906   2.879 -0.3049 -0.5067 -0.2385
17120TIP3    H172851   5.484   2.943   2.967  0.4764 -0.4891 -0.2144
17120TIP3    H272852   5.452   2.975   2.823 -0.3710 -0.3482 -0.0039
17121TIP3   OH272853   1.502   2.401  11.707  0.5950 -0.1017 -0.1406
17121TIP3    H172854   1.540   2.326  11.661 -0.0646  0.5173 -1.7628
17121TIP3    H272855   1.454   2.450  11.639 -0.0194  1.1211  1.1151
17122TIP3   OH272856   5.442   5.677  13.023 -0.3897 -0.2521 -0.5854
17122TIP3    H172857   5.511   5.714  12.968 -2.5081  2.9036 -1.3402
17122TIP3    H272858   5.385   5.630  12.962  0.5727 -2.2367 -0.0586
17123TIP3   OH272859   2.195   3.094  11.854  0.6805 -0.5800  0.5763
17123TIP3    H172860   2.222   3.072  11.765 -0.2007 -3.6622  0.9564
17123TIP3    H272861   2.223   3.185  11.866 -0.7361  0.5615 -3.3991
17124TIP3   OH272862   3.025   2.408  13.972  0.2100 -0.1449 -0.1737
17124TIP3    H172863   3.061   2.469  14.036 -0.4980 -0.4709  0.5519
17124TIP3    H272864   3.095   2.397  13.908  0.4283  1.2392 -0.2000
17125TIP3   OH272865   5.544   4.819   1.297  0.0461  0.5346  0.1155
17125TIP3    H172866   5.461   4.861   1.272  0.7025  1.7477 -0.1146
17125TIP3    H272867   5.595   4.815   1.216 -0.4369 -1.8739 -0.1414
17126TIP3   OH272868   5.127   5.827  12.304 -0.0876 -0.6700  0.2811
17126TIP3    H172869   5.119   5.901  12.365  1.0550 -1.3191  1.2696
17126TIP3    H272870   5.220   5.825  12.282 -0.1388 -1.7220  0.1557
17127TIP3   OH272871   6.351   2.377  14.365 -0.3098  0.3920 -0.0702
17127TIP3    H172872   6.353   2.350  14.457  0.8354  0.4907 -0.0530
17127TIP3    H272873   6.313   2.302  14.319 -0.4939  0.1778  0.4238
17128TIP3   OH272874   4.713   3.122   1.273 -0.3335  0.2977  0.6095
17128TIP3    H172875   4.716   3.091   1.183 -1.7733 -0.8640  0.9278
17128TIP3    H272876   4.803   3.147   1.293  0.2427 -0.6073 -0.7378
17129TIP3   OH272877   0.656   2.508  17.018  0.1077  0.6283  0.4479
17129TIP3    H172878   0.681   2.494  16.927 -1.3583 -0.5366  0.1851
17129TIP3    H272879   0.571   2.552  17.013 -0.3915 -0.2028  1.2313
17130TIP3   OH272880   5.084   5.706   0.262 -0.0106  0.1444 -0.1046
17130TIP3    H172881   5.150   5.774   0.273 -0.1608  0.1891  0.5678
17130TIP3    H272882   5.037   5.731   0.183  0.6765  0.1933 -0.5087
17131TIP3   OH272883   6.397   4.680  12.677 -0.3623 -0.0542 -0.1433
17131TIP3    H172884   6.486   4.678  12.711  0.2492  0.5423 -1.6275
17131TIP3    H272885   6.387   4.597  12.630 -0.0036  0.5407 -1.3159
17132TIP3   OH272886   1.711   3.258   0.015  0.0322 -0.0691  0.3914
17132TIP3    H172887   1.701   3.189   0.081 -0.8560  0.4077  0.7684
17132TIP3    H272888   1.623   3.271  -0.019 -0.5060  3.1245  2.6265
17133TIP3   OH272889   6.437   2.552   1.878 -0.0686 -0.2824  0.0881
17133TIP3    H172890   6.525   2.519   1.862 -0.1506 -0.4441 -0.0424
17133TIP3    H272891   6.446   2.614   1.950  0.7190  2.2086 -2.0079
17134TIP3   OH272892   1.612   4.681   5.397  0.6205  0.2956  0.6406
17134TIP3    H172893   1.638   4.737   5.470 -0.0120 -0.4619  1.4737
17134TIP3    H272894   1.692   4.634   5.374  0.7367  0.2453  1.1266
17135TIP3   OH272895   5.698   1.798   2.003  0.9693  0.4232  0.3569
17135TIP3    H172896   5.724   1.812   1.912 -3.8878 -0.0158 -1.3739
17135TIP3    H272897   5.654   1.879   2.029 -1.6630 -0.9558  0.5642
17136TIP3   OH272898   0.207   2.436  14.747  0.1600 -0.1111  0.4717
17136TIP3    H172899   0.163   2.358  14.781 -1.4146 -0.3896 -1.9297
17136TIP3    H272900   0.246   2.408  14.664 -1.7556  1.8846 -1.2387
17137TIP3   OH272901   5.423   4.857   5.871 -0.4660 -1.0879 -0.1070
17137TIP3    H172902   5.377   4.789   5.920 -1.6737 -1.1078 -1.2058
17137TIP3    H272903   5.476   4.903   5.936 -3.1363 -0.1285  1.5620
17138TIP3   OH272904   6.444   2.491   1.082  0.2875  0.6521 -0.4622
17138TIP3    H172905   6.386   2.527   1.149 -0.8177 -1.2707 -0.3125
17138TIP3    H272906   6.522   2.464   1.130  0.4804  1.3744 -0.3472
17139TIP3   OH272907   3.870   6.702  11.623  0.5218 -0.0252  0.3891
17139TIP3    H172908   3.922   6.659  11.692 -1.7808  0.6411  2.6931
17139TIP3    H272909   3.829   6.776  11.667 -1.6664 -0.0077 -1.5286
17140TIP3   OH272910   4.042   2.780  16.799 -0.1373 -0.6149 -0.4936
17140TIP3    H172911   4.088   2.825  16.728 -1.2580 -0.2691 -1.0127
17140TIP3    H272912   3.964   2.833  16.816  0.2574 -0.5337  1.2186
17141TIP3   OH272913   1.186   5.925   1.759 -0.1774 -0.0882 -0.3610
17141TIP3    H172914   1.249   5.856   1.737  0.3789 -0.0463  1.0134
17141TIP3    H272915   1.114   5.879   1.802 -0.4437  0.0384 -0.6630
17142TIP3   OH272916   1.585   5.605  15.181  0.0831  0.0032  0.3848
17142TIP3    H172917   1.515   5.541  15.193  0.8327 -0.9741 -0.2646
17142TIP3    H272918   1.655   5.556  15.138  1.9747  0.3869  2.8116
17143TIP3   OH272919   6.141   6.514   3.118 -0.2196 -0.4656 -0.8141
17143TIP3    H172920   6.193   6.576   3.068  1.9083 -1.3389  0.2077
17143TIP3    H272921   6.128   6.440   3.057  0.4940 -0.6035 -0.8098
17144TIP3   OH272922   5.791   2.493   2.402  0.0020  0.5521  0.0194
17144TIP3    H172923   5.796   2.411   2.354 -3.0773 -0.0604  0.5508
17144TIP3    H272924   5.767   2.559   2.337 -1.0960  0.3097  0.1615
17145TIP3   OH272925   3.820   4.667   3.904 -0.7387  0.0478 -0.1548
17145TIP3    H172926   3.882   4.612   3.952 -2.6697 -1.2310  1.0173
17145TIP3    H272927   3.872   4.704   3.832  0.8523 -2.8135 -0.6579
17146TIP3   OH272928   1.052   5.071  12.364  0.2141 -0.7919 -0.1960
17146TIP3    H172929   1.138   5.107  12.385 -0.4443 -0.1064  1.5791
17146TIP3    H272930   0.990   5.139  12.390 -0.9522 -2.0717  0.5675
17147TIP3   OH272931   1.706   5.154  12.925 -0.4398 -0.6698 -1.0574
17147TIP3    H172932   1.711   5.176  12.832 -2.6691 -1.6954 -1.4961
17147TIP3    H272933   1.654   5.073  12.927 -2.7299  0.7156  1.2210
17148TIP3   OH272934   2.497   5.302  13.836  0.9540 -0.0097 -0.2574
17148TIP3    H172935   2.424   5.347  13.794 -0.5349 -0.5458  1.6380
17148TIP3    H272936   2.525   5.361  13.906  1.3841 -0.4444 -0.0592
17149TIP3   OH272937   1.982   0.423  16.691 -0.2620  0.0084  0.1738
17149TIP3    H172938   1.912   0.372  16.650 -0.5201  0.2909  0.2608
17149TIP3    H272939   2.039   0.448  16.619 -0.3494 -0.0677  0.0785
17150TIP3   OH272940   3.056   4.375   0.588  0.8207 -0.1686  0.6606
17150TIP3    H172941   3.050   4.331   0.673  0.6366 -0.8452  0.3048
17150TIP3    H272942   3.035   4.306   0.524  1.9126  0.0825  0.0140
17151TIP3   OH272943   4.264   2.336  14.656  0.1797  0.2309 -0.2562
17151TIP3    H172944   4.282   2.287  14.736  2.4943 -1.4432 -1.7065
17151TIP3    H272945   4.199   2.282  14.610  1.1077 -0.3772 -0.8645
17152TIP3   OH272946   5.457   1.910  13.942 -0.1703  0.3831 -0.2690
17152TIP3    H172947   5.369   1.879  13.920 -0.9359  1.1144  1.6032
17152TIP3    H272948   5.444   1.998  13.978  1.1051 -0.1517  1.6702
17153TIP3   OH272949   1.991   1.203  17.146  0.1744  0.0833 -0.4390
17153TIP3    H172950   1.957   1.281  17.190  0.3384  0.0951 -0.3326
17153TIP3    H272951   1.938   1.196  17.066  0.8083  0.8561 -0.9379
17154TIP3   OH272952   3.246   2.690   4.036 -0.1488 -0.1439 -0.0462
17154TIP3    H172953   3.197   2.696   4.118 -1.3013 -0.8503 -0.6525
17154TIP3    H272954   3.197   2.743   3.974  0.2606 -0.2680 -0.4848
17155TIP3   OH272955   4.037   5.168   4.107 -0.5212  0.5146 -0.9308
17155TIP3    H172956   3.979   5.133   4.176  2.7483  2.0035  2.9700
17155TIP3    H272957   4.061   5.091   4.056 -3.6039 -0.5669 -0.9997
17156TIP3   OH272958   3.549   6.042  12.187  0.3188 -0.2522 -0.1727
17156TIP3    H172959   3.611   6.088  12.132 -0.9271  0.2733 -1.1936
17156TIP3    H272960   3.603   5.994  12.250  1.7091  0.6707 -0.6239
17157TIP3   OH272961   5.296   6.154  15.657 -0.0979  0.5333  0.4872
17157TIP3    H172962   5.276   6.066  15.689  0.9701  0.0748 -0.0565
17157TIP3    H272963   5.289   6.210  15.734  0.2059 -0.1924  1.0511
17158TIP3   OH272964   4.356   3.684  15.486  0.6434 -0.2846  0.9667
17158TIP3    H172965   4.363   3.674  15.581  1.3698 -1.9040  0.7701
17158TIP3    H272966   4.434   3.643  15.451  1.7146  2.5285 -0.2746
17159TIP3   OH272967   2.331   2.335   3.114  0.3289 -0.6459 -0.4364
17159TIP3    H172968   2.383   2.415   3.102 -0.3404  0.2455  2.1221
17159TIP3    H272969   2.378   2.285   3.180  1.2747 -2.9682 -2.6914
17160TIP3   OH272970   2.267   1.012   1.455  0.2210  0.2708  0.0248
17160TIP3    H172971   2.290   1.102   1.476 -0.0206  0.3222  0.0818
17160TIP3    H272972   2.227   0.978   1.536 -0.5630  0.4184 -0.2886
17161TIP3   OH272973   4.155   5.149   1.554 -0.0680 -0.5596  0.4268
17161TIP3    H172974   4.171   5.072   1.609  2.8059 -0.9315 -0.7936
17161TIP3    H272975   4.192   5.222   1.604  0.0373 -0.4520  0.1902
17162TIP3   OH272976   0.898   6.073  12.517  0.0237 -0.1178  0.1502
17162TIP3    H172977   0.990   6.063  12.492  0.4017  0.7035  1.1612
17162TIP3    H272978   0.857   5.990  12.491  1.2678 -0.8976  0.6107
17163TIP3   OH272979   2.730   2.270  16.146  0.0537  0.2098 -0.6831
17163TIP3    H172980   2.700   2.179  16.145  0.2669  0.1333 -0.2555
17163TIP3    H272981   2.821   2.266  16.116  0.6752  0.0457  1.1191
17164TIP3   OH272982   4.338   3.801   0.136  0.2296 -0.4695  0.2776
17164TIP3    H172983   4.267   3.830   0.194  0.0722  0.5552 -0.3977
17164TIP3    H272984   4.417   3.811   0.188  0.1565  1.0207  0.1533
17165TIP3   OH272985   2.062   5.762  16.133  0.2215  0.6048 -0.0171
17165TIP3    H172986   2.000   5.778  16.061 -0.5838 -0.1044  0.4944
17165TIP3    H272987   2.116   5.690  16.102 -0.0412  0.3836  0.0392
17166TIP3   OH272988   3.948   5.807   5.514 -0.6888 -0.3765 -0.4163
17166TIP3    H172989   3.890   5.767   5.579 -0.7332  0.2130 -0.0831
17166TIP3    H272990   4.023   5.839   5.565 -0.8036  0.2413 -0.6263
17167TIP3   OH272991   3.884   0.341   3.762  0.1208 -0.7767 -0.6985
17167TIP3    H172992   3.945   0.323   3.834 -0.7462 -2.7003 -0.3643
17167TIP3    H272993   3.939   0.378   3.693  1.2080 -0.1330  0.4614
17168TIP3   OH272994   2.566   6.138  12.973 -0.1660 -0.0691 -0.1244
17168TIP3    H172995   2.576   6.204  13.042 -1.3929 -0.6054  0.5867
17168TIP3    H272996   2.487   6.090  12.996 -0.0578 -0.9075 -1.3851
17169TIP3   OH272997   4.640   3.458  13.836  0.3870 -0.2606  0.0309
17169TIP3    H172998   4.730   3.488  13.825 -0.0511  1.4750  0.8347
17169TIP3    H272999   4.622   3.467  13.930 -0.9640  0.5521 -0.2691
17170TIP3   OH273000   5.793   2.213   1.394  0.3419  0.6139 -0.0825
17170TIP3    H173001   5.712   2.170   1.366  0.0062  0.7682  0.6322
17170TIP3    H273002   5.863   2.157   1.360 -0.0657  0.4743 -0.6944
17171TIP3   OH273003   4.162   2.845  17.085  0.4550 -0.4534  0.2463
17171TIP3    H173004   4.156   2.769  17.143  0.9443  0.1324  1.0657
17171TIP3    H273005   4.079   2.845  17.038  0.3499 -1.3573  0.4050
17172TIP3   OH273006   0.889   5.372   2.746 -0.6561 -0.1822  0.2605
17172TIP3    H173007   0.814   5.351   2.801 -0.6017 -1.2565 -0.0635
17172TIP3    H273008   0.960   5.316   2.777  0.3462  1.5278  1.2322
17173TIP3   OH273009   6.310   2.196  11.599  0.1711 -0.1599  0.3021
17173TIP3    H173010   6.390   2.194  11.547 -0.0755 -0.8590 -0.0729
17173TIP3    H273011   6.243   2.228  11.539  0.2163  0.6882  0.6939
17174TIP3   OH273012   5.163   0.157  14.939  0.6728 -0.0060  0.0065
17174TIP3    H173013   5.174   0.250  14.920  4.0287 -0.5827 -1.4779
17174TIP3    H273014   5.089   0.131  14.885 -1.0662  1.9138  1.2765
17175TIP3   OH273015   4.980   0.507   4.620  0.3747 -0.1148 -0.2479
17175TIP3    H173016   4.941   0.442   4.562  1.5451 -1.0553 -0.0320
17175TIP3    H273017   5.021   0.455   4.689 -0.2538  0.9515  0.9515
17176TIP3   OH273018   2.279   5.537  17.183 -0.1343  0.0498  0.5411
17176TIP3    H173019   2.232   5.601  17.129 -1.5195 -1.2974  0.0398
17176TIP3    H273020   2.291   5.580  17.267 -2.5635  0.3914  0.7811
17177TIP3   OH273021   0.583   1.141   4.268  0.0989  0.3183  0.1437
17177TIP3    H173022   0.599   1.072   4.204 -0.1508 -0.7876  1.2309
17177TIP3    H273023   0.556   1.095   4.347  2.7557  1.4421  1.8496
17178TIP3   OH273024   2.395   3.592  12.624 -0.1169 -0.0970 -0.5475
17178TIP3    H173025   2.424   3.646  12.698  0.5367 -0.4599 -0.5230
17178TIP3    H273026   2.425   3.640  12.546  1.0989 -0.7452 -0.5084
17179TIP3   OH273027   2.822   5.608   4.865  0.1794 -0.2394 -0.2726
17179TIP3    H173028   2.757   5.572   4.805 -1.2121  2.5812 -0.6245
17179TIP3    H273029   2.843   5.536   4.924 -1.7769 -1.8041 -1.3771
17180TIP3   OH273030   4.000   4.717   5.546  0.4061 -0.2744 -0.2593
17180TIP3    H173031   3.965   4.646   5.600  0.3105 -0.2505 -0.2897
17180TIP3    H273032   3.932   4.733   5.480  0.3565 -0.0455 -0.1551
17181TIP3   OH273033   4.261   4.590  11.695  0.3207  0.1570  0.2439
17181TIP3    H173034   4.239   4.506  11.736 -1.5869  0.4692 -0.0281
17181TIP3    H273035   4.351   4.608  11.724  0.4688 -1.5530  0.9930
17182TIP3   OH273036   1.581   6.345   0.035  0.6175 -0.3854  0.0529
17182TIP3    H173037   1.597   6.298   0.117  0.9718 -1.3309 -0.5470
17182TIP3    H273038   1.618   6.289  -0.033 -0.0552  0.1793 -0.8013
17183TIP3   OH273039   3.466   2.289  11.974 -0.1045  0.0029  0.0093
17183TIP3    H173040   3.480   2.199  11.945  0.8665 -0.0812  0.6610
17183TIP3    H273041   3.372   2.295  11.990 -0.1238 -1.0445  0.3979
17184TIP3   OH273042   2.190   1.110   2.653  0.3893  0.0530  0.0819
17184TIP3    H173043   2.156   1.077   2.570  0.8284 -0.4263  0.0883
17184TIP3    H273044   2.184   1.205   2.645 -1.4895 -0.0080  0.3059
17185TIP3   OH273045   5.814   0.910  16.018  0.2774 -0.0318 -0.1356
17185TIP3    H173046   5.905   0.905  16.047  0.1675 -0.5271  0.1278
17185TIP3    H273047   5.792   1.003  16.026  0.7977  0.1091 -0.3184
17186TIP3   OH273048   3.457   5.933   0.104  0.1390 -0.4512  0.1122
17186TIP3    H173049   3.465   5.850   0.150  0.5419 -0.7214 -0.4263
17186TIP3    H273050   3.405   5.989   0.162 -0.9402 -1.3778  0.0607
17187TIP3   OH273051   2.380   6.459   6.114 -0.7727 -0.5582  0.4946
17187TIP3    H173052   2.286   6.450   6.131 -0.5748  1.5391  3.4460
17187TIP3    H273053   2.421   6.400   6.176 -0.0938 -0.5642  0.0465
17188TIP3   OH273054   0.938   6.119  14.148  0.2003 -0.4255 -0.0029
17188TIP3    H173055   0.899   6.052  14.205 -1.8044 -0.3652 -1.2123
17188TIP3    H273056   0.943   6.197  14.203 -0.1802 -0.7955  0.5671
17189TIP3   OH273057   1.499   1.816  16.795 -0.0493 -0.6227  0.0159
17189TIP3    H173058   1.416   1.814  16.843  0.0686  0.3467  0.2835
17189TIP3    H273059   1.539   1.899  16.820  1.9132 -1.9054  1.4353
17190TIP3   OH273060   0.964   3.642   0.515  0.2358 -0.6774 -0.1904
17190TIP3    H173061   1.057   3.622   0.501  0.4700  0.8503 -1.0891
17190TIP3    H273062   0.955   3.732   0.485 -1.5506 -0.7984 -0.0970
17191TIP3   OH273063   0.075   2.957   5.996  0.5021  0.0520  0.0460
17191TIP3    H173064   0.082   3.045   6.031 -1.6008  1.4812 -2.7776
17191TIP3    H273065   0.009   2.914   6.051  0.1686  0.8505  0.2773
17192TIP3   OH273066   1.380   3.933  11.339 -0.5296  0.1819  0.2829
17192TIP3    H173067   1.382   3.955  11.432  2.1845  0.9383  0.1227
17192TIP3    H273068   1.308   3.985  11.304 -1.9770 -0.5369  1.9814
17193TIP3   OH273069   2.866   0.995   1.363 -1.1722 -0.2572  0.5251
17193TIP3    H173070   2.932   0.952   1.308  0.3064  1.0045  1.2460
17193TIP3    H273071   2.867   1.086   1.336  0.8143  0.7993  3.6050
17194TIP3   OH273072   2.890   6.387   3.040  0.1921 -0.2886 -0.2772
17194TIP3    H173073   2.985   6.393   3.043  0.2111 -0.5561  2.5957
17194TIP3    H273074   2.871   6.297   3.065 -0.8151  0.1917  0.7865
17195TIP3   OH273075   6.545   2.562   0.159  0.2242 -1.2452 -0.0537
17195TIP3    H173076   6.474   2.497   0.158  0.7817 -1.8487 -1.2340
17195TIP3    H273077   6.608   2.527   0.223 -0.4153 -0.8097  0.8452
17196TIP3   OH273078   3.660   5.708  15.266 -0.0521 -0.1186 -0.0691
17196TIP3    H173079   3.588   5.702  15.328  1.2990  0.3217  1.6124
17196TIP3    H273080   3.618   5.706  15.180 -2.1962  1.7345  0.8489
17197TIP3   OH273081   5.816   3.619  16.584  0.0468  0.0148  0.0569
17197TIP3    H173082   5.784   3.578  16.665 -2.4011  0.5742 -0.5546
17197TIP3    H273083   5.826   3.546  16.523  2.8655 -0.5578  1.0445
17198TIP3   OH273084   3.064   4.611   3.723  0.2064 -0.6497 -0.1079
17198TIP3    H173085   3.126   4.587   3.792  0.0078 -0.0145  0.2989
17198TIP3    H273086   2.990   4.650   3.770  2.3989  5.3966 -0.7542
17199TIP3   OH273087   3.975   6.117  16.314  0.2779  0.0133 -0.5599
17199TIP3    H173088   3.949   6.164  16.393 -0.6043 -3.1882  1.2588
17199TIP3    H273089   4.065   6.087  16.332  0.4299  0.0715 -1.1923
17200TIP3   OH273090   1.713   3.524  12.446 -0.4139 -0.1214 -0.1572
17200TIP3    H173091   1.690   3.530  12.539  0.8633 -2.7742  0.4132
17200TIP3    H273092   1.808   3.532  12.444 -0.4762  0.5054 -1.3304
17201TIP3   OH273093   3.306   0.428  13.747 -0.1466 -0.0198  0.3350
17201TIP3    H173094   3.356   0.505  13.720  0.3544  0.0805  1.5167
17201TIP3    H273095   3.302   0.374  13.668 -0.4395  1.1691 -0.4845
17202TIP3   OH273096   5.096   5.317  15.756 -0.2390  0.0078  0.1845
17202TIP3    H173097   5.017   5.264  15.772  0.2306 -0.4375  1.0808
17202TIP3    H273098   5.078   5.400  15.799 -0.4395  0.1217 -0.1067
17203TIP3   OH273099   6.382   4.406  14.283 -0.2836  0.7570  0.0592
17203TIP3    H173100   6.448   4.414  14.352 -0.9712  0.6228  0.7472
17203TIP3    H273101   6.302   4.442  14.322 -0.9581 -0.3267 -0.2878
17204TIP3   OH273102   0.930   4.519   4.965  0.0903  0.2699 -0.1466
17204TIP3    H173103   0.973   4.531   4.881 -1.3037  1.7979 -0.6963
17204TIP3    H273104   0.968   4.439   5.001  0.2468 -0.7945 -2.5267
17205TIP3   OH273105   3.486   1.042  16.525 -1.3627 -0.1549 -0.2421
17205TIP3    H173106   3.517   1.104  16.458 -2.1239  0.1498 -0.3277
17205TIP3    H273107   3.452   1.098  16.595  0.2629 -0.4557  0.8350
17206TIP3   OH273108   1.404   3.309   0.746 -0.3510 -0.4444  0.4020
17206TIP3    H173109   1.341   3.366   0.703  0.1881  0.6118  0.9659
17206TIP3    H273110   1.403   3.229   0.694  0.7601  0.9809 -2.0203
17207TIP3   OH273111   2.410   3.466  11.346  0.0387 -0.3241 -0.6016
17207TIP3    H173112   2.446   3.417  11.419 -3.1880 -0.1583  1.2929
17207TIP3    H273113   2.378   3.400  11.285  0.2167 -0.4899 -0.5146
17208TIP3   OH273114   0.288   1.985   5.614 -0.2204 -0.3347 -0.0416
17208TIP3    H173115   0.345   1.956   5.685  2.4219  0.2343 -1.7761
17208TIP3    H273116   0.237   2.057   5.651  1.6356  0.4513  1.1321
17209TIP3   OH273117   1.866   4.379   2.384  0.3201 -0.2694 -1.4968
17209TIP3    H173118   1.825   4.357   2.468  2.3130  0.4597 -0.2297
17209TIP3    H273119   1.802   4.435   2.340 -1.0145 -1.1459 -0.7466
17210TIP3   OH273120   6.807   6.530   1.724  1.0627 -0.5666 -0.2890
17210TIP3    H173121   6.836   6.572   1.805 -1.0079  3.3189 -1.3347
17210TIP3    H273122   6.733   6.476   1.750  0.9383 -0.0138  0.5274
17211TIP3   OH273123   5.415   3.214  11.478 -0.0518  0.3921 -0.1512
17211TIP3    H173124   5.420   3.276  11.550  0.5907 -1.1071  1.1455
17211TIP3    H273125   5.325   3.223  11.444 -0.7622  0.2998  1.6093
17212TIP3   OH273126   0.282   0.049  14.971  0.0966 -0.0528 -0.6185
17212TIP3    H173127   0.288  -0.032  15.022 -0.4440 -0.4110 -1.1096
17212TIP3    H273128   0.349   0.106  15.009 -0.5431 -0.1632  0.7439
17213TIP3   OH273129   0.067   6.292   1.116  0.3622 -0.4677  0.3703
17213TIP3    H173130   0.023   6.269   1.198 -0.8649 -0.3063 -0.2283
17213TIP3    H273131   0.022   6.370   1.085 -0.0892 -1.2713 -1.1269
17214TIP3   OH273132   4.740   2.361  12.867  0.0557  0.2236 -0.1788
17214TIP3    H173133   4.745   2.333  12.775  0.1201  1.0132 -0.4236
17214TIP3    H273134   4.725   2.280  12.915  2.3822 -0.5656 -0.6444
17215TIP3   OH273135   3.359   0.543   4.387  0.2325 -0.0259 -0.1390
17215TIP3    H173136   3.307   0.462   4.388  1.2063 -0.6668 -0.0306
17215TIP3    H273137   3.436   0.521   4.335  1.0396  0.4967  0.8123
17216TIP3   OH273138   4.455   2.630  16.177 -0.2899 -0.0009  0.0441
17216TIP3    H173139   4.451   2.659  16.086 -3.8147  0.0714  0.1051
17216TIP3    H273140   4.452   2.534  16.171  0.0025 -0.0151  0.0978
17217TIP3   OH273141   0.922   2.698   3.847  0.4872  0.6546 -0.9838
17217TIP3    H173142   0.965   2.649   3.777 -0.1412 -0.6332 -0.5171
17217TIP3    H273143   0.898   2.631   3.911 -0.8109  1.5168 -0.5243
17218TIP3   OH273144   2.952   2.369   5.168  0.5994  0.1852  0.5717
17218TIP3    H173145   2.876   2.421   5.192  0.1932 -0.5739  0.9969
17218TIP3    H273146   2.954   2.371   5.072  0.0771  0.2690  0.5598
17219TIP3   OH273147   6.677   2.116  11.641 -0.3787  0.2415  0.3944
17219TIP3    H173148   6.637   2.058  11.705  0.4231 -0.7170  0.0589
17219TIP3    H273149   6.633   2.095  11.559  0.9531 -1.0514 -0.0437
17220TIP3   OH273150   0.355   3.863   3.542 -0.6525 -0.0041  0.2124
17220TIP3    H173151   0.292   3.794   3.562  0.1389 -0.4531  1.2542
17220TIP3    H273152   0.410   3.868   3.620 -0.2247  1.2942 -0.1493
17221TIP3   OH273153   5.335   5.880   5.570  0.3194 -0.2693  0.6529
17221TIP3    H173154   5.316   5.787   5.581  0.4669 -0.4887 -0.7677
17221TIP3    H273155   5.369   5.908   5.655 -1.9173 -0.9388  1.8275
17222TIP3   OH273156   2.262   3.393   5.344 -0.0642  0.0213 -0.1298
17222TIP3    H173157   2.266   3.466   5.281  0.4744 -2.0645 -2.6701
17222TIP3    H273158   2.304   3.428   5.423  0.2310  2.4391 -1.2408
17223TIP3   OH273159   0.633   2.802   1.358 -0.1375 -0.1238 -0.1881
17223TIP3    H173160   0.719   2.759   1.354 -0.0454 -0.1247  1.2895
17223TIP3    H273161   0.571   2.729   1.364 -0.2406 -0.1134 -0.9598
17224TIP3   OH273162   2.559   1.605   3.060  0.6292 -0.3046 -0.4984
17224TIP3    H173163   2.551   1.622   2.966  1.9629 -0.6449 -0.7027
17224TIP3    H273164   2.470   1.592   3.090  0.2825 -1.8821 -2.0585
17225TIP3   OH273165   3.770   0.221  13.835  0.4483  0.4542  0.1279
17225TIP3    H173166   3.717   0.301  13.829  2.3094  1.7805  0.4456
17225TIP3    H273167   3.813   0.214  13.750  0.5175 -0.0648  0.1994
17226TIP3   OH273168   6.448   3.080   3.758  0.1820  0.1818  0.3662
17226TIP3    H173169   6.477   3.127   3.681 -1.8415  1.5808  0.3735
17226TIP3    H273170   6.450   2.988   3.732  2.2242  0.3958 -0.3583
17227TIP3   OH273171   5.302   4.603  15.068  0.0088 -0.1332  0.2317
17227TIP3    H173172   5.275   4.689  15.035 -2.3216 -0.6994  0.5333
17227TIP3    H273173   5.396   4.598  15.047 -0.0060  2.0783 -0.6231
17228TIP3   OH273174   1.042   0.219  13.318  0.3203  1.0823  0.5011
17228TIP3    H173175   0.980   0.186  13.253 -0.2053 -0.0441  1.5446
17228TIP3    H273176   1.116   0.158  13.314  0.5899  1.4072  0.4901
17229TIP3   OH273177   2.391   0.963  17.086 -0.1765 -0.3523 -0.5448
17229TIP3    H173178   2.468   0.974  17.141 -0.7719 -0.1078  0.2767
17229TIP3    H273179   2.399   0.875  17.050  1.1867  0.1795 -1.6224
17230TIP3   OH273180   5.196   1.007  10.285  0.4866  0.3393 -0.2046
17230TIP3    H173181   5.241   1.006  10.369 -0.1178  1.4645  0.1478
17230TIP3    H273182   5.192   1.099  10.260 -2.8801  0.5346  0.5237
17231TIP3   OH273183   1.149   4.417  11.971 -0.1957  0.3280 -0.3066
17231TIP3    H173184   1.061   4.426  11.935 -0.7525 -0.5923  0.7685
17231TIP3    H273185   1.137   4.369  12.052  1.4692 -1.1632 -0.8797
17232TIP3   OH273186   6.565   4.640  13.303 -0.4046 -0.0038 -0.1767
17232TIP3    H173187   6.625   4.711  13.281 -0.8568  0.7620  0.9369
17232TIP3    H273188   6.596   4.565  13.252  2.2980 -0.0251  1.3212
17233TIP3   OH273189   5.942   1.755  15.887 -0.2512  0.2017  0.8446
17233TIP3    H173190   5.868   1.698  15.869  1.2408 -2.0473  1.4541
17233TIP3    H273191   5.914   1.841  15.855 -2.4472 -0.9100 -0.4685
17234TIP3   OH273192   0.797   0.009  14.820  0.1368 -0.2873  0.4361
17234TIP3    H173193   0.704  -0.013  14.819 -0.6240  2.6522 -0.0223
17234TIP3    H273194   0.800   0.102  14.842  2.9614 -0.1868 -0.0193
17235TIP3   OH273195   0.550   1.552   3.800  0.2368  0.2166  0.3660
17235TIP3    H173196   0.456   1.557   3.785  0.8146  1.5991 -4.0142
17235TIP3    H273197   0.572   1.634   3.842 -0.4951 -0.3368  1.9175
17236TIP3   OH273198   3.504   4.800   6.055 -0.1324 -0.1320  0.4343
17236TIP3    H173199   3.440   4.872   6.057  0.1659  0.2218 -1.3922
17236TIP3    H273200   3.453   4.723   6.082 -1.0473  0.3480  0.1426
17237TIP3   OH273201   5.700   2.873   1.950 -0.3707  0.5026  0.2673
17237TIP3    H173202   5.631   2.844   1.891  0.4559  2.9795 -2.1004
17237TIP3    H273203   5.654   2.908   2.026 -1.4894 -1.8641  0.7723
17238TIP3   OH273204   3.446   0.687   3.774  0.2078 -0.1564  0.3209
17238TIP3    H173205   3.411   0.776   3.763  0.3873 -0.0383  0.7008
17238TIP3    H273206   3.498   0.672   3.695 -0.8725 -0.4195 -0.3549
17239TIP3   OH273207   6.281   6.520   2.827 -0.5531 -0.6935  0.1045
17239TIP3    H173208   6.234   6.437   2.826  0.3604 -1.2361 -1.1491
17239TIP3    H273209   6.218   6.584   2.860 -1.1871 -1.9245  1.3579
17240TIP3   OH273210   4.545   5.866  12.526 -0.3952 -0.2673 -0.2634
17240TIP3    H173211   4.475   5.820  12.572 -1.1443  0.9331 -0.1611
17240TIP3    H273212   4.512   5.955  12.514  0.9413  0.2141 -0.6044
17241TIP3   OH273213   5.369   2.416   4.736 -0.0702  0.4810 -0.0379
17241TIP3    H173214   5.308   2.398   4.664 -0.3432  2.4558 -0.3396
17241TIP3    H273215   5.452   2.378   4.708 -0.6171 -0.3353 -0.5840
17242TIP3   OH273216   5.641   1.311   3.243 -0.5092 -0.1538  0.1076
17242TIP3    H173217   5.640   1.373   3.171 -0.3806 -1.8261 -1.3949
17242TIP3    H273218   5.611   1.228   3.205 -1.2175 -0.9168  2.1455
17243TIP3   OH273219   2.936   3.415  11.744  0.0913 -0.2020 -0.8523
17243TIP3    H173220   2.960   3.502  11.773 -1.2502 -0.4012  1.0235
17243TIP3    H273221   2.842   3.419  11.729 -0.3826 -1.7716  1.2266
17244TIP3   OH273222   3.419   6.593   4.029  0.4641 -0.1054  0.4378
17244TIP3    H173223   3.463   6.662   3.979 -0.1722  1.1149  1.4992
17244TIP3    H273224   3.335   6.631   4.053  0.0876 -1.2787  1.0404
17245TIP3   OH273225   2.241   6.285   0.255  0.0446 -0.5738 -0.9809
17245TIP3    H173226   2.252   6.285   0.160  0.1830  0.8290 -0.9877
17245TIP3    H273227   2.328   6.303   0.289 -0.3290  0.7698 -0.6739
17246TIP3   OH273228   2.013   6.162   2.660  0.2712  0.2009  0.1235
17246TIP3    H173229   2.081   6.212   2.616  1.8180 -1.4250  0.5378
17246TIP3    H273230   1.990   6.093   2.597 -1.8017  1.3253 -0.4360
17247TIP3   OH273231   3.049   1.630  16.582  0.0373  0.0717  0.3611
17247TIP3    H173232   2.997   1.560  16.543  0.2364  0.0617  0.1096
17247TIP3    H273233   3.006   1.648  16.666 -1.6596  1.5071 -0.7267
17248TIP3   OH273234   4.207   3.762   3.560 -0.2002  0.6154 -0.1599
17248TIP3    H173235   4.219   3.836   3.620  0.0028  0.0423  0.5124
17248TIP3    H273236   4.266   3.782   3.487  0.4692  0.7311  0.3904
17249TIP3   OH273237   1.302   0.866  15.590 -0.2448  0.1535 -0.0521
17249TIP3    H173238   1.324   0.856  15.497 -2.6426 -0.4794 -0.6206
17249TIP3    H273239   1.308   0.778  15.626 -1.3236  0.0377 -0.1265
17250TIP3   OH273240   5.634   1.137  16.443 -0.0900 -0.1646  0.2872
17250TIP3    H173241   5.613   1.045  16.459 -0.0053 -0.4024 -0.9009
17250TIP3    H273242   5.725   1.146  16.470  0.3805 -0.8177 -0.9835
17251TIP3   OH273243   5.136   6.057  13.887  0.4247  0.0924 -0.2129
17251TIP3    H173244   5.155   6.105  13.968 -1.7523 -1.1016  1.1097
17251TIP3    H273245   5.063   6.104  13.847 -0.6827 -1.1263  0.2821
17252TIP3   OH273246   1.676   1.217   3.536 -0.3311  0.3569  0.1418
17252TIP3    H173247   1.745   1.154   3.517 -0.8987 -0.0657 -0.6161
17252TIP3    H273248   1.649   1.197   3.626 -0.8511 -0.8600 -0.2481
17253TIP3   OH273249   2.815   0.040  14.254  0.2694 -0.1462  0.3796
17253TIP3    H173250   2.850   0.045  14.165  1.6663 -0.3353  0.9042
17253TIP3    H273251   2.731  -0.005  14.243  0.1925  0.2505 -0.8971
17254TIP3   OH273252   1.536   1.724   5.661 -0.0106  0.0053  0.1119
17254TIP3    H173253   1.484   1.758   5.588 -0.4781  2.2459  1.4052
17254TIP3    H273254   1.473   1.680   5.717 -0.1304  0.7606  0.5696
17255TIP3   OH273255   5.635   4.989  11.437 -0.7800  0.1857 -0.0022
17255TIP3    H173256   5.718   4.945  11.420 -0.5099  0.4847  0.5058
17255TIP3    H273257   5.571   4.918  11.443 -0.3518 -0.1484  0.7876
17256TIP3   OH273258   6.314   0.229  15.405  0.2743 -0.1422 -0.1057
17256TIP3    H173259   6.331   0.226  15.311 -3.2093  0.0081 -0.8514
17256TIP3    H273260   6.254   0.157  15.421 -0.3577  0.7322  1.7296
17257TIP3   OH273261   4.583   2.397   1.299  0.0226  0.5734  0.4869
17257TIP3    H173262   4.500   2.445   1.295 -1.3617 -1.6148  0.8092
17257TIP3    H273263   4.635   2.432   1.226 -1.8206  0.9298 -0.7306
17258TIP3   OH273264   2.935   1.121  11.453 -0.3629  0.1055  0.2792
17258TIP3    H173265   2.842   1.117  11.472 -0.2684  0.9544  0.9614
17258TIP3    H273266   2.944   1.082  11.366 -1.1213 -1.5792  0.9223
17259TIP3   OH273267   4.065   0.292  10.378 -0.1331  0.0497  0.0485
17259TIP3    H173268   4.063   0.251  10.464  1.9251 -0.0862  0.0681
17259TIP3    H273269   4.048   0.221  10.317  0.9242 -0.3667  0.2221
17260TIP3   OH273270   0.230   3.221  13.603  0.4029  0.1939  0.5512
17260TIP3    H173271   0.231   3.310  13.638 -1.4021  0.9118 -1.0490
17260TIP3    H273272   0.152   3.181  13.643  1.7048 -1.0590  2.0021
17261TIP3   OH273273   3.017   1.249   0.829  0.3173 -0.5379 -0.3792
17261TIP3    H173274   2.923   1.264   0.835  0.5995  1.8447 -1.0250
17261TIP3    H273275   3.045   1.238   0.920 -0.2293  1.3914  0.0595
17262TIP3   OH273276   5.297   4.432   3.477 -0.7906  0.2484 -0.8450
17262TIP3    H173277   5.245   4.379   3.537 -0.7425  0.2500 -0.8019
17262TIP3    H273278   5.270   4.522   3.495 -1.5793  0.1735 -1.5908
17263TIP3   OH273279   1.937   6.445  15.229  0.0733  0.3120  0.2673
17263TIP3    H173280   1.902   6.533  15.243  0.3596  0.6511 -1.0056
17263TIP3    H273281   1.876   6.387  15.275  0.7640  1.2536  2.5285
17264TIP3   OH273282   2.388   0.442  14.953 -0.2959 -0.1829  0.0573
17264TIP3    H173283   2.478   0.409  14.954 -0.6291 -1.1298  1.4292
17264TIP3    H273284   2.384   0.503  15.026 -0.8426 -0.4084  0.2248
17265TIP3   OH273285   3.951   4.053   1.645 -0.7802  0.1471 -0.0579
17265TIP3    H173286   4.019   4.059   1.579 -0.4161  0.0233  0.3012
17265TIP3    H273287   3.968   3.969   1.689 -1.9961 -0.5656 -0.8762
17266TIP3   OH273288   2.421   5.114  17.099 -0.0988  0.0179  0.7758
17266TIP3    H173289   2.339   5.163  17.095 -0.0766  0.0161 -0.0118
17266TIP3    H273290   2.401   5.037  17.151 -0.2632  0.6272  1.6212
17267TIP3   OH273291   5.813   2.795  14.761  0.1923 -0.2818  0.2485
17267TIP3    H173292   5.815   2.887  14.788 -0.0156 -0.1771 -0.1023
17267TIP3    H273293   5.905   2.773  14.744  0.2205 -0.0953  0.1651
17268TIP3   OH273294   4.133   0.992  12.936 -0.0761  0.7814  0.0784
17268TIP3    H173295   4.094   0.999  12.848  1.2371 -2.5605 -0.9220
17268TIP3    H273296   4.098   0.910  12.971  0.9837  1.0539  1.8748
17269TIP3   OH273297   4.699   4.138   2.919 -0.2587 -0.1707 -0.2412
17269TIP3    H173298   4.629   4.151   2.856 -0.4098  2.1025  0.3058
17269TIP3    H273299   4.767   4.091   2.870  0.1019  2.4937 -2.5044
17270TIP3   OH273300   0.406   3.845   7.164  0.3815 -0.0575  0.7177
17270TIP3    H173301   0.427   3.758   7.131  1.2563  0.4171 -0.0332
17270TIP3    H273302   0.349   3.883   7.098 -0.9819 -0.4703  1.6142
17271TIP3   OH273303   2.224   0.909   1.697  0.1575  0.3613 -0.1813
17271TIP3    H173304   2.280   0.835   1.723  0.6648  0.7042 -0.2773
17271TIP3    H273305   2.174   0.929   1.776  1.1764  0.9365  0.3386
17272TIP3   OH273306   4.290   6.229   5.968  0.0562  0.3261  0.6465
17272TIP3    H173307   4.337   6.310   5.985  1.6266 -0.3186 -0.4211
17272TIP3    H273308   4.357   6.161   5.969 -1.0707 -0.8395  0.4655
17273TIP3   OH273309   4.277   2.447   2.542  0.0885 -0.1093  0.6419
17273TIP3    H173310   4.335   2.418   2.471  1.1007  0.4959  1.1993
17273TIP3    H273311   4.255   2.537   2.521 -1.9459 -0.7662 -0.3632
17274TIP3   OH273312   6.026   6.329  15.128  0.0664 -0.4034  0.3503
17274TIP3    H173313   6.081   6.264  15.173 -0.8034 -1.7010 -0.3792
17274TIP3    H273314   6.004   6.393  15.196  0.6124 -1.0911  1.2060
17275TIP3   OH273315   1.109   2.299   5.538 -0.0321  0.4370  0.1823
17275TIP3    H173316   1.048   2.264   5.603 -1.1892 -1.0679 -1.5770
17275TIP3    H273317   1.082   2.390   5.526 -0.5364  0.4041  0.9943
17276TIP3   OH273318   5.895   3.453   1.273  0.4010 -0.0129  0.2016
17276TIP3    H173319   5.946   3.456   1.192  1.9440  0.3602  1.1429
17276TIP3    H273320   5.961   3.457   1.343 -0.9786  2.3927  1.4984
17277TIP3   OH273321   2.798   4.318   4.171  0.0562  0.1834 -0.3216
17277TIP3    H173322   2.879   4.369   4.169  0.4423 -0.1818  2.0853
17277TIP3    H273323   2.731   4.376   4.134  1.0349  1.3022 -0.3861
17278TIP3   OH273324   0.198   5.752   3.279  0.4156  0.2820 -0.5823
17278TIP3    H173325   0.133   5.681   3.281 -1.2005  1.6525 -1.5246
17278TIP3    H273326   0.211   5.770   3.186 -0.1387  2.0062 -0.3449
17279TIP3   OH273327   2.017   6.647  17.007 -0.3523  0.6279  0.3312
17279TIP3    H173328   1.944   6.648  16.945 -0.4654  0.3634  0.4603
17279TIP3    H273329   1.984   6.601  17.084  0.4489 -0.9865 -0.2410
17280TIP3   OH273330   6.757   3.085  15.638 -0.4643 -0.1593 -0.2132
17280TIP3    H173331   6.771   3.134  15.557 -0.3827  0.4059  0.1365
17280TIP3    H273332   6.779   2.995  15.615  1.3383  0.2715 -0.3580
17281TIP3   OH273333   0.822   4.089  12.594 -0.2920  0.2318  0.4443
17281TIP3    H173334   0.787   4.165  12.641 -0.7001  0.4380 -0.1881
17281TIP3    H273335   0.746   4.032  12.579 -0.1634  0.1579  0.0521
17282TIP3   OH273336   2.419   0.215  15.731  0.6179  0.0556  0.0695
17282TIP3    H173337   2.467   0.133  15.718  0.3751 -0.0429 -0.2272
17282TIP3    H273338   2.362   0.198  15.807  1.4672  0.3676  0.7911
17283TIP3   OH273339   0.615   2.652   4.841  0.3341  0.8968 -0.3272
17283TIP3    H173340   0.649   2.643   4.930  0.1312 -0.2319 -0.3527
17283TIP3    H273341   0.541   2.591   4.836 -0.5877  2.0201 -0.8237
17284TIP3   OH273342   6.146   6.119  13.421  0.3441 -0.1744  0.0418
17284TIP3    H173343   6.204   6.188  13.451 -2.7120  2.0281  1.4435
17284TIP3    H273344   6.119   6.073  13.501 -1.7987  0.6204 -0.1435
17285TIP3   OH273345   4.469   3.723   2.292  0.5375 -0.1477  0.0083
17285TIP3    H173346   4.406   3.784   2.331  1.5501  0.9101  0.0128
17285TIP3    H273347   4.528   3.778   2.241  0.7125 -1.2595 -1.0508
17286TIP3   OH273348   0.827   3.007  16.133  0.2577 -0.3048 -0.8486
17286TIP3    H173349   0.895   2.940  16.129 -0.2645 -1.1093  1.7115
17286TIP3    H273350   0.866   3.078  16.184 -0.1343  0.1507 -1.1675
17287TIP3   OH273351   1.516   5.174  11.146 -0.4517 -0.9331  0.0551
17287TIP3    H173352   1.455   5.144  11.078 -1.6269  0.4663  0.4299
17287TIP3    H273353   1.482   5.260  11.172  1.9104  0.0743  0.0439
17288TIP3   OH273354   4.853   3.314  14.119  0.2470  0.4332 -0.0289
17288TIP3    H173355   4.900   3.290  14.040 -1.3571 -0.2793 -0.8061
17288TIP3    H273356   4.883   3.252  14.186  0.6065  0.1720 -0.4336
17289TIP3   OH273357   0.020   6.623  15.992 -0.6089 -0.1520  0.6701
17289TIP3    H173358   0.003   6.549  15.934  1.0191 -0.3396  0.3615
17289TIP3    H273359   0.115   6.634  15.988 -0.7916  1.8816  0.7966
17290TIP3   OH273360   0.378   5.447  13.329  0.0270  0.1788  0.7430
17290TIP3    H173361   0.303   5.444  13.389 -0.1829 -0.2721  0.4670
17290TIP3    H273362   0.339   5.455  13.242  0.1958 -1.7828  0.4306
17291TIP3   OH273363   1.627   2.172  11.445  0.2050 -0.3132 -0.4806
17291TIP3    H173364   1.707   2.137  11.406 -0.0849  0.0482 -1.4537
17291TIP3    H273365   1.578   2.207  11.370 -0.8198 -0.4510  0.1065
17292TIP3   OH273366   4.513   2.583  11.952 -0.0131  0.0831 -0.3427
17292TIP3    H173367   4.428   2.604  11.913  0.3202  1.5300 -0.3498
17292TIP3    H273368   4.570   2.566  11.876 -0.0463  0.1186 -0.3759
17293TIP3   OH273369   4.617   4.973  12.697  0.5341 -0.3223  0.1681
17293TIP3    H173370   4.695   5.022  12.722 -1.2966  1.8455  2.1022
17293TIP3    H273371   4.608   4.988  12.602  1.3964  1.0827  0.2823
17294TIP3   OH273372   5.912   5.782  16.921  0.9111  0.1200  0.1073
17294TIP3    H173373   5.960   5.781  17.004  0.1686 -1.1488  0.5542
17294TIP3    H273374   5.974   5.749  16.857  0.2110 -3.3721  1.0068
17295TIP3   OH273375   4.251   2.147  16.390 -0.1384 -0.9773  0.1186
17295TIP3    H173376   4.327   2.104  16.351  1.7061  1.9039  0.2470
17295TIP3    H273377   4.222   2.210  16.324 -0.5313 -0.0153  1.1616
17296TIP3   OH273378   4.092   0.652  11.756  0.6028 -0.5357  0.3534
17296TIP3    H173379   4.056   0.585  11.698  0.5850  1.3317 -1.9213
17296TIP3    H273380   4.183   0.662  11.727  0.1928  1.4275 -0.4046
17297TIP3   OH273381   1.996   5.513   1.873  0.2235  0.6806  0.3989
17297TIP3    H173382   1.934   5.584   1.890  0.2853  0.5664  1.1408
17297TIP3    H273383   1.954   5.459   1.807 -1.1366 -0.2072  1.9230
17298TIP3   OH273384   1.335   0.316   4.224  0.2326  0.1012  0.4254
17298TIP3    H173385   1.388   0.373   4.169  0.6832  0.3781  1.1275
17298TIP3    H273386   1.309   0.371   4.298 -0.9010 -0.0815  0.1742
17299TIP3   OH273387   4.635   1.078   4.420 -0.2242 -0.5331 -0.0997
17299TIP3    H173388   4.643   1.093   4.326 -0.9603  2.7741  0.2521
17299TIP3    H273389   4.722   1.048   4.447  0.9994  1.6187 -1.3907
17300TIP3   OH273390   0.635   6.169  16.643  0.1312 -0.3157 -0.3051
17300TIP3    H173391   0.653   6.167  16.737 -0.6975  0.4031 -0.1179
17300TIP3    H273392   0.718   6.142  16.602  1.4232  2.0050  0.5349
17301TIP3   OH273393   1.086   2.232   2.938  0.3341 -0.0488 -0.3010
17301TIP3    H173394   1.150   2.163   2.922  1.3751  1.0379 -0.9908
17301TIP3    H273395   1.124   2.310   2.897 -0.1940  1.2412  1.5420
17302TIP3   OH273396   4.136   4.982  15.880 -0.2950 -0.1270 -0.2241
17302TIP3    H173397   4.068   4.965  15.945 -0.1192  0.9251  0.2492
17302TIP3    H273398   4.207   5.024  15.928  1.0119 -1.7867 -0.5788
17303TIP3   OH273399   4.783   0.034   2.203 -0.0352 -0.0155 -0.0427
17303TIP3    H173400   4.719   0.032   2.132 -0.7797  1.8173  0.5346
17303TIP3    H273401   4.744   0.090   2.269  1.7428  0.3358  0.7642
17304TIP3   OH273402   2.396   4.928   0.053 -0.5165 -0.2573  0.3407
17304TIP3    H173403   2.321   4.876   0.023  0.1150 -0.8200 -0.2922
17304TIP3    H273404   2.472   4.879   0.023  0.0993  1.1731 -0.5263
17305TIP3   OH273405   4.695   3.603   1.573 -0.0943 -0.0301 -0.2511
17305TIP3    H173406   4.690   3.508   1.583  0.9510  0.0003  0.7362
17305TIP3    H273407   4.780   3.619   1.532  0.0832  0.5221  0.3246
17306TIP3   OH273408   3.552   5.583   1.383  0.7420  0.2959 -0.0073
17306TIP3    H173409   3.571   5.662   1.434  1.9299 -0.2697  0.4495
17306TIP3    H273410   3.457   5.587   1.369  0.5954  1.1847  1.0505
17307TIP3   OH273411   5.566   0.625  14.300 -0.1943 -0.0539  0.3633
17307TIP3    H173412   5.638   0.603  14.359 -0.3908  0.5514  0.8319
17307TIP3    H273413   5.533   0.709  14.332 -1.6921 -0.7583  0.7010
17308TIP3   OH273414   6.227   6.483   6.314  0.1574  0.4158  0.4807
17308TIP3    H173415   6.301   6.432   6.347  0.4148  0.8659  0.6027
17308TIP3    H273416   6.241   6.571   6.348 -0.2900  0.5701  0.2761
17309TIP3   OH273417   1.374   3.056   3.120  0.2203  0.0124  0.5714
17309TIP3    H173418   1.296   3.104   3.148 -0.0013  0.5032 -0.7987
17309TIP3    H273419   1.440   3.123   3.104  0.1528 -0.1721 -0.6067
17310TIP3   OH273420   2.388   2.728   1.952 -0.0775 -0.2923 -0.0344
17310TIP3    H173421   2.366   2.705   1.862 -0.0675  0.3475 -0.2057
17310TIP3    H273422   2.407   2.822   1.949 -1.9095  0.1512  0.9841
17311TIP3   OH273423   0.385   5.042  12.870 -0.0357  0.2547  0.2204
17311TIP3    H173424   0.292   5.038  12.892 -0.2780 -0.2360 -0.8443
17311TIP3    H273425   0.421   4.960  12.904 -0.0537  0.2931  0.3332
17312TIP3   OH273426   6.479   6.806  15.494  0.3566  0.4687  0.0335
17312TIP3    H173427   6.553   6.746  15.501 -0.2242 -0.3973 -0.9119
17312TIP3    H273428   6.477   6.830  15.401 -0.4635  0.5806  0.0736
17313TIP3   OH273429   2.434   6.732  16.520  0.5910  0.4053  0.2762
17313TIP3    H173430   2.429   6.663  16.586  1.6004  0.6391  0.6193
17313TIP3    H273431   2.352   6.725  16.471  0.0476 -0.0929  1.2356
17314TIP3   OH273432   0.460   5.355   3.306 -0.0208  0.0826  0.2267
17314TIP3    H173433   0.540   5.303   3.293  0.2188  0.9879 -2.7622
17314TIP3    H273434   0.490   5.446   3.298 -1.1046  0.5102  0.8852
17315TIP3   OH273435   2.036   6.687  12.592 -0.3109 -0.3735  0.5314
17315TIP3    H173436   2.050   6.684  12.686  1.6212 -1.2784  0.2490
17315TIP3    H273437   2.096   6.755  12.561 -0.6112 -0.3928 -0.1098
17316TIP3   OH273438   2.459   5.267   1.905 -0.1755 -0.3000 -0.2500
17316TIP3    H173439   2.389   5.202   1.902  1.0851 -1.6954 -1.0285
17316TIP3    H273440   2.467   5.290   1.997  0.6028 -2.7322  0.3725
17317TIP3   OH273441   3.577   4.269  15.499  0.3026  0.1643 -0.5755
17317TIP3    H173442   3.580   4.303  15.409  0.0485  0.8779 -0.3266
17317TIP3    H273443   3.612   4.340  15.552  1.1631 -0.5410 -0.1760
17318TIP3   OH273444   4.058   4.257  14.246 -0.0642 -0.0734  0.3085
17318TIP3    H173445   4.037   4.244  14.154 -0.4306  1.2433  0.1837
17318TIP3    H273446   4.152   4.275  14.247 -0.1137  0.2016  0.1483
17319TIP3   OH273447   6.674   3.796   2.138 -0.1357 -0.0942 -0.2327
17319TIP3    H173448   6.643   3.785   2.228  1.0136  3.4427  0.7693
17319TIP3    H273449   6.730   3.720   2.123  0.1598 -0.4801  2.3167
17320TIP3   OH273450   3.687   0.370   1.749 -0.4542 -0.0176  0.0134
17320TIP3    H173451   3.747   0.436   1.715  0.6805  0.2354  2.3029
17320TIP3    H273452   3.729   0.286   1.729  0.3800  0.1407  1.0247
17321TIP3   OH273453   5.507   5.483  15.717  0.2612 -0.2078 -0.3488
17321TIP3    H173454   5.555   5.566  15.713 -1.3956  0.8721  0.6353
17321TIP3    H273455   5.428   5.504  15.768  0.9235 -2.9775  2.0817
17322TIP3   OH273456   4.281   5.128   1.291  0.4437  0.5101  0.0690
17322TIP3    H173457   4.369   5.167   1.288  1.6566 -1.9900  0.3238
17322TIP3    H273458   4.266   5.110   1.384  1.1370 -1.9633 -0.2167
17323TIP3   OH273459   1.457   3.757   3.266  0.4587  0.1072 -0.3353
17323TIP3    H173460   1.467   3.728   3.356 -0.5895 -1.7884 -0.8007
17323TIP3    H273461   1.515   3.700   3.215 -1.2465 -0.9247 -1.2069
17324TIP3   OH273462   2.759   3.646  15.286  0.1238  0.1009 -0.0567
17324TIP3    H173463   2.765   3.694  15.369  0.7451 -1.8276  1.1043
17324TIP3    H273464   2.782   3.710  15.219  0.7864  1.4352  1.3694
17325TIP3   OH273465   5.177   0.240   4.576 -0.4025 -0.4709  0.7312
17325TIP3    H173466   5.146   0.263   4.488 -0.5187  0.3067  0.9634
17325TIP3    H273467   5.220   0.320   4.607  3.8148 -2.0766 -0.3955
17326TIP3   OH273468   1.014   3.750   0.233 -0.4589  0.1333 -0.0769
17326TIP3    H173469   1.053   3.810   0.169  0.9475 -0.6285  0.0392
17326TIP3    H273470   1.010   3.801   0.314  0.0906  0.2940 -0.1458
17327TIP3   OH273471   0.745   5.098  14.206 -0.5092  0.1601  0.5326
17327TIP3    H173472   0.754   5.189  14.177 -1.5757 -0.2220 -1.1091
17327TIP3    H273473   0.651   5.086  14.217 -0.2835 -0.3228  2.3026
17328TIP3   OH273474   2.323   4.444  14.583 -0.4065 -0.5774 -0.5328
17328TIP3    H173475   2.330   4.538  14.570 -1.1548 -0.5605 -0.8556
17328TIP3    H273476   2.408   4.418  14.618  0.0434  0.1100 -1.1044
17329TIP3   OH273477   5.578   1.087  13.723 -0.2416  0.2864  0.4045
17329TIP3    H173478   5.556   1.051  13.809 -0.1114  0.0344  0.3319
17329TIP3    H273479   5.667   1.056  13.706 -0.7935 -0.8690 -0.4571
17330TIP3   OH273480   3.356   2.981  15.018  0.1453  0.1561 -0.5155
17330TIP3    H173481   3.448   3.006  15.023  0.7022 -1.6332 -1.3455
17330TIP3    H273482   3.333   2.990  14.926 -0.4897  0.4979 -0.3285
17331TIP3   OH273483   6.149   5.980   2.825 -0.2424 -0.3528  0.2116
17331TIP3    H173484   6.137   5.956   2.917 -0.8037  0.6064  0.4039
17331TIP3    H273485   6.154   5.897   2.779  0.1298 -0.8488  1.1185
17332TIP3   OH273486   3.604   5.827   1.892 -0.2375 -0.9638 -0.0234
17332TIP3    H173487   3.566   5.848   1.807  0.6851  0.6588 -0.0878
17332TIP3    H273488   3.659   5.903   1.913  2.9544 -3.1243  0.0929
17333TIP3   OH273489   5.117   2.788   5.602  0.3383  0.0213  0.7194
17333TIP3    H173490   5.156   2.777   5.516  0.6828  0.9375  0.7438
17333TIP3    H273491   5.191   2.805   5.660 -0.0284  1.2215  0.8613
17334TIP3   OH273492   3.863   5.436   3.135  0.2437  0.0530  0.3043
17334TIP3    H173493   3.897   5.430   3.046  2.0380  0.9783  0.8775
17334TIP3    H273494   3.927   5.390   3.189 -1.2394 -1.2370  1.0582
17335TIP3   OH273495   3.473   5.363  14.375 -0.4142  0.1776  0.4707
17335TIP3    H173496   3.562   5.398  14.368  0.7396 -2.4806  0.6279
17335TIP3    H273497   3.447   5.381  14.465  0.3973  0.0358  0.7392
17336TIP3   OH273498   5.389   4.499  11.846  0.2565 -0.2637  0.4245
17336TIP3    H173499   5.470   4.450  11.859  0.9573  0.3881 -1.2132
17336TIP3    H273500   5.418   4.584  11.813 -1.0691  0.2734  0.6053
17337TIP3   OH273501   4.425   2.705   0.646 -1.0503 -0.0224 -0.4335
17337TIP3    H173502   4.423   2.777   0.583  1.3203  0.2663 -0.2750
17337TIP3    H273503   4.393   2.629   0.598  0.4831  0.2491 -1.9740
17338TIP3   OH273504   3.702   3.945  14.790  0.0627 -0.0748 -0.9656
17338TIP3    H173505   3.771   3.984  14.843  0.1828 -0.8413 -0.5488
17338TIP3    H273506   3.622   3.959  14.841 -0.0814  0.7083 -1.3937
17339TIP3   OH273507   0.428   3.929   2.511 -0.2923 -0.5015 -0.2269
17339TIP3    H173508   0.380   3.978   2.445  2.5393 -1.1260 -2.9921
17339TIP3    H273509   0.378   3.848   2.522 -1.9353  0.5080  0.0689
17340TIP3   OH273510   3.521   3.846   0.073  0.1615  0.3526  0.2537
17340TIP3    H173511   3.581   3.852   0.148  0.6614 -1.5968  0.0695
17340TIP3    H273512   3.574   3.876  -0.001  0.2197  0.6575  0.4151
17341TIP3   OH273513   3.557   3.492  10.916  0.2394  0.4396 -0.1766
17341TIP3    H173514   3.621   3.529  10.855  0.5697  0.5559  0.2387
17341TIP3    H273515   3.474   3.535  10.892  0.2014 -0.0780 -1.0381
17342TIP3   OH273516   4.010   2.169   3.473 -0.1002  0.0558  0.4349
17342TIP3    H173517   4.004   2.082   3.435  0.4173  0.0761  0.2988
17342TIP3    H273518   4.090   2.206   3.436 -1.7230  1.6766 -1.7134
17343TIP3   OH273519   3.935   3.332   5.469 -0.1572  0.2081  0.3167
17343TIP3    H173520   3.931   3.304   5.560 -1.8620 -0.1210  0.1557
17343TIP3    H273521   3.880   3.410   5.465  1.4982  1.4383 -0.0495
17344TIP3   OH273522   1.383   3.248  11.187 -0.4092 -0.0609 -0.7760
17344TIP3    H173523   1.395   3.322  11.247 -2.1760  0.0933 -0.5474
17344TIP3    H273524   1.418   3.278  11.103  0.0841  0.5355 -0.3626
17345TIP3   OH273525   4.691   2.747   2.326  0.7845 -0.1190 -0.0881
17345TIP3    H173526   4.680   2.665   2.277  0.4036 -2.1164  3.0227
17345TIP3    H273527   4.609   2.757   2.374  1.8686  0.5082  1.7465
17346TIP3   OH273528   4.308   5.513   2.851 -0.8990 -0.6461 -0.3861
17346TIP3    H173529   4.383   5.559   2.887 -0.9739  0.7710 -1.9024
17346TIP3    H273530   4.253   5.583   2.815 -1.1363 -1.8929 -2.5755
17347TIP3   OH273531   5.213   1.009   4.682  0.1522  0.0974  0.1214
17347TIP3    H173532   5.157   0.960   4.743  1.7727  0.7901  2.2835
17347TIP3    H273533   5.173   0.994   4.596 -0.4332 -3.5322  0.8771
17348TIP3   OH273534   0.879   2.786   0.812  0.3457 -0.1741 -0.6150
17348TIP3    H173535   0.898   2.879   0.800  0.4325 -0.1074 -0.0052
17348TIP3    H273536   0.964   2.743   0.813  0.2357 -0.6055 -3.3739
17349TIP3   OH273537   1.708   3.643   2.302  0.7440 -0.0335  0.1709
17349TIP3    H173538   1.746   3.629   2.389 -1.7027 -1.0857  1.1557
17349TIP3    H273539   1.697   3.738   2.295  2.5905  0.2164  0.2286
17350TIP3   OH273540   1.228   3.481   1.283  0.4945  0.0906  0.0402
17350TIP3    H173541   1.180   3.557   1.252 -0.4305 -0.9066 -1.0570
17350TIP3    H273542   1.242   3.427   1.205  0.8056 -1.0384  0.8459
17351TIP3   OH273543   2.406   4.436  16.524  0.3958 -0.2107  0.1031
17351TIP3    H173544   2.429   4.485  16.445 -0.5078  0.0043 -0.0479
17351TIP3    H273545   2.342   4.492  16.568 -1.9015 -1.8951 -0.8738
17352TIP3   OH273546   1.831   5.777   5.790 -0.3962 -0.2187  0.1375
17352TIP3    H173547   1.761   5.831   5.754  0.0660  0.6306  0.4790
17352TIP3    H273548   1.798   5.687   5.786 -1.3007  0.1255 -0.1542
17353TIP3   OH273549   5.942   3.575  14.983 -0.2277  0.5633  1.2776
17353TIP3    H173550   5.979   3.645  14.929 -0.4619  1.1168  1.8229
17353TIP3    H273551   5.876   3.535  14.927 -2.0239  2.5422  1.8661
17354TIP3   OH273552   3.014   5.410   5.126  0.1123  0.4289 -1.1396
17354TIP3    H173553   3.049   5.496   5.104 -0.0464  0.3453 -1.7298
17354TIP3    H273554   2.919   5.422   5.123  0.0910  0.2890 -1.0019
17355TIP3   OH273555   3.439   4.019  13.239  0.0361 -0.2083  0.1607
17355TIP3    H173556   3.390   3.938  13.257  0.0599 -0.3149 -0.2357
17355TIP3    H273557   3.484   4.038  13.321  1.2294 -1.4244 -0.1776
17356TIP3   OH273558   2.534   4.439   4.395 -0.4814 -0.0093  0.5141
17356TIP3    H173559   2.461   4.481   4.441 -1.9480 -1.5164 -0.3552
17356TIP3    H273560   2.564   4.371   4.454 -0.4011 -0.0030  0.4802
17357TIP3   OH273561   0.054   2.120   0.388  0.6335 -0.4818  0.2695
17357TIP3    H173562   0.023   2.099   0.300 -2.0095  0.2889  0.9109
17357TIP3    H273563   0.025   2.210   0.402 -1.8912 -1.5370  2.9715
17358TIP3   OH273564   3.686   3.549  11.831  0.0975  0.0194  0.3785
17358TIP3    H173565   3.622   3.552  11.760 -0.6118 -0.4374  0.9822
17358TIP3    H273566   3.770   3.538  11.787 -0.1501  1.2695 -0.4550
17359TIP3   OH273567   4.430   4.480   3.704  0.2840 -0.3481 -0.1108
17359TIP3    H173568   4.490   4.418   3.663  1.2045  0.9191 -0.7680
17359TIP3    H273569   4.445   4.470   3.798  1.0126 -0.5555 -0.2428
17360TIP3   OH273570   3.586   0.979   4.712  0.2574  0.5816  0.3395
17360TIP3    H173571   3.670   1.008   4.677  0.3035  1.8742  1.4374
17360TIP3    H273572   3.531   1.058   4.710 -0.0460  0.4439  2.1718
17361TIP3   OH273573   4.332   5.068  12.205 -0.2191  0.1572  0.0831
17361TIP3    H173574   4.416   5.061  12.158 -0.8926 -1.0906 -1.0239
17361TIP3    H273575   4.342   5.010  12.280  0.2177  0.7059  0.4522
17362TIP3   OH273576   3.703   4.579   1.032  0.0240  0.1038  0.3981
17362TIP3    H173577   3.750   4.498   1.051  1.2716  0.1049 -2.1792
17362TIP3    H273578   3.616   4.551   1.006 -0.1391 -0.2483  1.3099
17363TIP3   OH273579   0.032   6.577  16.371 -0.0525 -0.0329 -0.4547
17363TIP3    H173580   0.087   6.544  16.300 -1.0707  0.7498 -1.6527
17363TIP3    H273581  -0.038   6.624  16.326  1.1265  3.5436  1.0755
17364TIP3   OH273582   0.447   3.516   6.097 -0.3920  0.0244  0.1049
17364TIP3    H173583   0.378   3.523   6.032 -2.0041 -0.7264  1.6388
17364TIP3    H273584   0.401   3.502   6.180  1.5190  1.8121  1.5766
17365TIP3   OH273585   2.709   0.763  14.232  0.0611  0.5213 -0.8903
17365TIP3    H173586   2.632   0.778  14.288  0.7006 -0.9220  0.4763
17365TIP3    H273587   2.675   0.715  14.157 -0.3245 -0.7167  0.0344
17366TIP3   OH273588   4.867   1.379   1.249  0.0560 -0.3171  0.3238
17366TIP3    H173589   4.827   1.465   1.263  2.3450  1.0924 -1.1665
17366TIP3    H273590   4.864   1.366   1.155  0.4653 -1.5113  0.4593
17367TIP3   OH273591   0.766   3.045   2.834  0.2484 -0.5320  0.0931
17367TIP3    H173592   0.684   3.092   2.848  0.3477 -0.8161  1.8459
17367TIP3    H273593   0.756   3.004   2.749 -1.9998 -1.6626  0.8242
17368TIP3   OH273594   6.234   5.034  14.815  0.0744  0.8166 -0.2007
17368TIP3    H173595   6.328   5.014  14.811 -0.1135  0.0644 -1.7578
17368TIP3    H273596   6.226   5.094  14.889  1.6157  0.0518  0.6577
17369TIP3   OH273597   1.248   1.239  15.406  0.0209 -0.2992 -0.1029
17369TIP3    H173598   1.247   1.281  15.492 -0.2446  1.3272 -0.8489
17369TIP3    H273599   1.340   1.244  15.379  0.1803 -1.1883  0.2401
17370TIP3   OH273600   0.355   3.765  16.364  0.3981 -0.1322  0.2224
17370TIP3    H173601   0.347   3.846  16.314 -1.5139 -0.6802 -0.4671
17370TIP3    H273602   0.421   3.714  16.317 -0.5333 -0.1657 -1.1266
17371TIP3   OH273603   3.379   2.565  12.116  0.5494  0.4081  0.1541
17371TIP3    H173604   3.340   2.650  12.136 -1.1306 -0.4163  0.5814
17371TIP3    H273605   3.457   2.585  12.065 -0.1935  2.1715 -0.3525
17372TIP3   OH273606   3.991   1.160  14.875  0.3383 -0.7231 -0.4370
17372TIP3    H173607   3.953   1.211  14.803  2.3798  2.9660  0.8050
17372TIP3    H273608   4.076   1.132  14.842  0.9868  0.3851  0.2191
17373TIP3   OH273609   4.623   5.972   4.249 -0.1618 -0.3805 -0.2652
17373TIP3    H173610   4.549   5.943   4.195 -1.0619  3.6463 -1.4959
17373TIP3    H273611   4.590   5.966   4.339 -0.6990 -1.8438 -0.5306
17374TIP3   OH273612   5.310   4.962   5.103 -0.3528  0.4513  0.3973
17374TIP3    H173613   5.395   4.920   5.089 -0.1566  0.8931  0.2502
17374TIP3    H273614   5.324   5.020   5.177 -0.7571 -0.1004  0.9258
17375TIP3   OH273615   3.623   4.830  11.543  0.1322 -0.1780 -0.4192
17375TIP3    H173616   3.601   4.742  11.574 -1.5032 -0.5837 -2.5063
17375TIP3    H273617   3.716   4.825  11.522  1.0575 -0.2058  2.9947
17376TIP3   OH273618   0.030   0.395  15.951  0.5657 -0.2583  0.7008
17376TIP3    H173619   0.057   0.386  16.043  1.3656  1.5228  0.6935
17376TIP3    H273620  -0.064   0.379  15.952  0.0304  2.3288  2.3713
17377TIP3   OH273621   4.737   0.957  13.692  0.4627  0.1000  0.6146
17377TIP3    H173622   4.678   1.030  13.709  0.2944  0.3765 -0.9683
17377TIP3    H273623   4.679   0.887  13.661  1.0366  1.2578 -3.7553
17378TIP3   OH273624   2.811   4.709  15.133  0.4216  0.3120  0.3084
17378TIP3    H173625   2.742   4.767  15.165  1.6666  1.9341  0.2482
17378TIP3    H273626   2.819   4.641  15.200 -2.3690 -0.9792 -0.5250
17379TIP3   OH273627   1.993   0.460  11.663  0.4064 -0.0656 -0.2080
17379TIP3    H173628   1.910   0.412  11.657  0.8282 -0.7233 -1.0172
17379TIP3    H273629   1.999   0.510  11.582  0.5196  0.4528  0.1166
17380TIP3   OH273630   5.902   1.369  14.130 -0.1396 -0.5353  0.0983
17380TIP3    H173631   5.931   1.452  14.169  0.3656 -0.8632  0.4291
17380TIP3    H273632   5.852   1.396  14.052  0.4922  0.0650 -0.1119
17381TIP3   OH273633   3.272   5.273  14.887  0.1888  0.1193 -0.1137
17381TIP3    H173634   3.338   5.254  14.953  1.2129  1.0868 -0.8268
17381TIP3    H273635   3.226   5.350  14.921 -0.8417 -0.7514  0.5453
17382TIP3   OH273636   3.891   4.663   1.616 -0.1970  0.3177 -0.0854
17382TIP3    H173637   3.978   4.674   1.580  1.0540 -1.5890  2.0199
17382TIP3    H273638   3.895   4.705   1.702 -1.4544  0.4369 -0.0599
17383TIP3   OH273639   4.475   0.702  16.854  0.3100  0.2644 -0.1748
17383TIP3    H173640   4.439   0.641  16.918  1.0839  0.1010  0.1118
17383TIP3    H273641   4.402   0.718  16.793  0.0511 -0.8311 -0.1772
17384TIP3   OH273642   2.843   6.305  12.584 -0.3853 -0.2928 -0.2298
17384TIP3    H173643   2.859   6.294  12.490 -0.1463 -0.8097 -0.1297
17384TIP3    H273644   2.924   6.276  12.626 -0.5262 -0.1531  0.1437
17385TIP3   OH273645   1.053   3.089   5.681 -0.0404 -0.1638 -0.2034
17385TIP3    H173646   0.996   3.135   5.743  1.1467 -0.8237  1.4501
17385TIP3    H273647   1.027   2.997   5.688  0.2771 -0.2795 -0.4910
17386TIP3   OH273648   5.602   2.456   3.434 -0.1753  0.0568 -0.3876
17386TIP3    H173649   5.525   2.404   3.457  1.1842 -1.8107  0.0829
17386TIP3    H273650   5.655   2.399   3.380  1.5664  0.8060  0.4698
17387TIP3   OH273651   5.515   6.676  11.643 -0.2770 -0.4453 -0.2266
17387TIP3    H173652   5.500   6.767  11.667  0.7973  0.1372 -1.5973
17387TIP3    H273653   5.431   6.632  11.657 -0.6201  0.5928  1.1109
17388TIP3   OH273654   0.754   1.124   2.571  0.2447  0.1418  0.1416
17388TIP3    H173655   0.720   1.046   2.527 -0.6105  0.7249 -0.2596
17388TIP3    H273656   0.756   1.191   2.503 -0.2023  0.7990  0.7615
17389TIP3   OH273657   0.032   3.425   0.380 -0.0812 -0.1175  0.3357
17389TIP3    H173658   0.042   3.392   0.291  2.9940 -2.3204  1.3340
17389TIP3    H273659  -0.062   3.414   0.400 -0.5028 -1.2166 -1.9966
17390TIP3   OH273660   2.454   1.112  11.810 -0.1812  0.2465 -0.1929
17390TIP3    H173661   2.467   1.157  11.893  1.5683 -0.8295  0.1829
17390TIP3    H273662   2.505   1.163  11.747 -1.6856  1.1894 -0.6905
17391TIP3   OH273663   1.054   0.095   0.148  0.1865  0.2130  0.4929
17391TIP3    H173664   1.001   0.166   0.110  0.8961  0.6795  0.3476
17391TIP3    H273665   1.006   0.069   0.226 -0.0428  0.9316  0.6065
17392TIP3   OH273666   0.479   6.805  10.623  0.3443 -0.4010  0.1357
17392TIP3    H173667   0.436   6.732  10.668  0.1051 -1.6984 -2.0289
17392TIP3    H273668   0.566   6.772  10.601  0.1493 -0.1472 -1.0908
17393TIP3   OH273669   0.470   2.357  11.319  0.1102 -0.0607  0.4080
17393TIP3    H173670   0.552   2.306  11.321 -0.6572 -1.3290  1.6642
17393TIP3    H273671   0.441   2.358  11.410 -0.1650  2.2834  0.3346
17394TIP3   OH273672   0.645   0.335   5.539 -0.2620  0.6495  0.0042
17394TIP3    H173673   0.703   0.407   5.566 -0.3533  0.8980 -0.4516
17394TIP3    H273674   0.612   0.362   5.453 -0.6692  0.2801  0.0419
17395TIP3   OH273675   0.046   1.257  11.135 -0.0802  0.0947  0.1809
17395TIP3    H173676   0.109   1.325  11.159 -0.9251  1.0090 -0.1297
17395TIP3    H273677   0.100   1.183  11.108  1.2018  2.5046 -5.3353
17396TIP3   OH273678   3.476   5.051   5.834  0.2359 -0.0750  0.3245
17396TIP3    H173679   3.415   5.024   5.904 -2.2524  3.2691 -0.2709
17396TIP3    H273680   3.556   5.075   5.880 -1.3352  2.0411  2.2191
17397TIP3   OH273681   0.903   0.500  12.419  0.2970 -0.1469 -0.4135
17397TIP3    H173682   0.891   0.406  12.430  2.7809 -0.4507  0.2579
17397TIP3    H273683   0.909   0.512  12.324  1.4002 -0.9245 -0.4660
17398TIP3   OH273684   0.989   6.078  16.310 -0.2034  0.8255 -0.4092
17398TIP3    H173685   1.082   6.102  16.306  0.3863 -1.3054 -0.5536
17398TIP3    H273686   0.946   6.157  16.344  1.7115  1.7097  0.1251
17399TIP3   OH273687   0.293   1.365  13.200 -0.2266 -0.2672  0.1265
17399TIP3    H173688   0.325   1.455  13.201 -0.2985 -0.0869 -2.9551
17399TIP3    H273689   0.354   1.317  13.256  0.2619  1.5325  1.2287
17400TIP3   OH273690   6.019   3.821  14.008  0.1325  0.2758  0.3210
17400TIP3    H173691   6.024   3.917  14.006 -1.1154  0.3631  0.8750
17400TIP3    H273692   5.926   3.802  13.997 -0.0075 -0.7930  2.8427
17401TIP3   OH273693   4.225   0.187  14.310 -0.2855  0.0156 -0.5581
17401TIP3    H173694   4.211   0.263  14.367 -1.4838 -0.9356  0.4665
17401TIP3    H273695   4.172   0.118  14.349  1.2214 -1.5338 -1.1392
17402TIP3   OH273696   5.729   4.580  16.389  0.5252 -0.0667 -0.4005
17402TIP3    H173697   5.779   4.660  16.370 -0.5298  0.4100 -1.2905
17402TIP3    H273698   5.774   4.541  16.464  0.6509  1.7548  0.5329
17403TIP3   OH273699   1.563   5.169   1.422 -0.1303 -0.5187  1.0046
17403TIP3    H173700   1.481   5.122   1.438 -0.1051 -1.1448 -0.5583
17403TIP3    H273701   1.591   5.197   1.509 -1.2240 -1.5941  1.7487
17404TIP3   OH273702   1.127   3.109   2.211 -0.7726  0.1359  0.3514
17404TIP3    H173703   1.082   3.192   2.229  0.3968  0.7219  0.6745
17404TIP3    H273704   1.070   3.064   2.148 -1.6324  0.9943  0.4896
17405TIP3   OH273705   0.519   5.695  13.574 -0.1158 -0.6429 -0.0710
17405TIP3    H173706   0.528   5.615  13.522  2.2710 -0.0727 -0.6599
17405TIP3    H273707   0.552   5.765  13.517 -0.5189  0.5143  1.0513
17406TIP3   OH273708   2.334   0.041  13.866 -0.3754 -0.0174 -0.3886
17406TIP3    H173709   2.404   0.077  13.920 -0.8858 -0.7799  0.8357
17406TIP3    H273710   2.258   0.095  13.886 -0.7211 -0.6850  0.1792
17407TIP3   OH273711   0.551   3.493   5.387 -0.1682 -0.2426 -0.6794
17407TIP3    H173712   0.614   3.460   5.450  0.0303  0.1990 -0.6403
17407TIP3    H273713   0.466   3.486   5.432 -0.0415 -0.0285 -0.4037
17408TIP3   OH273714   5.582   4.278  16.329  0.0118 -0.1600 -0.2580
17408TIP3    H173715   5.631   4.360  16.327  0.3956 -0.2133  2.6364
17408TIP3    H273716   5.630   4.221  16.269  1.0682  1.0398 -0.6064
17409TIP3   OH273717   4.093   6.423  10.683 -0.2854 -0.1814 -0.3437
17409TIP3    H173718   4.033   6.348  10.683  0.1256 -0.5210 -1.2852
17409TIP3    H273719   4.144   6.413  10.603  3.4990 -1.8597  1.9699
17410TIP3   OH273720   2.832   6.798   4.615  0.1204  0.3305 -0.1134
17410TIP3    H173721   2.776   6.723   4.634  0.3838  0.4944  1.4296
17410TIP3    H273722   2.772   6.873   4.614  0.1379  0.3520  0.3485
17411TIP3   OH273723   3.120   0.501   0.435 -0.0969 -0.5333  0.0780
17411TIP3    H173724   3.135   0.575   0.494  0.2258 -1.7339  1.5792
17411TIP3    H273725   3.101   0.541   0.350  0.5987  1.2417  0.7134
17412TIP3   OH273726   2.895   2.935  11.128 -0.1722 -0.6759  0.5484
17412TIP3    H173727   2.924   3.020  11.095 -0.0383 -1.5207 -1.7352
17412TIP3    H273728   2.888   2.947  11.222  0.0700  1.7848  0.3295
17413TIP3   OH273729   4.485   5.887  15.488 -0.0945  0.6351  0.7300
17413TIP3    H173730   4.545   5.908  15.417 -0.6797  1.5371  0.4811
17413TIP3    H273731   4.400   5.922  15.459 -0.5881  0.0147  1.3803
17414TIP3   OH273732   2.222   1.754   1.135 -0.1038  0.3117  0.8445
17414TIP3    H173733   2.162   1.829   1.135 -0.4507  0.1238 -1.5186
17414TIP3    H273734   2.205   1.711   1.051  2.7830 -0.2162  0.4503
17415TIP3   OH273735   2.849   0.650  11.730 -0.1003  0.5847 -0.1457
17415TIP3    H173736   2.834   0.639  11.824 -0.3970 -0.7296 -0.3317
17415TIP3    H273737   2.790   0.722  11.706  0.0286  0.9839  0.6750
17416TIP3   OH273738   5.347   2.423  15.526 -0.2018  0.3654 -0.4636
17416TIP3    H173739   5.348   2.513  15.494 -0.8752 -0.3657 -2.7243
17416TIP3    H273740   5.426   2.383  15.489  0.3817  0.1359  0.9687
17417TIP3   OH273741   3.258   3.148   6.159 -0.0197  0.2799 -0.4724
17417TIP3    H173742   3.319   3.123   6.228 -0.4589  1.0370  0.2105
17417TIP3    H273743   3.307   3.209   6.104 -0.0634  0.6651 -0.0902
17418TIP3   OH273744   4.533   0.295   2.189  0.2933 -0.0138  0.3453
17418TIP3    H173745   4.440   0.277   2.173  0.3036  0.5536 -0.4462
17418TIP3    H273746   4.559   0.349   2.114  0.9870  0.7470  1.1178
17419TIP3   OH273747   6.362   2.595  13.479  0.2809 -0.3452  0.4834
17419TIP3    H173748   6.385   2.513  13.522 -1.2587 -0.3140  1.4371
17419TIP3    H273749   6.404   2.663  13.533  0.8529 -0.4527  0.1799
17420TIP3   OH273750   0.112   5.029  16.731  0.0460  0.3017  0.0994
17420TIP3    H173751   0.022   5.033  16.764 -0.1271 -0.5770 -0.2228
17420TIP3    H273752   0.116   5.097  16.664 -0.5524 -0.0126 -0.2693
17421TIP3   OH273753   0.054   1.534   0.694  0.2525  0.2414  0.1687
17421TIP3    H173754  -0.010   1.559   0.627  0.7737 -1.4481 -1.0104
17421TIP3    H273755   0.129   1.501   0.645  1.5250  0.9244  1.5595
17422TIP3   OH273756   4.031   1.529  15.196 -0.5085  0.2325  0.5435
17422TIP3    H173757   4.003   1.455  15.250  1.3716 -1.2878 -0.4661
17422TIP3    H273758   3.983   1.518  15.114 -0.5041  0.3781  0.5210
17423TIP3   OH273759   4.673   1.374  16.976 -0.1085  0.4289 -0.3305
17423TIP3    H173760   4.608   1.396  16.910 -1.5200  1.2231  1.2246
17423TIP3    H273761   4.674   1.279  16.978 -1.1377  0.3993 -0.5002
17424TIP3   OH273762   4.177   3.593  12.663 -0.4641 -0.7232  0.6282
17424TIP3    H173763   4.197   3.656  12.732 -0.4628  1.0046 -0.8708
17424TIP3    H273764   4.244   3.608  12.596 -1.7548 -0.7859 -0.7326
17425TIP3   OH273765   3.639   6.319  16.864  0.1580  0.7051 -0.0855
17425TIP3    H173766   3.589   6.239  16.879 -0.3359  0.8334 -0.9797
17425TIP3    H273767   3.580   6.374  16.812  1.0649  1.0346 -0.7794
17426TIP3   OH273768   1.618   3.192   5.880  0.0993 -0.5767 -0.7163
17426TIP3    H173769   1.531   3.159   5.857 -0.9334  1.3149  0.2683
17426TIP3    H273770   1.673   3.114   5.881 -2.2207 -2.3821  1.7490
17427TIP3   OH273771   2.277   0.997   1.967  0.7969 -1.0928  0.2270
17427TIP3    H173772   2.330   0.956   2.035  0.7926 -1.3409  0.0846
17427TIP3    H273773   2.323   1.078   1.946  1.1080 -1.2956  0.1213
17428TIP3   OH273774   1.111   0.645   6.304 -0.1438 -0.3447 -0.1739
17428TIP3    H173775   1.058   0.702   6.360 -2.1185 -0.9512 -1.3205
17428TIP3    H273776   1.190   0.626   6.356  0.2261  2.7333  0.5517
17429TIP3   OH273777   3.710   2.427  16.826 -0.7092 -0.3312  0.2749
17429TIP3    H173778   3.792   2.472  16.805 -0.3262 -1.4833 -0.8132
17429TIP3    H273779   3.736   2.347  16.870 -1.4479  1.0718  3.6148
17430TIP3   OH273780   0.773   1.226  17.217  0.1685  0.0358  0.2434
17430TIP3    H173781   0.814   1.191  17.296 -1.0413 -0.5619  0.6325
17430TIP3    H273782   0.716   1.295  17.249 -1.6043 -1.3146  0.1249
17431TIP3   OH273783   2.932   3.735  11.313 -0.0444  0.2567 -0.2141
17431TIP3    H173784   2.859   3.726  11.251 -1.1154  0.2194  1.0100
17431TIP3    H273785   3.003   3.684  11.274 -0.4323  0.8192 -1.7567
17432TIP3   OH273786   4.844   6.506   4.929 -0.5953 -0.6240  0.3496
17432TIP3    H173787   4.796   6.485   5.009  0.3280 -0.6296  0.9163
17432TIP3    H273788   4.933   6.523   4.958 -0.5774  0.9056 -0.4796
17433TIP3   OH273789   3.343   5.320  11.725 -1.3200 -0.8769 -0.4234
17433TIP3    H173790   3.410   5.253  11.712 -0.9268 -0.4740 -0.5001
17433TIP3    H273791   3.367   5.361  11.809 -0.6666  0.1765 -1.1023
17434TIP3   OH273792   4.737   4.090  13.271  0.7435 -0.4556  0.2145
17434TIP3    H173793   4.718   4.182  13.254  0.3741 -0.6007 -0.1558
17434TIP3    H273794   4.828   4.090  13.303  0.5147  0.1089  0.8942
17435TIP3   OH273795   2.218   1.623   3.400 -0.4614  0.1086 -0.3157
17435TIP3    H173796   2.157   1.550   3.408 -0.5293  0.2098  0.0794
17435TIP3    H273797   2.237   1.649   3.490 -1.0036  1.0426 -0.4591
17436TIP3   OH273798   1.538   4.937  13.584 -0.7675  0.4694 -0.3289
17436TIP3    H173799   1.528   4.866  13.520  2.3770  1.4310 -2.0862
17436TIP3    H273800   1.474   5.003  13.556 -1.2247 -0.1810 -0.8687
17437TIP3   OH273801   3.755   3.398   1.482 -0.1743  0.2102  0.4085
17437TIP3    H173802   3.826   3.351   1.525  0.7099  2.2541  1.3107
17437TIP3    H273803   3.791   3.484   1.463 -1.1283  0.0177 -2.8586
17438TIP3   OH273804   5.165   1.764   0.754  0.0561 -0.5909  0.1299
17438TIP3    H173805   5.191   1.849   0.790 -1.9082 -0.3545  1.1055
17438TIP3    H273806   5.196   1.701   0.818 -2.0433 -0.2811  1.5183
17439TIP3   OH273807   3.852   0.518   5.853  0.0000  0.0600  0.1763
17439TIP3    H173808   3.859   0.439   5.906 -0.0227  0.1983  0.3883
17439TIP3    H273809   3.883   0.492   5.766 -0.6739 -0.3680  0.0500
17440TIP3   OH273810   0.942   5.661  12.942  0.5583  0.2551 -0.1808
17440TIP3    H173811   0.854   5.695  12.959  0.9787  0.6171  1.4675
17440TIP3    H273812   0.974   5.713  12.868 -0.4032  0.4747 -0.4625
17441TIP3   OH273813   4.004   0.013  14.452 -0.4064  0.2562 -0.5105
17441TIP3    H173814   3.978  -0.018  14.365  0.1807 -0.8459 -0.3028
17441TIP3    H273815   3.921   0.023  14.499 -0.6078 -2.8030 -0.0003
17442TIP3   OH273816   6.389   5.435   2.821  0.5520  0.1564  0.2117
17442TIP3    H173817   6.470   5.383   2.824 -1.1136 -2.8497 -1.5956
17442TIP3    H273818   6.340   5.409   2.898 -0.6587 -1.7837 -1.1373
17443TIP3   OH273819   1.763   4.241  16.296 -0.9097 -0.2688  0.2407
17443TIP3    H173820   1.807   4.307  16.350 -0.2262  0.7781 -1.5112
17443TIP3    H273821   1.682   4.222  16.344 -0.4273  0.7458  1.5232
17444TIP3   OH273822   2.657   3.939   4.187  0.1937  0.0932 -0.6740
17444TIP3    H173823   2.747   3.963   4.205 -0.6150  1.7744  1.6159
17444TIP3    H273824   2.624   4.009   4.130 -0.4809  1.3173  1.1128
17445TIP3   OH273825   0.823   3.516  13.164 -0.1035  0.6810  0.0301
17445TIP3    H173826   0.872   3.596  13.182  0.3320  0.4168  0.0405
17445TIP3    H273827   0.881   3.445  13.193  0.3989  0.2586 -1.8490
17446TIP3   OH273828   3.954   3.259  11.736 -0.0903 -0.5873 -0.7125
17446TIP3    H173829   3.984   3.334  11.788 -0.9371 -1.9690  1.9387
17446TIP3    H273830   3.972   3.284  11.645 -1.6163  3.4335 -0.1183
17447TIP3   OH273831   3.494   3.609  11.561  0.3740 -0.3110 -0.3726
17447TIP3    H173832   3.469   3.692  11.520  0.0111 -0.4681 -0.4758
17447TIP3    H273833   3.547   3.564  11.495 -0.3154 -0.6189 -0.7290
17448TIP3   OH273834   6.599   5.366   4.348  0.2813  0.1664 -0.3777
17448TIP3    H173835   6.526   5.394   4.294  0.9456  2.1251 -0.3523
17448TIP3    H273836   6.560   5.341   4.432 -0.4629 -0.0706 -0.7910
17449TIP3   OH273837   2.502   2.146  11.996  0.4430 -0.2666  0.1523
17449TIP3    H173838   2.558   2.216  12.029 -0.7569  0.3724  0.9122
17449TIP3    H273839   2.430   2.141  12.059 -0.3924 -1.0169 -0.8168
17450TIP3   OH273840   4.320   0.138   6.388  0.3726  0.4831 -0.4491
17450TIP3    H173841   4.342   0.057   6.434 -1.0910 -0.1585 -0.8294
17450TIP3    H273842   4.281   0.194   6.455  1.1020  0.7708 -0.2541
17451TIP3   OH273843   6.331   1.005   4.645 -0.3028  0.0244 -0.0639
17451TIP3    H173844   6.316   1.014   4.551 -2.8534  1.0950  0.3678
17451TIP3    H273845   6.329   1.094   4.679  1.9306 -0.2335  0.8814
17452TIP3   OH273846   6.388   4.604   2.923  0.4245  0.2873  0.4590
17452TIP3    H173847   6.315   4.639   2.871 -0.3311 -1.1979  0.4587
17452TIP3    H273848   6.347   4.574   3.004  1.3663  1.2353  1.3152
17453TIP3   OH273849   5.522   2.481   0.390 -0.1182 -0.2233  0.2674
17453TIP3    H173850   5.509   2.483   0.296 -0.9480  0.5897  0.3855
17453TIP3    H273851   5.434   2.468   0.426  0.4271 -2.9640  0.8849
17454TIP3   OH273852   2.570   3.587  12.343 -0.4596  0.1461  0.3357
17454TIP3    H173853   2.627   3.650  12.387 -0.3393  0.3245 -0.0726
17454TIP3    H273854   2.626   3.545  12.279 -1.0668  1.1796 -0.9185
17455TIP3   OH273855   0.044   1.833   1.062  0.7347 -0.4756 -0.0510
17455TIP3    H173856   0.018   1.792   1.144  0.3135  0.3550  0.2436
17455TIP3    H273857   0.118   1.889   1.086 -0.8458  1.5985  0.2720
17456TIP3   OH273858   3.809   3.016   2.209 -0.1179 -0.2496  0.2761
17456TIP3    H173859   3.814   3.046   2.118 -0.9269 -0.8723  0.0153
17456TIP3    H273860   3.753   3.081   2.252 -1.0287 -0.8103 -0.0471
17457TIP3   OH273861   4.248   1.532  13.670  0.8412 -0.2591 -0.2796
17457TIP3    H173862   4.226   1.446  13.704  0.5298 -0.5152 -1.1264
17457TIP3    H273863   4.335   1.550  13.706  0.5552 -0.5537  0.5809
17458TIP3   OH273864   1.393   2.104  12.331 -0.2553 -0.0145 -0.5018
17458TIP3    H173865   1.349   2.069  12.409 -1.2035  0.0930 -0.9786
17458TIP3    H273866   1.422   2.191  12.357 -0.4056 -0.0516 -0.2037
17459TIP3   OH273867   5.159   1.801   2.552 -0.4750  0.6856  0.4269
17459TIP3    H173868   5.202   1.723   2.517 -0.4160  1.4506 -1.3538
17459TIP3    H273869   5.225   1.870   2.542 -1.0961  1.2838  0.3987
17460TIP3   OH273870   5.067   0.448  11.423 -0.1109  0.4628  0.1495
17460TIP3    H173871   5.059   0.373  11.365 -0.0587  1.2521 -0.9000
17460TIP3    H273872   4.987   0.448  11.475 -0.6651  0.3942 -0.7017
17461TIP3   OH273873   5.683   1.843  14.138  0.3864 -0.5627 -0.1168
17461TIP3    H173874   5.669   1.752  14.164  1.6205 -1.3254 -1.9381
17461TIP3    H273875   5.597   1.873  14.109 -1.0033  0.2330  4.1500
17462TIP3   OH273876   1.383   3.022  16.593 -0.0371  0.6284 -0.2663
17462TIP3    H173877   1.424   3.097  16.636 -0.9881  0.5181  0.8945
17462TIP3    H273878   1.390   3.041  16.499 -0.8527  2.4941  0.0122
17463TIP3   OH273879   3.280   6.631  15.323 -0.3915 -0.2211  0.1761
17463TIP3    H173880   3.256   6.540  15.307  1.4939 -1.0001  1.2917
17463TIP3    H273881   3.236   6.653  15.406 -0.5627 -0.2431  0.0912
17464TIP3   OH273882   1.915   2.820   5.406  0.1215 -0.1391 -0.0202
17464TIP3    H173883   1.996   2.797   5.360  0.1792  1.0021 -0.5375
17464TIP3    H273884   1.859   2.858   5.338 -0.4478  0.0386  0.5351
17465TIP3   OH273885   5.248   6.431   4.495  0.1014  0.0873 -0.5280
17465TIP3    H173886   5.242   6.390   4.409  1.6135 -1.2521 -0.0343
17465TIP3    H273887   5.315   6.499   4.485  1.8111 -1.4333  0.0382
17466TIP3   OH273888   6.243   4.697   1.287  0.2642 -0.1434 -0.0464
17466TIP3    H173889   6.222   4.692   1.194 -2.4642 -0.6686  0.5360
17466TIP3    H273890   6.215   4.785   1.313 -0.1563 -0.4375  0.5180
17467TIP3   OH273891   6.532   5.068   2.128  0.5838  0.8286 -0.0298
17467TIP3    H173892   6.551   5.093   2.219 -0.4934 -1.7186  0.9828
17467TIP3    H273893   6.548   4.974   2.125 -1.5984  0.4277 -1.8657
17468TIP3   OH273894   2.024   5.264  14.235 -0.3627  0.0724 -0.3341
17468TIP3    H173895   1.944   5.295  14.193  0.3017  1.9308 -0.3604
17468TIP3    H273896   2.090   5.268  14.166 -0.2059 -1.3636 -0.2932
17469TIP3   OH273897   5.725   2.587  16.280 -0.0101  0.0740  0.1856
17469TIP3    H173898   5.805   2.624  16.317 -0.1263 -0.2340  0.7617
17469TIP3    H273899   5.666   2.577  16.355  0.0761 -1.4036  0.0811
17470TIP3   OH273900   4.912   4.055  13.569  0.2375 -0.0982  0.2244
17470TIP3    H173901   4.972   3.982  13.582  0.1585 -0.3486 -0.7121
17470TIP3    H273902   4.965   4.123  13.527  0.4792  0.6568  1.7068
17471TIP3   OH273903   0.770   5.128   4.789  0.6804  0.5256  0.3732
17471TIP3    H173904   0.685   5.089   4.766 -0.5603  2.6975  0.9909
17471TIP3    H273905   0.793   5.087   4.873  1.0671 -1.1916 -0.5084
17472TIP3   OH273906   6.046   3.910  16.252  0.0802  0.7358 -0.0076
17472TIP3    H173907   5.981   3.844  16.228 -1.7437  2.0888  0.9688
17472TIP3    H273908   6.036   3.921  16.346  2.0844  0.6601  0.2565
17473TIP3   OH273909   2.328   2.245   0.548  0.5475  0.6975 -0.3492
17473TIP3    H173910   2.242   2.244   0.507  0.7795  0.7881 -0.8430
17473TIP3    H273911   2.314   2.293   0.630  0.2817  1.3624 -0.7758
17474TIP3   OH273912   3.959   6.160   2.527  0.2947 -0.1773  0.2274
17474TIP3    H173913   4.007   6.222   2.472  1.7504 -1.4339  0.0070
17474TIP3    H273914   4.022   6.134   2.594 -0.4100 -1.1038  0.5469
17475TIP3   OH273915   1.869   1.010  15.285 -0.5215 -0.1181 -0.4137
17475TIP3    H173916   1.883   0.988  15.377 -1.9272  0.4491 -0.0259
17475TIP3    H273917   1.824   0.933  15.249 -1.2689  0.2221 -0.2367
17476TIP3   OH273918   4.204   5.819   5.741  0.1921 -0.3711 -0.6382
17476TIP3    H173919   4.234   5.821   5.832 -1.1884 -2.0662 -0.0958
17476TIP3    H273920   4.270   5.870   5.693  1.1430  0.2626  1.2345
17477TIP3   OH273921   6.173   0.072  13.865  0.0305  0.5120 -0.8248
17477TIP3    H173922   6.193  -0.014  13.828 -0.2681  0.3122 -0.5380
17477TIP3    H273923   6.208   0.134  13.802  1.1499  0.1821 -0.5438
17478TIP3   OH273924   4.736   5.031   3.421  0.0408  0.5451 -0.1348
17478TIP3    H173925   4.747   4.978   3.342  0.3819  0.4255 -0.0102
17478TIP3    H273926   4.825   5.058   3.444  0.3776 -2.0289  2.0006
17479TIP3   OH273927   4.469   2.307   0.835 -0.5495 -0.1820 -0.0891
17479TIP3    H173928   4.476   2.251   0.912  0.4661  0.3545  0.2280
17479TIP3    H273929   4.517   2.259   0.767 -0.4277 -0.1033 -0.0584
17480TIP3   OH273930   0.739   0.704   4.863 -0.5045 -0.0593 -0.2375
17480TIP3    H173931   0.761   0.787   4.821  0.2803 -0.9285 -1.6440
17480TIP3    H273932   0.813   0.687   4.921 -0.0967 -0.3219 -0.8248
17481TIP3   OH273933   2.961   4.192   3.209  0.5974  0.4988  0.1398
17481TIP3    H173934   2.888   4.148   3.252  0.7149 -0.1472 -0.3078
17481TIP3    H273935   2.943   4.285   3.220 -0.8416  0.3710 -0.8575
17482TIP3   OH273936   0.367   6.717  13.354 -0.1044 -0.0035 -0.0837
17482TIP3    H173937   0.409   6.701  13.270 -0.3628  2.2640 -0.7221
17482TIP3    H273938   0.333   6.806  13.347 -1.1711 -0.1817  2.0081
17483TIP3   OH273939   4.384   1.939   0.812 -0.2801 -0.5992  0.2889
17483TIP3    H173940   4.355   1.993   0.739  2.4251 -1.9004 -1.9824
17483TIP3    H273941   4.384   1.997   0.888 -0.3154  1.7214 -1.3965
17484TIP3   OH273942   5.591   3.632  12.181  0.3987 -0.1253  0.1810
17484TIP3    H173943   5.607   3.727  12.185 -0.7349  0.0619  0.8479
17484TIP3    H273944   5.495   3.625  12.177  0.4322 -1.2716  1.0685
17485TIP3   OH273945   4.368   5.305   0.907 -0.2580 -0.2339  0.5892
17485TIP3    H173946   4.409   5.219   0.915 -1.0925 -0.5649  1.5323
17485TIP3    H273947   4.394   5.336   0.820  0.1822 -1.3687  0.2980
17486TIP3   OH273948   5.157   6.212   3.306  0.1186 -0.0596  0.0172
17486TIP3    H173949   5.132   6.126   3.338 -0.1345 -0.6870 -1.7338
17486TIP3    H273950   5.108   6.274   3.360  1.2966 -0.9064  2.1673
17487TIP3   OH273951   0.285   2.011  11.403 -0.1395  0.0372  0.1281
17487TIP3    H173952   0.310   2.056  11.323 -0.0864 -1.1270 -0.5372
17487TIP3    H273953   0.243   2.078  11.457 -0.5318  0.7547 -1.0342
17488TIP3   OH273954   1.097   0.027  14.543  0.2429 -0.4897  0.6135
17488TIP3    H173955   1.177  -0.026  14.553  1.3649  0.7571 -1.1542
17488TIP3    H273956   1.115   0.107  14.593  0.9986  0.6435 -1.3423
17489TIP3   OH273957   2.671   5.892   1.618  0.3846 -0.6542  0.2721
17489TIP3    H173958   2.755   5.887   1.666  0.0446  1.8933  1.3231
17489TIP3    H273959   2.605   5.884   1.687 -0.1238  2.0416  0.1975
17490TIP3   OH273960   3.613   4.906  17.126  0.5497  0.9695  0.3487
17490TIP3    H173961   3.615   4.860  17.210 -1.3690  0.6303  0.2367
17490TIP3    H273962   3.638   4.996  17.147  4.0864  0.1066  0.6192
17491TIP3   OH273963   1.793   0.793  12.068  0.6639 -0.3027 -0.4469
17491TIP3    H173964   1.698   0.806  12.072  0.6171 -0.6009 -0.5635
17491TIP3    H273965   1.807   0.740  11.990  0.4625 -4.1434  1.8714
17492TIP3   OH273966   0.689   6.009   0.081  0.9508  0.1261 -0.0111
17492TIP3    H173967   0.746   6.053   0.018  0.4429 -1.2021 -1.4388
17492TIP3    H273968   0.657   5.931   0.036 -0.4010 -0.2395  1.4608
17493TIP3   OH273969   6.716   3.246   3.072 -0.7300  0.2470  0.1568
17493TIP3    H173970   6.781   3.199   3.125  0.4359  2.5853  0.9537
17493TIP3    H273971   6.632   3.215   3.105 -0.0215  0.2871  2.1822
17494TIP3   OH273972   4.593   4.634  14.118 -0.2501 -0.0551  0.5460
17494TIP3    H173973   4.498   4.620  14.119 -0.3724  0.6593 -0.2929
17494TIP3    H273974   4.629   4.554  14.157 -1.0779 -1.2163 -0.9821
17495TIP3   OH273975   4.516   5.306  16.256 -0.5470  0.2530  0.3129
17495TIP3    H173976   4.491   5.223  16.298 -0.2665 -0.9679 -1.8092
17495TIP3    H273977   4.544   5.361  16.329 -1.2686 -1.3077  1.8631
17496TIP3   OH273978   5.643   1.307   4.408  0.1456  0.1942 -0.3371
17496TIP3    H173979   5.586   1.372   4.366  0.9245  1.7882  0.9479
17496TIP3    H273980   5.731   1.340   4.394  0.7009 -1.4307 -0.9483
17497TIP3   OH273981   4.487   1.989  13.142 -0.1245  0.9491  0.5273
17497TIP3    H173982   4.444   1.994  13.227 -1.0580  2.1844  0.0007
17497TIP3    H273983   4.440   1.919  13.096 -0.1419  0.8305  0.7212
17498TIP3   OH273984   6.151   3.489  13.073  0.1906 -0.0878 -0.1304
17498TIP3    H173985   6.058   3.489  13.094 -0.0305  2.1545 -0.7842
17498TIP3    H273986   6.195   3.466  13.155 -0.9078 -0.8340  0.2710
17499TIP3   OH273987   4.785   3.998   0.162  0.0795  0.6659  0.2627
17499TIP3    H173988   4.855   3.997   0.096  0.4790  0.7072  0.6804
17499TIP3    H273989   4.831   3.996   0.246 -0.3377  2.6528  0.6009
17500TIP3   OH273990   3.773   1.176  15.877 -0.1367  0.1924 -0.5192
17500TIP3    H173991   3.802   1.217  15.796  2.6213 -1.3805 -0.4501
17500TIP3    H273992   3.803   1.235  15.946 -0.5155  0.4388 -0.5632
17501TIP3   OH273993   5.416   4.164  11.751  0.1106  0.4249  0.1822
17501TIP3    H173994   5.365   4.180  11.830  0.5827  1.8671  0.2267
17501TIP3    H273995   5.507   4.180  11.778  0.5516 -1.4580 -0.0580
17502TIP3   OH273996   4.550   6.198   0.069  0.4870  0.0773 -0.1920
17502TIP3    H173997   4.589   6.140   0.004  0.0002  0.8983 -1.2576
17502TIP3    H273998   4.580   6.286   0.044 -1.9656  0.7519 -1.0752
17503TIP3   OH273999   5.799   4.833  13.297 -0.7084  0.1798 -0.2879
17503TIP3    H174000   5.837   4.876  13.374 -1.4268 -0.9932  0.7610
17503TIP3    H274001   5.712   4.873  13.289  0.2429  2.0924 -2.0415
17504TIP3   OH274002   1.972   6.089  15.079 -0.5276  0.5657  0.1634
17504TIP3    H174003   1.951   6.036  15.156  1.0385 -0.9977 -0.3925
17504TIP3    H274004   1.905   6.065  15.015 -1.3598  1.2639  0.7504
17505TIP3   OH274005   3.836   3.754   3.621 -0.4398  0.1766  0.0801
17505TIP3    H174006   3.882   3.670   3.631  2.6646  1.8611  1.3000
17505TIP3    H274007   3.786   3.763   3.702  0.3800  0.1046  0.6152
17506TIP3   OH274008   0.103   3.365   4.072  0.1131  0.0462  0.0246
17506TIP3    H174009   0.049   3.319   4.008 -0.3756  1.1663 -0.3887
17506TIP3    H274010   0.041   3.396   4.138  0.6090 -1.0828  1.0642
17507TIP3   OH274011   3.634   1.223   5.101  0.3901 -0.8976 -0.7791
17507TIP3    H174012   3.645   1.275   5.022  0.2802 -1.3736 -1.1126
17507TIP3    H274013   3.550   1.180   5.090 -0.6720  0.6949  0.5713
17508TIP3   OH274014   5.363   5.077  16.311 -0.3301  0.4151 -0.5740
17508TIP3    H174015   5.315   5.090  16.393 -1.0364  0.8917 -1.0479
17508TIP3    H274016   5.321   5.136  16.249 -0.5007 -0.7158 -1.5673
17509TIP3   OH274017   2.748   2.521  13.843 -0.1060  0.5670  0.0610
17509TIP3    H174018   2.772   2.610  13.869  1.4849  0.6864 -1.5546
17509TIP3    H274019   2.770   2.467  13.919 -0.6183  1.4830  0.8800
17510TIP3   OH274020   2.987   5.212   0.562  0.1468  0.1780 -0.1697
17510TIP3    H174021   3.074   5.249   0.544 -0.0048  1.1079  0.9135
17510TIP3    H274022   3.004   5.132   0.612  0.3693  0.9785  1.0815
17511TIP3   OH274023   5.859   4.806   2.019 -0.3261  0.2087 -0.0213
17511TIP3    H174024   5.858   4.832   1.927 -0.4827  0.7913  0.1389
17511TIP3    H274025   5.944   4.766   2.032  0.0983  1.0284 -0.1823
17512TIP3   OH274026   0.078   4.477   5.279 -0.0166  0.4071 -0.3848
17512TIP3    H174027   0.074   4.559   5.329  1.6244  1.8223 -2.4038
17512TIP3    H274028   0.170   4.450   5.286 -0.4854 -1.1573  0.0251
17513TIP3   OH274029   0.322   6.141   5.278  0.6892  0.3621  1.1749
17513TIP3    H174030   0.296   6.096   5.358 -0.2947  0.0179  0.6811
17513TIP3    H274031   0.412   6.170   5.295  1.0079 -0.9415  1.8587
17514TIP3   OH274032   3.494   5.785  11.577  0.0606 -0.5992  0.4854
17514TIP3    H174033   3.589   5.776  11.582  0.3592 -1.5722 -3.4232
17514TIP3    H274034   3.460   5.700  11.602  0.2879 -0.6041  0.7849
17515TIP3   OH274035   1.918   4.506   2.758 -0.7770  0.7559 -0.4448
17515TIP3    H174036   1.853   4.533   2.693 -1.3340  0.9251  0.1735
17515TIP3    H274037   1.873   4.515   2.842 -0.0507  0.5819 -0.0313
17516TIP3   OH274038   1.913   1.177  11.104  0.3582 -0.0977  0.2791
17516TIP3    H174039   1.935   1.152  11.015  0.9082  0.1743  0.3390
17516TIP3    H274040   1.887   1.269  11.097 -1.0340 -0.4738  0.1646
17517TIP3   OH274041   4.163   2.574  15.035 -0.1387  0.3715 -0.2550
17517TIP3    H174042   4.087   2.563  15.092 -0.0947 -0.0869 -0.2851
17517TIP3    H274043   4.151   2.660  14.996 -0.2216  0.6519  0.3680
17518TIP3   OH274044   0.564   3.544   2.343  0.1131  0.6003 -0.4509
17518TIP3    H174045   0.596   3.617   2.395  1.2883 -0.6818  0.7042
17518TIP3    H274046   0.477   3.526   2.380  1.3803 -1.0460  2.0264
17519TIP3   OH274047   0.266   2.811   6.283  0.3217 -0.0433  0.1281
17519TIP3    H174048   0.255   2.905   6.269  0.5916 -0.0020  0.1871
17519TIP3    H274049   0.236   2.797   6.373 -3.2962 -0.6225 -1.0037
17520TIP3   OH274050   1.099   3.497   2.599  0.3501 -0.0688  0.6997
17520TIP3    H174051   1.188   3.505   2.566  0.9273 -2.2180  1.5685
17520TIP3    H274052   1.054   3.574   2.566  2.3421  0.7123 -0.3402
17521TIP3   OH274053   1.360   1.423   3.474  0.5918 -0.8862 -0.6742
17521TIP3    H174054   1.328   1.334   3.490  0.7208 -1.1167 -1.6866
17521TIP3    H274055   1.425   1.413   3.405  1.2261 -0.1139 -0.1934
17522TIP3   OH274056   2.810   1.915   3.966 -0.3581  0.3390  0.2339
17522TIP3    H174057   2.729   1.872   3.993  0.1700 -1.2725 -0.6548
17522TIP3    H274058   2.879   1.868   4.013  0.0807  1.9056  1.2359
17523TIP3   OH274059   3.260   6.104   2.678 -0.7954  0.1286  0.5778
17523TIP3    H174060   3.240   6.012   2.692 -0.6232 -0.3565 -1.8789
17523TIP3    H274061   3.256   6.115   2.583 -1.1905  2.7524  0.8162
17524TIP3   OH274062   4.987   1.820  12.876 -0.0198  0.3676 -0.2571
17524TIP3    H174063   5.081   1.837  12.870  0.6222 -2.8818 -2.6967
17524TIP3    H274064   4.948   1.880  12.813  0.9022 -0.2975 -1.5299
17525TIP3   OH274065   6.474   3.267  14.988 -0.2028  0.1072 -0.6611
17525TIP3    H174066   6.497   3.233  15.075 -0.2643 -1.3838 -1.2047
17525TIP3    H274067   6.558   3.292  14.949  0.0468 -0.9808 -0.8666
17526TIP3   OH274068   6.491   0.641  15.848  0.6432  0.8228 -0.6077
17526TIP3    H174069   6.418   0.617  15.905 -0.0623 -0.0857 -1.8369
17526TIP3    H274070   6.450   0.658  15.763  1.8812  0.0946 -1.3687
17527TIP3   OH274071   0.289   4.749   3.277 -0.4930 -0.0634 -1.1194
17527TIP3    H174072   0.280   4.657   3.251  1.6502 -0.9350  0.8348
17527TIP3    H274073   0.262   4.751   3.369  0.6771  0.9679 -0.7679
17528TIP3   OH274074   3.494   6.418   4.633 -0.0282  0.2688 -0.1021
17528TIP3    H174075   3.432   6.393   4.565  1.0892 -0.7145 -0.7886
17528TIP3    H274076   3.577   6.430   4.587  1.0420 -1.5984  1.1979
17529TIP3   OH274077   5.371   4.455  12.257  0.2727  0.0735 -0.3808
17529TIP3    H174078   5.413   4.394  12.318  0.9616 -0.0541 -0.9718
17529TIP3    H274079   5.345   4.529  12.312 -0.4144 -0.6599  0.3158
17530TIP3   OH274080   4.691   2.010  16.887 -0.7815  0.1222 -0.1830
17530TIP3    H174081   4.676   2.039  16.977 -0.3812  0.5608 -0.2543
17530TIP3    H274082   4.728   1.922  16.896  0.0835  0.5057  0.1213
17531TIP3   OH274083   0.773   0.274   2.243  0.4692 -0.4521 -0.4156
17531TIP3    H174084   0.734   0.240   2.162 -0.5395 -1.9334  0.6408
17531TIP3    H274085   0.741   0.363   2.249 -0.6547 -0.7983 -0.9131
17532TIP3   OH274086   1.790   5.549   3.976 -0.2556 -0.3157 -1.0893
17532TIP3    H174087   1.804   5.537   3.882 -1.0928 -0.9424 -1.1498
17532TIP3    H274088   1.729   5.479   4.000  0.9289 -0.9481  0.1738
17533TIP3   OH274089   2.159   0.696  16.691  0.0018 -0.3308  0.3301
17533TIP3    H174090   2.063   0.696  16.680 -0.0271 -0.4650  0.5778
17533TIP3    H274091   2.185   0.608  16.664  0.0358 -0.3522  0.4332
17534TIP3   OH274092   1.885   2.860  14.860  0.2796  0.2367 -0.0413
17534TIP3    H174093   1.806   2.811  14.837  0.5671 -1.3903  2.1183
17534TIP3    H274094   1.852   2.939  14.903 -0.2208 -0.7294  1.4113
17535TIP3   OH274095   0.428   1.073  12.536 -0.6015  0.0289  0.2238
17535TIP3    H174096   0.506   1.019  12.551 -1.5830 -0.9018  2.4612
17535TIP3    H274097   0.388   1.035  12.458  0.8778  0.1671 -0.6297
17536TIP3   OH274098   3.021   4.125  13.866  0.0235 -0.2502 -0.0131
17536TIP3    H174099   3.027   4.029  13.859  1.4288 -0.2908  1.3461
17536TIP3    H274100   3.053   4.145  13.953  0.1799  1.5219 -0.4407
17537TIP3   OH274101   0.573   4.051  13.007 -0.0001 -0.7074  0.3661
17537TIP3    H174102   0.521   4.123  12.971  1.9376  1.1461  1.0111
17537TIP3    H274103   0.526   4.025  13.086  0.1622  1.2001  1.1587
17538TIP3   OH274104   5.442   5.117   0.870 -0.0920 -0.1504  0.0455
17538TIP3    H174105   5.369   5.162   0.913  0.1995 -0.2509  0.6635
17538TIP3    H274106   5.402   5.042   0.826 -0.3666 -0.1931  0.3644
17539TIP3   OH274107   2.432   3.338   4.891 -0.4003 -0.0176  0.3867
17539TIP3    H174108   2.437   3.424   4.934 -2.1271 -0.3208  1.2641
17539TIP3    H274109   2.469   3.353   4.804 -2.7569  2.2468 -0.3478
17540TIP3   OH274110   4.669   3.842   0.620  0.2838 -0.1680  0.1596
17540TIP3    H174111   4.607   3.886   0.678  0.7514 -0.2597  0.7381
17540TIP3    H274112   4.654   3.749   0.633 -0.5344 -0.1987 -0.8817
17541TIP3   OH274113   0.107   5.959  16.523 -0.2223  0.1972  0.8601
17541TIP3    H174114   0.025   6.000  16.497 -0.2045  0.0035  0.4865
17541TIP3    H274115   0.160   5.956  16.443  0.1855  0.3962  1.1136
17542TIP3   OH274116   4.079   3.412  14.184  0.4248 -0.6910 -0.3901
17542TIP3    H174117   4.139   3.430  14.111  0.7800 -1.3628 -0.2740
17542TIP3    H274118   4.137   3.400  14.259 -0.0029  1.5895  0.3810
17543TIP3   OH274119   0.175   5.794  10.645  0.8613 -0.4260 -0.0454
17543TIP3    H174120   0.248   5.782  10.585  0.2477  1.4738 -1.2648
17543TIP3    H274121   0.136   5.878  10.619 -1.4918 -1.1609  0.8203
17544TIP3   OH274122   6.699   5.891  13.138  0.4614 -0.5307  0.1935
17544TIP3    H174123   6.734   5.802  13.144  2.3362  0.1197 -0.3943
17544TIP3    H274124   6.739   5.938  13.211  1.7541  0.5115 -1.1235
17545TIP3   OH274125   5.271   0.764  12.945  0.7325  0.1877  0.4177
17545TIP3    H174126   5.363   0.767  12.917  1.1883  1.2749  1.8901
17545TIP3    H274127   5.240   0.854  12.934 -0.3519 -0.2800 -0.5756
17546TIP3   OH274128   5.744   3.783  13.260  0.0573  0.0999  0.4122
17546TIP3    H174129   5.796   3.718  13.307 -1.7175 -0.9589  1.0366
17546TIP3    H274130   5.720   3.740  13.177  0.1905  0.5775  0.1198
17547TIP3   OH274131   2.220   0.766  11.399  0.2684  0.2152  0.3381
17547TIP3    H174132   2.269   0.706  11.343  2.1316 -1.0458  3.1621
17547TIP3    H274133   2.235   0.852  11.360  1.0441 -0.6480 -1.3683
17548TIP3   OH274134   4.325   6.537   3.765 -0.0758  0.2321 -0.0941
17548TIP3    H174135   4.397   6.572   3.817 -0.2074  0.1713  0.1334
17548TIP3    H274136   4.288   6.468   3.820  1.0873 -1.2846 -1.1167
17549TIP3   OH274137   5.796   0.577  11.441  0.1852  0.9217  0.6207
17549TIP3    H174138   5.851   0.556  11.517  0.2621 -0.7335  0.1346
17549TIP3    H274139   5.710   0.597  11.479 -0.1902 -1.3775  1.0931
17550TIP3   OH274140   0.526   0.690   5.382  0.0637  0.0735  0.0124
17550TIP3    H174141   0.488   0.777   5.389  1.0894  0.6038 -0.6606
17550TIP3    H274142   0.509   0.649   5.467 -1.2225  0.5836  0.0221
17551TIP3   OH274143   4.726   1.044  15.908  0.0386  0.2727  0.0139
17551TIP3    H174144   4.677   1.033  15.990 -0.1807  0.8658 -0.0308
17551TIP3    H274145   4.787   0.971  15.906 -1.4160 -0.9829 -0.3289
17552TIP3   OH274146   2.138   3.497   0.173  0.0976  0.4234 -0.2098
17552TIP3    H174147   2.044   3.480   0.164  0.0176 -0.1959  1.3673
17552TIP3    H274148   2.142   3.581   0.219  0.2223 -0.4802  1.5272
17553TIP3   OH274149   0.042   4.214  16.819  0.0539  0.3842 -0.4368
17553TIP3    H174150   0.112   4.193  16.757  0.6474  0.0804  0.3262
17553TIP3    H274151   0.076   4.286  16.871 -0.0541 -0.0006  0.1778
17554TIP3   OH274152   6.584   2.787   4.131 -0.5830  0.0904 -0.4270
17554TIP3    H174153   6.494   2.763   4.150 -2.1371  4.5309 -1.0605
17554TIP3    H274154   6.581   2.823   4.042  0.9979  3.4195  0.7383
17555TIP3   OH274155   4.559   2.530  14.173  1.1775  0.3425  0.3106
17555TIP3    H174156   4.491   2.530  14.242 -2.3350 -0.1953 -2.8254
17555TIP3    H274157   4.574   2.437  14.155  2.9670  0.4549  1.0281
17556TIP3   OH274158   2.128   5.461   0.404 -0.4491 -0.9791  0.3218
17556TIP3    H174159   2.198   5.398   0.422  0.7730  0.0564 -0.6487
17556TIP3    H274160   2.135   5.525   0.474 -0.5474 -0.9736  0.3260
17557TIP3   OH274161   5.740   3.123  12.202 -0.0391 -0.4078 -0.0603
17557TIP3    H174162   5.763   3.118  12.295 -1.7452  0.4912  0.4402
17557TIP3    H274163   5.815   3.166  12.162  1.2072 -1.7851  0.6817
17558TIP3   OH274164   4.316   3.447   4.403  0.5538  0.0439  0.6641
17558TIP3    H174165   4.292   3.354   4.407  1.7880 -0.5135 -1.9480
17558TIP3    H274166   4.410   3.445   4.382  0.5644  1.8728  0.4308
17559TIP3   OH274167   6.537   0.708  12.081  0.7140 -0.6406  0.3327
17559TIP3    H174168   6.463   0.757  12.118 -1.2126 -2.2368 -1.1429
17559TIP3    H274169   6.581   0.772  12.025 -1.9174 -0.4955 -1.7931
17560TIP3   OH274170   2.423   4.671   4.932  0.1265 -0.1816  0.2429
17560TIP3    H174171   2.478   4.744   4.905  0.4827 -0.7285 -0.5783
17560TIP3    H274172   2.474   4.593   4.909 -0.7904 -0.6961 -0.1217
17561TIP3   OH274173   4.676   6.729   2.484  0.0395 -0.1864 -0.8404
17561TIP3    H174174   4.758   6.756   2.444 -1.0448  3.0369 -1.1668
17561TIP3    H274175   4.697   6.718   2.577  1.2874 -1.7918 -1.2733
17562TIP3   OH274176   5.291   5.223  13.178  0.5615  0.4642  0.6509
17562TIP3    H174177   5.216   5.169  13.205  1.4090 -0.4104  1.3068
17562TIP3    H274178   5.255   5.312  13.173 -0.8973 -0.1537 -0.6077
17563TIP3   OH274179   2.408   4.141  16.461 -0.1154 -0.3735 -0.3545
17563TIP3    H174180   2.366   4.122  16.545  1.9121 -1.2155  0.5644
17563TIP3    H274181   2.428   4.234  16.464  2.2385 -0.8200  1.3545
17564TIP3   OH274182   5.743   1.879  16.208  0.0550  0.2576 -0.8828
17564TIP3    H174183   5.763   1.961  16.162  2.5210 -0.2716 -0.9148
17564TIP3    H274184   5.826   1.856  16.251 -1.2009 -1.0940  0.9298
17565TIP3   OH274185   4.580   2.277  14.796 -0.3222 -0.0560 -0.3123
17565TIP3    H174186   4.555   2.350  14.739  1.8074  0.2648 -0.9178
17565TIP3    H274187   4.614   2.318  14.875 -1.4635 -0.4769  0.4233
17566TIP3   OH274188   1.439   2.637  12.946 -0.1582  0.3668  0.3251
17566TIP3    H174189   1.397   2.684  13.017 -1.9536 -0.6293 -0.0039
17566TIP3    H274190   1.418   2.687  12.867 -1.4276 -0.5073  0.0704
17567TIP3   OH274191   2.559   4.764  14.160 -0.4292 -0.2388 -0.0063
17567TIP3    H174192   2.639   4.759  14.107 -0.8976  1.3636 -0.9366
17567TIP3    H274193   2.494   4.714  14.110 -0.4902  0.0232 -0.1880
17568TIP3   OH274194   3.483   0.458   3.910  0.6797 -0.4479  0.5097
17568TIP3    H174195   3.471   0.547   3.877  1.7851 -0.2665  0.5566
17568TIP3    H274196   3.578   0.444   3.906  0.4942 -1.7037  0.2971
17569TIP3   OH274197   5.608   5.823  12.851 -0.3637 -0.2380  0.4061
17569TIP3    H174198   5.541   5.892  12.843  0.7283  0.6602 -3.1103
17569TIP3    H274199   5.684   5.868  12.888 -0.3092 -0.0558  0.0830
17570TIP3   OH274200   5.267   5.083   2.035 -0.0705  0.0913  0.3185
17570TIP3    H174201   5.328   5.067   2.107  0.4145  0.4118 -0.0102
17570TIP3    H274202   5.248   4.996   2.000 -0.5914 -0.0956  1.0561
17571TIP3   OH274203   5.066   6.784  15.387 -0.7042 -0.1531 -0.3817
17571TIP3    H174204   4.980   6.745  15.404 -1.0979  0.5873 -0.6356
17571TIP3    H274205   5.051   6.878  15.392 -0.2702  0.0360 -2.0104
17572TIP3   OH274206   1.909   6.416  12.574  0.2816 -0.3222  0.3452
17572TIP3    H174207   1.845   6.383  12.510  1.6596 -1.2535 -0.5938
17572TIP3    H274208   1.924   6.507  12.549  0.1530 -0.4265 -0.1110
17573TIP3   OH274209   0.187   6.728  15.194 -0.0685  0.6494  0.2593
17573TIP3    H174210   0.163   6.686  15.276  0.7912  1.6109  1.0340
17573TIP3    H274211   0.199   6.820  15.217 -3.0816  1.6258 -1.6004
17574TIP3   OH274212   1.295   2.541  11.170  0.1909  0.0210 -0.5206
17574TIP3    H174213   1.255   2.602  11.233 -0.8211 -0.2956 -0.8433
17574TIP3    H274214   1.273   2.454  11.203  2.4934 -0.2538  0.5030
17575TIP3   OH274215   5.718   3.987   1.051 -0.1252 -0.0240 -0.0233
17575TIP3    H174216   5.801   3.974   1.006 -0.4103 -0.3237 -0.4824
17575TIP3    H274217   5.685   3.898   1.066  0.1781  0.0549  1.2072
17576TIP3   OH274218   0.859   1.082  13.424 -0.0236  0.0720  0.2951
17576TIP3    H174219   0.841   1.057  13.515  1.5456  1.0444  0.9076
17576TIP3    H274220   0.950   1.109  13.424  0.4070 -1.1931 -1.9007
17577TIP3   OH274221   1.169   2.889   4.156  0.0067  0.0839 -0.0502
17577TIP3    H174222   1.127   2.923   4.235 -0.1023  0.8616 -0.4335
17577TIP3    H274223   1.181   2.796   4.174  1.1150  0.4630  1.3765
17578TIP3   OH274224   2.057   1.375  11.327 -0.2253 -0.3011 -0.4561
17578TIP3    H174225   2.063   1.466  11.299  1.0563  0.3022  1.5305
17578TIP3    H274226   1.971   1.346  11.298 -0.9616  1.7823 -0.5025
17579TIP3   OH274227   0.390   1.622   2.391 -0.5716 -0.0540 -0.7137
17579TIP3    H174228   0.313   1.678   2.406 -0.4199  0.4072 -1.5986
17579TIP3    H274229   0.418   1.644   2.302  0.6849 -0.1072 -0.3400
17580TIP3   OH274230   4.094   3.736   5.557  0.0028  0.2398 -0.1831
17580TIP3    H174231   4.133   3.658   5.596  0.0425  1.5605  2.6349
17580TIP3    H274232   4.005   3.739   5.592 -0.0282  1.4094 -0.3130
17581TIP3   OH274233   1.478   1.854   3.620 -0.0110  0.1124 -0.5254
17581TIP3    H174234   1.526   1.823   3.543 -0.0992 -0.3276 -0.4055
17581TIP3    H274235   1.525   1.934   3.647  1.0903 -0.6917  0.0111
17582TIP3   OH274236   5.764   1.850   5.660 -0.2188 -0.6859  0.2905
17582TIP3    H174237   5.776   1.900   5.741 -0.6911  2.6898 -1.5322
17582TIP3    H274238   5.670   1.834   5.655 -0.5445  1.2606 -0.6552
17583TIP3   OH274239   5.300   6.250  11.677 -0.2990  0.5951  0.4829
17583TIP3    H174240   5.219   6.204  11.651 -0.5873  2.1626 -1.7530
17583TIP3    H274241   5.370   6.199  11.637 -0.7067  2.6587 -3.4706
17584TIP3   OH274242   0.240   3.737   2.596  0.2856 -0.5450  0.0568
17584TIP3    H174243   0.203   3.816   2.636  0.6285  1.2850 -2.8993
17584TIP3    H274244   0.239   3.672   2.665 -0.6651  1.8514  2.4657
17585TIP3   OH274245   3.635   1.532   0.674  0.2437  0.0627 -0.5653
17585TIP3    H174246   3.617   1.621   0.644  1.2140  1.7674  3.2625
17585TIP3    H274247   3.551   1.500   0.708  0.2546  0.1559 -0.4523
17586TIP3   OH274248   0.583   4.530  13.478 -0.0261  0.1475 -0.2751
17586TIP3    H174249   0.635   4.456  13.446  0.4684  0.6070 -0.5383
17586TIP3    H274250   0.566   4.510  13.570 -0.1140 -0.4190 -0.4115
17587TIP3   OH274251   1.916   4.464   3.105  0.0833  0.5271 -0.0940
17587TIP3    H174252   1.833   4.498   3.071 -1.0445 -0.4869  1.5047
17587TIP3    H274253   1.953   4.415   3.032 -0.8739  0.7373 -0.7454
17588TIP3   OH274254   6.634   0.921  12.592 -0.2758  0.0770  0.0426
17588TIP3    H174255   6.626   0.888  12.503 -3.2090  0.5207  0.0682
17588TIP3    H274256   6.711   0.979  12.589  0.4193 -0.8518 -1.8395
17589TIP3   OH274257   5.510   0.163  14.299 -0.3805  0.0784 -0.2858
17589TIP3    H174258   5.550   0.241  14.261 -1.8555 -0.3666 -3.0800
17589TIP3    H274259   5.579   0.122  14.351  1.7612  1.0080 -2.2608
17590TIP3   OH274260   3.258   0.744  14.168 -0.5206  0.3413 -0.2652
17590TIP3    H174261   3.193   0.720  14.234 -0.6654 -1.6792 -1.0661
17590TIP3    H274262   3.342   0.731  14.210 -0.5609  2.7560  0.7051
17591TIP3   OH274263   1.155   0.199  11.706  0.0645  0.1959 -0.4194
17591TIP3    H174264   1.239   0.165  11.737  0.2150  0.4066 -0.5947
17591TIP3    H274265   1.170   0.220  11.614 -0.1764  0.2483 -0.4469
17592TIP3   OH274266   6.473   1.672  13.807 -0.1534 -0.4167 -0.2016
17592TIP3    H174267   6.512   1.755  13.778 -3.3110  0.4814 -2.4759
17592TIP3    H274268   6.483   1.614  13.731  1.3547 -1.9329  1.1045
17593TIP3   OH274269   3.720   5.025  13.982 -0.9474 -0.2641 -0.1443
17593TIP3    H174270   3.765   4.941  13.995 -1.3958 -0.4873 -0.0138
17593TIP3    H274271   3.720   5.037  13.887 -0.3945 -0.1364 -0.1342
17594TIP3   OH274272   4.214   1.698  16.072 -0.4009  0.2085  0.8593
17594TIP3    H174273   4.300   1.658  16.061 -0.3907 -0.5194  3.0960
17594TIP3    H274274   4.152   1.630  16.047 -0.3596  0.6117 -0.4015
17595TIP3   OH274275   3.036   3.744  16.201 -0.0419  0.4190 -0.3112
17595TIP3    H174276   3.058   3.794  16.279  0.3572 -1.5541  0.8790
17595TIP3    H274277   2.969   3.682  16.230 -0.2274 -0.0417 -1.6598
17596TIP3   OH274278   0.938   6.536  16.405  0.4278  0.0148  0.5928
17596TIP3    H174279   0.879   6.595  16.358  1.0058 -1.1766 -1.7764
17596TIP3    H274280   1.018   6.588  16.416 -0.2818  0.8978  1.9217
17597TIP3   OH274281   1.666   0.888  12.440  0.0387 -0.2929 -0.0100
17597TIP3    H174282   1.741   0.829  12.437  1.0062  0.9161 -0.8986
17597TIP3    H274283   1.639   0.887  12.532 -0.7739 -3.0003 -0.1868
17598TIP3   OH274284   5.433   0.021  15.426  0.0362 -0.0222 -0.1094
17598TIP3    H174285   5.389  -0.032  15.492  1.8562 -0.6182  0.6877
17598TIP3    H274286   5.380   0.009  15.347 -0.4519 -1.8290  0.4428
17599TIP3   OH274287   2.183   2.024   0.984 -0.3743 -0.1427 -0.3238
17599TIP3    H174288   2.201   2.007   0.892  0.9314 -0.4785 -0.0174
17599TIP3    H274289   2.101   1.976   1.002  1.0915 -2.9115 -0.4968
17600TIP3   OH274290   5.745   4.328  14.013 -0.3604 -0.2824 -0.2859
17600TIP3    H174291   5.813   4.343  13.947  1.3625 -0.1983  1.4513
17600TIP3    H274292   5.709   4.416  14.029  0.9422  0.1096  0.6497
17601TIP3   OH274293   0.527   1.292   1.906  0.4390  0.6937 -0.0252
17601TIP3    H174294   0.542   1.230   1.834 -0.0436  1.1227 -0.4974
17601TIP3    H274295   0.463   1.248   1.962  1.2784  0.0853  0.4958
17602TIP3   OH274296   1.497   5.705  13.831 -0.0647  0.6228 -0.5338
17602TIP3    H174297   1.404   5.713  13.850  0.0379  0.9930 -0.1445
17602TIP3    H274298   1.513   5.768  13.761 -0.1778  0.2786 -0.8722
17603TIP3   OH274299   1.002   0.600   4.251  0.7053  0.1663  0.1550
17603TIP3    H174300   1.096   0.582   4.257  0.4329 -1.2863  0.4896
17603TIP3    H274301   0.966   0.522   4.208 -0.5107  0.1330  1.2056
17604TIP3   OH274302   2.053   6.690  10.995 -0.1234  0.0633 -0.0326
17604TIP3    H174303   2.057   6.730  11.082 -0.4814 -2.3042  1.1715
17604TIP3    H274304   1.979   6.630  11.000  1.4294 -2.0729 -1.0548
17605TIP3   OH274305   5.155   0.351  13.999 -0.1482 -0.2267  0.2012
17605TIP3    H174306   5.250   0.363  13.995 -0.1595 -0.1169  0.2433
17605TIP3    H274307   5.121   0.438  14.020 -0.1709 -0.5606  1.6305
17606TIP3   OH274308   2.147   4.543   4.048 -0.0926 -0.1735  0.3187
17606TIP3    H174309   2.161   4.543   3.954 -1.0353  1.1292  0.1533
17606TIP3    H274310   2.112   4.456   4.067 -2.5071  0.4168 -0.9935
17607TIP3   OH274311   3.224   2.735   0.409 -0.1890  0.5770  0.2877
17607TIP3    H174312   3.188   2.784   0.483 -2.2259  0.3906 -0.5099
17607TIP3    H274313   3.193   2.783   0.331  0.5541 -0.1225 -0.4588
17608TIP3   OH274314   5.739   2.163  13.869 -0.6362  0.7935 -0.1573
17608TIP3    H174315   5.649   2.148  13.839 -0.0247 -1.4037 -1.0653
17608TIP3    H274316   5.743   2.120  13.954 -0.5370  1.1977  0.0428
17609TIP3   OH274317   1.384   5.754   1.687 -0.1709 -0.0584 -0.1361
17609TIP3    H174318   1.370   5.712   1.602  0.7192  1.3762 -1.0363
17609TIP3    H274319   1.477   5.743   1.705  0.1968  1.8870 -0.6398
17610TIP3   OH274320   4.315   2.533   0.853 -0.0623  0.5397  0.7463
17610TIP3    H174321   4.364   2.451   0.846  0.7763  1.1562 -0.9112
17610TIP3    H274322   4.362   2.595   0.798 -2.4491  1.2697 -0.6345
17611TIP3   OH274323   0.683   0.675  14.475  0.5729  0.5617 -0.3462
17611TIP3    H174324   0.664   0.760  14.435  1.4255  0.4750 -0.9753
17611TIP3    H274325   0.598   0.632  14.483  0.1717  1.3398 -0.3317
17612TIP3   OH274326   4.320   1.276  11.683 -0.0545 -0.1906  0.6511
17612TIP3    H174327   4.390   1.214  11.662  0.3874  0.4123  0.3313
17612TIP3    H274328   4.275   1.290  11.599  0.0751  0.2037  0.6486
17613TIP3   OH274329   0.153   4.101  14.591  0.6035  0.3113  0.1242
17613TIP3    H174330   0.071   4.060  14.616 -0.7092  1.9067 -1.3764
17613TIP3    H274331   0.168   4.072  14.501  0.1689  2.2479 -0.6033
17614TIP3   OH274332   6.290   4.681  17.071  0.3390  0.1850  0.2944
17614TIP3    H174333   6.345   4.621  17.021 -0.3804 -1.3067  1.2392
17614TIP3    H274334   6.268   4.750  17.009 -1.8012 -2.3561 -2.0454
17615TIP3   OH274335   5.009   0.832   0.999 -0.1886  0.6292 -0.2151
17615TIP3    H174336   5.006   0.808   1.091  0.6044  4.8449  1.1114
17615TIP3    H274337   4.921   0.865   0.979  0.1964  1.6412 -0.3095
17616TIP3   OH274338   5.680   3.952  15.147 -0.4778 -0.1188  0.2856
17616TIP3    H174339   5.642   3.934  15.233 -2.4788 -0.3366 -0.5840
17616TIP3    H274340   5.726   4.035  15.159  0.2153 -0.6822  1.8156
17617TIP3   OH274341   1.854   6.411  14.195 -0.5932 -0.2309  0.2265
17617TIP3    H174342   1.947   6.410  14.175 -0.2682  1.9704  1.3231
17617TIP3    H274343   1.827   6.319  14.191  1.6812 -0.9500  0.2249
17618TIP3   OH274344   4.385   2.743  11.609  0.0505  0.0897  0.0938
17618TIP3    H174345   4.315   2.678  11.609 -0.7786  0.9517  0.9967
17618TIP3    H274346   4.350   2.816  11.660  1.0345  1.1683 -0.7274
17619TIP3   OH274347   2.516   6.741   3.297  0.2731 -0.2364  0.1275
17619TIP3    H174348   2.558   6.720   3.381  0.5549 -0.9293 -0.1787
17619TIP3    H274349   2.573   6.701   3.231 -0.1122  0.0349 -0.3766
17620TIP3   OH274350   1.829   5.116  13.419 -0.2558  0.4718 -0.5970
17620TIP3    H174351   1.911   5.166  13.417 -0.5782  0.9937 -1.1537
17620TIP3    H274352   1.854   5.030  13.453  0.8728  0.0221 -2.4041
17621TIP3   OH274353   0.859   1.068   4.953  0.3895 -0.0996  0.3781
17621TIP3    H174354   0.908   1.110   4.883  0.9355 -0.7663  0.3443
17621TIP3    H274355   0.925   1.017   5.001  0.0100  0.2574  1.3108
17622TIP3   OH274356   2.746   2.118   3.238  0.0830  0.8214  0.3898
17622TIP3    H174357   2.766   2.209   3.259 -0.2815  1.0079 -0.0412
17622TIP3    H274358   2.781   2.068   3.311 -1.0720  1.4349  1.3993
17623TIP3   OH274359   4.028   1.503  15.900 -0.2034  0.8885 -0.0162
17623TIP3    H174360   4.084   1.431  15.872  0.1564  0.7063  1.1144
17623TIP3    H274361   3.963   1.511  15.830 -1.7728 -2.1918  0.8978
17624TIP3   OH274362   3.939   5.030  14.946 -0.2494 -0.0919  0.1108
17624TIP3    H174363   3.970   4.943  14.970  1.4529  0.7882  1.2927
17624TIP3    H274364   3.996   5.090  14.993  0.0896  1.7217 -2.3943
17625TIP3   OH274365   6.441   3.691  16.662  0.3812  0.5348  0.2289
17625TIP3    H174366   6.497   3.681  16.739 -0.6676  1.2168  1.0972
17625TIP3    H274367   6.499   3.670  16.588  0.9622 -1.8232  1.2668
17626TIP3   OH274368   2.386   5.074   0.942  0.1109  0.3211 -0.4293
17626TIP3    H174369   2.464   5.129   0.942  0.8801 -0.6479  1.6808
17626TIP3    H274370   2.322   5.122   0.994 -0.0533  0.3021 -0.6129
17627TIP3   OH274371   5.743   0.497  14.490 -0.1979 -0.5806 -0.5327
17627TIP3    H174372   5.692   0.471  14.566  0.3814  0.4119  0.2136
17627TIP3    H274373   5.834   0.490  14.518  0.0335 -0.5077 -1.2356
17628TIP3   OH274374   0.217   2.936   4.799 -0.1875  0.5804 -0.1771
17628TIP3    H174375   0.141   2.919   4.855  0.0559  1.1840  0.3466
17628TIP3    H274376   0.205   3.026   4.768 -0.6252  0.0661 -1.5936
17629TIP3   OH274377   2.632   5.227   1.701  0.4381  0.4626  0.9597
17629TIP3    H174378   2.573   5.233   1.777  0.3773  0.5892  0.9039
17629TIP3    H274379   2.679   5.145   1.713  2.1164  1.5746  2.3506
17630TIP3   OH274380   0.563   6.576   0.092  0.1625  0.2949 -0.0746
17630TIP3    H174381   0.525   6.521   0.023 -0.3730 -0.3022  0.6739
17630TIP3    H274382   0.640   6.527   0.121 -0.4973 -0.2290  0.8152
17631TIP3   OH274383   3.769   4.568  13.610  0.0692  0.3990  0.3449
17631TIP3    H174384   3.841   4.620  13.645 -0.4539  1.3008  0.1009
17631TIP3    H274385   3.690   4.608  13.646 -0.3330 -0.5059  0.5137
17632TIP3   OH274386   0.875   4.935  16.295  0.2202  0.2486 -0.0440
17632TIP3    H174387   0.866   5.023  16.332 -1.0849  0.5966 -1.1200
17632TIP3    H274388   0.801   4.926  16.236  0.4101 -1.5383 -0.0696
17633TIP3   OH274389   2.819   0.408  14.072  0.2897 -0.2332 -0.1273
17633TIP3    H174390   2.861   0.448  13.996 -0.2656 -2.0224 -1.4656
17633TIP3    H274391   2.885   0.412  14.141  1.0921  0.7641 -0.9250
17634TIP3   OH274392   5.911   3.045   5.643  0.2064 -0.0029  0.0208
17634TIP3    H174393   5.895   2.996   5.723 -2.7901  1.0247  0.1481
17634TIP3    H274394   5.954   2.981   5.585 -2.2926 -2.4812  0.6435
17635TIP3   OH274395   2.912   4.581  16.278  0.1427  0.2371 -0.2981
17635TIP3    H174396   2.918   4.498  16.231 -1.3142 -0.3111  0.4602
17635TIP3    H274397   2.927   4.559  16.369  0.9132  1.0025 -0.2228
17636TIP3   OH274398   2.370   0.224   5.147 -0.2184  0.3934 -0.1610
17636TIP3    H174399   2.366   0.128   5.144 -0.8049  0.3335  1.5168
17636TIP3    H274400   2.431   0.247   5.077  0.5177 -1.2448 -0.1131
17637TIP3   OH274401   5.986   1.614   3.281 -0.3779 -0.0328  0.3011
17637TIP3    H174402   5.962   1.677   3.213  0.4757  1.0245  0.9423
17637TIP3    H274403   6.013   1.536   3.233 -1.0139  0.2424 -0.5279
17638TIP3   OH274404   3.266   3.799  12.139  0.4588 -0.0832 -0.3009
17638TIP3    H174405   3.360   3.803  12.157  0.4581  1.2330 -0.4993
17638TIP3    H274406   3.259   3.813  12.044  0.0611 -0.1859 -0.2903
17639TIP3   OH274407   4.697   1.798  15.452 -0.2383 -0.1845 -0.4579
17639TIP3    H174408   4.620   1.843  15.487 -0.9268 -1.2883 -0.4832
17639TIP3    H274409   4.738   1.862  15.394 -1.5073  0.2202 -0.9459
17640TIP3   OH274410   4.120   4.512   3.486  0.0829  0.7533  0.0180
17640TIP3    H174411   4.108   4.494   3.579 -1.4040  1.9912  0.0922
17640TIP3    H274412   4.040   4.480   3.445  0.5041  0.7049 -0.7802
17641TIP3   OH274413   1.664   3.443  11.087 -0.0964 -0.3256 -0.1951
17641TIP3    H174414   1.596   3.437  11.020  0.0291  1.3733 -0.5329
17641TIP3    H274415   1.740   3.401  11.047  0.1537  1.1773 -1.4134
17642TIP3   OH274416   4.075   0.459   0.750  0.4206 -0.0322  0.1694
17642TIP3    H174417   4.158   0.416   0.768  1.7015  1.7454 -1.1239
17642TIP3    H274418   4.044   0.418   0.669  1.4829  1.1623 -0.8883
17643TIP3   OH274419   0.776   3.877  15.999 -0.1523 -0.5927  0.2379
17643TIP3    H174420   0.818   3.833  16.073 -0.7479  0.4833  1.2497
17643TIP3    H274421   0.685   3.846  16.001 -0.9593  1.6415  1.8294
17644TIP3   OH274422   2.433   1.956   2.955  0.0919 -0.2402  0.4537
17644TIP3    H174423   2.422   2.051   2.948  1.5766  0.2973  3.5903
17644TIP3    H274424   2.344   1.921   2.957 -0.5252  1.2780  0.9307
17645TIP3   OH274425   0.644   4.795  12.624  0.1627 -0.0201  0.2185
17645TIP3    H174426   0.648   4.850  12.702  0.7512 -0.2178  0.3358
17645TIP3    H274427   0.658   4.855  12.551  0.5722  0.0292  0.3329
17646TIP3   OH274428   2.722   0.882  11.648  0.5006 -0.1037 -0.4716
17646TIP3    H174429   2.757   0.963  11.685  0.6198 -0.0679 -0.6632
17646TIP3    H274430   2.693   0.907  11.560 -3.5835  0.8646  0.9084
17647TIP3   OH274431   6.098   1.871  15.366 -0.3874 -0.3352  0.2618
17647TIP3    H174432   6.157   1.807  15.406  0.8410  1.9525  2.3735
17647TIP3    H274433   6.028   1.883  15.431 -0.9608 -0.0111 -0.3996
17648TIP3   OH274434   1.350   4.837   5.409 -0.5667  0.0178 -0.8234
17648TIP3    H174435   1.386   4.823   5.496 -0.2687  1.9595 -0.5869
17648TIP3    H274436   1.377   4.760   5.359 -0.1170 -0.7711  0.6033
17649TIP3   OH274437   2.249   4.900   1.256 -0.6061 -0.2412 -0.2003
17649TIP3    H174438   2.250   4.982   1.206 -0.9720 -0.8841 -1.3126
17649TIP3    H274439   2.339   4.887   1.284  0.1517 -1.0415 -2.7536
17650TIP3   OH274440   3.813   6.293  14.625 -0.6749  0.1426  0.1234
17650TIP3    H174441   3.769   6.211  14.602  0.0993 -0.4590  0.7587
17650TIP3    H274442   3.885   6.299  14.563 -1.2412  0.7986 -0.4906
17651TIP3   OH274443   1.734   3.391   3.456 -0.1719  0.3756 -0.4539
17651TIP3    H174444   1.679   3.382   3.534 -0.6412 -0.8361 -0.9058
17651TIP3    H274445   1.820   3.414   3.491 -0.4734  0.2772  0.3939
17652TIP3   OH274446   5.114   5.068   4.745 -0.5545 -0.2053  0.1060
17652TIP3    H174447   5.113   5.143   4.804 -0.2692 -0.2410  0.1592
17652TIP3    H274448   5.125   4.993   4.803  0.5197 -0.1759 -0.0508
17653TIP3   OH274449   4.340   2.374   5.195  0.5474 -0.2104  0.2590
17653TIP3    H174450   4.376   2.369   5.283  1.8355 -0.5443 -0.2671
17653TIP3    H274451   4.320   2.467   5.183  0.2806 -0.1782  0.9293
17654TIP3   OH274452   5.620   4.296  10.319  0.2746 -0.1619 -0.4114
17654TIP3    H174453   5.637   4.297  10.225  0.7277  3.2984 -0.4257
17654TIP3    H274454   5.532   4.260  10.328  0.3274 -0.7746 -2.1166
17655TIP3   OH274455   4.687   5.076  11.208 -0.2542 -0.6314  0.6532
17655TIP3    H174456   4.715   5.128  11.132 -1.8912 -1.3560 -0.5010
17655TIP3    H274457   4.677   4.987  11.175 -1.3409 -0.9036  1.6218
17656TIP3   OH274458   0.530   4.853   3.171 -0.0052 -0.0707  0.3154
17656TIP3    H174459   0.502   4.837   3.081 -0.4228  0.8159  0.2804
17656TIP3    H274460   0.450   4.843   3.223  0.2891 -0.8639  0.6310
17657TIP3   OH274461   2.503   0.014   1.910 -0.2712  0.2162 -0.3083
17657TIP3    H174462   2.544   0.099   1.928  2.4087 -0.8875 -0.6422
17657TIP3    H274463   2.489  -0.024   1.996  1.9855 -0.4244 -0.1433
17658TIP3   OH274464   3.100   2.935   3.619 -0.4166 -0.2177  0.7916
17658TIP3    H174465   3.096   2.847   3.581  0.7531 -0.5834  1.4554
17658TIP3    H274466   3.194   2.952   3.631 -0.6634  0.8043  1.3881
17659TIP3   OH274467   0.580   6.558   2.383  0.2594  0.5156  0.0443
17659TIP3    H174468   0.574   6.640   2.431 -1.6072 -0.0645  0.9223
17659TIP3    H274469   0.506   6.560   2.322  0.4610 -0.3094 -0.2416
17660TIP3   OH274470   0.364   2.450  14.250  0.2157 -0.2488  0.6088
17660TIP3    H174471   0.276   2.457  14.286  0.5812  2.8090  1.1744
17660TIP3    H274472   0.350   2.447  14.155 -0.5027 -1.3336  0.7282
17661TIP3   OH274473   2.463   5.678  11.271 -0.1612  0.0460 -0.7306
17661TIP3    H174474   2.393   5.735  11.302 -0.6044 -0.9323  0.1192
17661TIP3    H274475   2.419   5.596  11.248  0.9045 -1.3464  1.8380
17662TIP3   OH274476   3.844   3.260   5.092  0.5462  0.2757 -0.4148
17662TIP3    H174477   3.895   3.336   5.066 -2.1306  2.0606 -0.8502
17662TIP3    H274478   3.757   3.276   5.057 -0.3406 -2.6639  0.1488
17663TIP3   OH274479   4.306   1.863   3.245  0.3181  0.7203  0.4766
17663TIP3    H174480   4.354   1.807   3.307 -0.8496  1.4509  2.1072
17663TIP3    H274481   4.221   1.821   3.236  0.2639  0.9664 -0.1744
17664TIP3   OH274482   2.067   5.073   5.587 -0.5251 -0.1436 -0.0886
17664TIP3    H174483   1.995   5.061   5.525 -1.4123 -1.2342  1.0939
17664TIP3    H274484   2.025   5.106   5.666  0.3093 -0.5344  0.5342
17665TIP3   OH274485   1.487   0.977   5.693 -0.3459  0.1317 -0.3254
17665TIP3    H174486   1.485   0.887   5.725  0.2598  0.0712 -0.4484
17665TIP3    H274487   1.566   1.015   5.731 -1.9172  1.4460  1.8737
17666TIP3   OH274488   4.836   5.631  11.849 -0.1050 -0.4061  1.0867
17666TIP3    H174489   4.749   5.599  11.826  0.8251 -1.4838 -1.3746
17666TIP3    H274490   4.871   5.666  11.767  1.6792  0.2853  2.0793
17667TIP3   OH274491   1.855   1.895   1.324  0.4231 -0.4014  0.2786
17667TIP3    H174492   1.889   1.939   1.402 -0.3994  0.1431  0.3461
17667TIP3    H274493   1.769   1.864   1.350 -0.9822  2.0134 -1.1240
17668TIP3   OH274494   1.134   1.207   0.797  0.3624  0.3622  0.2218
17668TIP3    H174495   1.211   1.243   0.841  0.3460 -0.4827  0.9605
17668TIP3    H274496   1.069   1.196   0.867 -0.0354  0.0026 -0.1981
17669TIP3   OH274497   0.104   0.113  10.629 -0.2685  0.7174  0.4197
17669TIP3    H174498   0.037   0.154  10.573  0.1489  0.9212  0.0673
17669TIP3    H274499   0.155   0.058  10.570  0.9789  1.9091  0.3345
17670TIP3   OH274500   4.789   0.906  14.705  0.8290  0.5556 -0.6379
17670TIP3    H174501   4.824   0.901  14.616  0.8674 -0.5255 -0.5701
17670TIP3    H274502   4.826   0.830  14.750 -2.6860 -1.5482 -0.9580
17671TIP3   OH274503   0.496   1.819   3.902 -0.6368 -0.6577 -0.5010
17671TIP3    H174504   0.440   1.871   3.844  0.7507  1.4176 -0.0992
17671TIP3    H274505   0.519   1.879   3.973 -0.2356 -2.3543  0.8867
17672TIP3   OH274506   3.847   4.659  15.944 -0.1374  0.4220  1.0818
17672TIP3    H174507   3.858   4.748  15.978  1.0140  0.0639  1.7009
17672TIP3    H274508   3.863   4.603  16.020  3.6610 -0.4555 -0.1501
17673TIP3   OH274509   5.734   4.171   3.313  0.0558 -0.0113 -0.4197
17673TIP3    H174510   5.660   4.180   3.374  0.2502 -2.1598  0.2255
17673TIP3    H274511   5.697   4.126   3.237  0.6939 -1.3275  0.0107
17674TIP3   OH274512   5.195   5.538  10.754  0.1808  0.7242 -0.0565
17674TIP3    H174513   5.263   5.473  10.776 -0.7381 -0.3765 -0.3804
17674TIP3    H274514   5.150   5.554  10.837 -0.2873  0.1138 -0.1871
17675TIP3   OH274515   5.581   1.562  10.893  0.2785 -0.2888  0.0108
17675TIP3    H174516   5.601   1.599  10.980 -2.4581 -1.5670  1.3359
17675TIP3    H274517   5.569   1.468  10.909 -0.1550 -0.5754 -1.7913
17676TIP3   OH274518   2.646   0.340   3.142  0.3338  0.4666  0.0684
17676TIP3    H174519   2.700   0.273   3.100  0.2719  0.9030 -0.7296
17676TIP3    H274520   2.638   0.311   3.233  2.0920  0.5148  0.2705
17677TIP3   OH274521   3.060   5.686  12.725  0.9348 -0.0416  0.6768
17677TIP3    H174522   3.130   5.708  12.664  0.4774  0.4620  0.3208
17677TIP3    H274523   3.069   5.749  12.796  0.5890  0.2917  0.4265
17678TIP3   OH274524   0.083   6.304  16.536  0.0092 -0.5522  0.1441
17678TIP3    H174525   0.154   6.248  16.506 -0.0313  0.5689 -2.2598
17678TIP3    H274526   0.124   6.390  16.549 -0.5482 -0.3441  0.5536
17679TIP3   OH274527   4.554   1.915   1.806  0.3698  0.1078 -0.1517
17679TIP3    H174528   4.462   1.940   1.804  0.3553  0.0441 -1.5223
17679TIP3    H274529   4.586   1.933   1.718  1.0506 -2.1266 -0.4394
17680TIP3   OH274530   2.933   2.692   3.467 -0.2239 -0.4572 -1.2836
17680TIP3    H174531   3.013   2.715   3.421  0.0007  1.9116  0.0984
17680TIP3    H274532   2.867   2.686   3.398  0.7834 -0.6001 -2.2610
17681TIP3   OH274533   0.131   6.607  14.331  0.0410  0.4936 -0.4936
17681TIP3    H174534   0.120   6.512  14.333  2.2287  0.2062 -0.0767
17681TIP3    H274535   0.076   6.636  14.258 -1.7407 -0.8923  0.2086
17682TIP3   OH274536   1.427   5.962   2.710 -1.0022  0.3689 -0.1255
17682TIP3    H174537   1.437   6.050   2.673 -2.7870  0.9034  0.5398
17682TIP3    H274538   1.337   5.960   2.743 -0.4256 -1.0836  1.5214
17683TIP3   OH274539   1.532   3.466   3.300 -0.6652 -0.0803  0.0165
17683TIP3    H174540   1.616   3.435   3.335 -0.0123  1.4493 -0.1367
17683TIP3    H274541   1.473   3.462   3.375 -0.5579 -1.4224  0.0636
17684TIP3   OH274542   4.123   0.123  13.680 -0.6401 -0.4130  0.0042
17684TIP3    H174543   4.131   0.202  13.734 -2.4891  1.3806 -2.1827
17684TIP3    H274544   4.044   0.137  13.628  0.8644 -2.1307 -2.9898
17685TIP3   OH274545   2.577   4.752  13.330 -0.1747 -0.7712  0.0319
17685TIP3    H174546   2.585   4.720  13.240  0.7456  0.3124 -0.2867
17685TIP3    H274547   2.640   4.823  13.337 -3.3434  2.2814  0.1605
17686TIP3   OH274548   0.350   4.455   0.393 -0.5459 -0.4178 -0.2667
17686TIP3    H174549   0.348   4.454   0.297  1.9710 -2.0821 -0.3958
17686TIP3    H274550   0.415   4.523   0.415 -3.6467  2.5875  0.5354
17687TIP3   OH274551   5.599   5.278   1.469  0.0451 -0.2471 -0.1193
17687TIP3    H174552   5.534   5.214   1.442  0.7550 -1.1006  0.1639
17687TIP3    H274553   5.629   5.247   1.554  0.1881  0.6257  0.1587
17688TIP3   OH274554   0.836   0.890  16.729 -0.2288  0.7226 -0.7458
17688TIP3    H174555   0.775   0.837  16.781 -0.3909  1.6645  0.0503
17688TIP3    H274556   0.794   0.897  16.643 -0.6438  0.3409 -0.5810
17689TIP3   OH274557   4.936   0.900  11.961  0.2829 -0.3483 -0.2819
17689TIP3    H174558   4.940   0.820  12.013  0.7422  0.7763  1.4897
17689TIP3    H274559   4.859   0.888  11.905 -0.2806 -1.5725  0.7094
17690TIP3   OH274560   5.544   6.427   4.836  0.0010 -0.4968 -0.2028
17690TIP3    H174561   5.588   6.359   4.784 -2.0447 -0.3463 -2.3180
17690TIP3    H274562   5.461   6.388   4.861  0.0704  0.2029  1.2274
17691TIP3   OH274563   6.639   0.746   0.192 -0.5247  0.2583 -0.0534
17691TIP3    H174564   6.683   0.671   0.152 -0.4194 -0.2203  0.9412
17691TIP3    H274565   6.552   0.746   0.152 -0.8415 -0.9453  0.5605
17692TIP3   OH274566   0.528   3.525  11.061 -0.4450 -0.5448 -0.0514
17692TIP3    H174567   0.439   3.525  11.025 -1.2130 -1.9230  1.7199
17692TIP3    H274568   0.570   3.450  11.020 -1.2874 -2.0533  1.7239
17693TIP3   OH274569   4.497   4.858   6.070 -0.2923 -0.1693 -0.1707
17693TIP3    H174570   4.506   4.897   6.157 -0.3319  1.0760 -0.7073
17693TIP3    H274571   4.567   4.793   6.065  0.3351  0.4521  0.4299
17694TIP3   OH274572   6.334   6.736   1.390  0.1967  0.3940  0.0348
17694TIP3    H174573   6.239   6.728   1.378  0.0745  1.1022  0.4865
17694TIP3    H274574   6.371   6.667   1.335 -0.6907 -1.5037  1.6880
17695TIP3   OH274575   5.153   4.226   1.582 -0.1013 -0.1065 -0.2704
17695TIP3    H174576   5.211   4.185   1.647 -0.7968  0.4796  0.7546
17695TIP3    H274577   5.140   4.158   1.516  1.8319 -0.2097 -0.5921
17696TIP3   OH274578   1.777   3.863  14.243 -0.0775 -0.0243  0.4735
17696TIP3    H174579   1.764   3.921  14.318  1.0195 -0.0871  0.7171
17696TIP3    H274580   1.732   3.908  14.171 -0.5574  0.3651  0.9984
17697TIP3   OH274581   1.893   5.346   1.691 -0.6160  0.0735  0.0119
17697TIP3    H174582   1.863   5.369   1.603 -0.9358 -0.4863 -0.0312
17697TIP3    H274583   1.980   5.307   1.678 -0.2178  0.9222  0.0527
17698TIP3   OH274584   5.821   4.500  12.855  0.5750 -0.2454 -0.0645
17698TIP3    H174585   5.872   4.518  12.934 -0.8937 -0.5422  0.9837
17698TIP3    H274586   5.815   4.584  12.811  0.0535  0.2795  0.9732
17699TIP3   OH274587   3.378   2.349  16.295 -0.9223  0.1653 -0.4416
17699TIP3    H174588   3.325   2.388  16.364 -0.4118 -0.2286  0.1889
17699TIP3    H274589   3.464   2.391  16.303 -0.5694 -0.5712 -0.1948
17700TIP3   OH274590   2.876   2.448  10.937 -0.0959  0.3794  0.0885
17700TIP3    H174591   2.941   2.519  10.941  1.6987 -1.2144  2.3121
17700TIP3    H274592   2.836   2.449  11.024  0.4864 -1.7193  0.4194
17701TIP3   OH274593   0.302   1.281   4.390  0.1462 -0.0343 -0.7049
17701TIP3    H174594   0.218   1.303   4.350  0.9758  0.3522 -2.2800
17701TIP3    H274595   0.278   1.242   4.475 -1.6629 -1.0759 -1.6375
17702TIP3   OH274596   1.378   3.494   2.534 -0.4771 -0.2012 -0.5077
17702TIP3    H174597   1.459   3.494   2.584 -0.8012  0.4679  0.0344
17702TIP3    H274598   1.392   3.429   2.465  1.0476  0.8292 -1.2513
17703TIP3   OH274599   4.613   3.889  11.706 -0.6549  0.0546 -0.3449
17703TIP3    H174600   4.557   3.863  11.779 -0.4354 -0.8663 -0.4882
17703TIP3    H274601   4.568   3.964  11.667 -0.2001  1.2575  1.3865
17704TIP3   OH274602   6.666   2.457  16.208 -0.2488 -0.2869 -0.0639
17704TIP3    H174603   6.653   2.383  16.267  0.2648  0.3892  0.9134
17704TIP3    H274604   6.759   2.480  16.218  0.1195 -0.7876 -1.8787
17705TIP3   OH274605   5.306   2.486  13.002 -0.3069  0.0907 -0.1335
17705TIP3    H174606   5.271   2.505  13.089 -0.0318 -1.9683  0.4821
17705TIP3    H274607   5.267   2.402  12.979  0.7383 -0.0767 -1.3919
17706TIP3   OH274608   1.227   4.044   1.057  0.7362 -0.0443  0.7468
17706TIP3    H174609   1.304   4.099   1.060  0.8627 -0.2541  2.1139
17706TIP3    H274610   1.257   3.961   1.020  0.4890  0.8444 -1.5533
17707TIP3   OH274611   5.266   6.310  14.380  0.3254  0.4021 -0.0596
17707TIP3    H174612   5.304   6.238  14.329 -1.6224  0.3801 -1.6135
17707TIP3    H274613   5.307   6.303  14.466  1.4950 -1.4707 -0.7036
17708TIP3   OH274614   4.071   3.529   3.550 -0.3162 -0.1930 -0.4488
17708TIP3    H174615   4.107   3.618   3.551  1.8370 -0.9857 -0.8595
17708TIP3    H274616   4.059   3.507   3.642  1.6385 -0.3572 -0.1821
17709TIP3   OH274617   2.608   4.177   4.851  0.1372  0.5833 -0.2454
17709TIP3    H174618   2.663   4.136   4.918  1.8916 -1.0299 -2.5445
17709TIP3    H274619   2.530   4.121   4.847 -0.1198  0.8557  0.5868
17710TIP3   OH274620   1.673   1.125   2.926  0.0070  0.0284 -0.3856
17710TIP3    H174621   1.767   1.133   2.909 -0.1752  1.1221 -1.0305
17710TIP3    H274622   1.665   1.127   3.021  0.7034 -1.2062 -0.2812
17711TIP3   OH274623   0.954   1.861   3.027  0.6415  0.0002  0.1168
17711TIP3    H174624   0.973   1.811   2.948  0.3026 -0.4831  0.3348
17711TIP3    H274625   1.013   1.825   3.093 -1.5535 -2.1894  1.0624
17712TIP3   OH274626   2.136   1.866   2.617 -0.0409  0.1651 -0.7037
17712TIP3    H174627   2.172   1.954   2.620  0.0693  0.0944  0.0445
17712TIP3    H274628   2.141   1.834   2.707  0.0526 -0.6592 -0.9902
17713TIP3   OH274629   5.289   0.807   3.535  0.0323  0.0181  0.0431
17713TIP3    H174630   5.245   0.891   3.521  1.7290  1.0189  0.3504
17713TIP3    H274631   5.282   0.762   3.450 -0.0438  0.9027 -0.4366
17714TIP3   OH274632   2.575   2.316  12.417  0.7488  0.5242 -0.4365
17714TIP3    H174633   2.480   2.322  12.432  1.0755  0.4017  2.2788
17714TIP3    H274634   2.588   2.225  12.390  0.3394 -0.5022  2.4582
17715TIP3   OH274635   1.006   5.459   4.043  0.0371  0.1271  0.6644
17715TIP3    H174636   1.028   5.425   4.130  0.8254  0.2484  0.5217
17715TIP3    H274637   0.950   5.535   4.061  0.9766  0.7389  1.1253
17716TIP3   OH274638   1.120   1.576   3.526 -0.7438 -0.7839 -0.2603
17716TIP3    H174639   1.155   1.661   3.552 -0.6279 -0.9412  0.0995
17716TIP3    H274640   1.193   1.516   3.534 -1.1534 -1.1674  0.7764
17717TIP3   OH274641   4.030   6.684  11.410  0.0667 -0.0859 -0.4314
17717TIP3    H174642   3.994   6.743  11.344  1.8255  1.5552  0.0042
17717TIP3    H274643   3.973   6.696  11.486  0.7946  1.6613 -0.1088
17718TIP3   OH274644   1.077   1.741  12.507 -0.0498 -0.1878  0.1138
17718TIP3    H174645   1.107   1.773  12.421 -1.3409 -0.8225 -0.6120
17718TIP3    H274646   1.049   1.651  12.490 -0.2541 -0.3461  1.2321
17719TIP3   OH274647   6.005   1.707   5.436 -0.0757 -0.0637 -0.1216
17719TIP3    H174648   6.026   1.638   5.499 -2.7611 -1.4763 -0.6315
17719TIP3    H274649   6.080   1.709   5.377 -0.1259 -2.9499 -0.4050
17720TIP3   OH274650   2.686   4.752  12.675  0.2225  0.2996  0.3237
17720TIP3    H174651   2.682   4.819  12.607  1.2491  0.1913  0.1520
17720TIP3    H274652   2.774   4.715  12.669  0.1230 -0.1473  1.2933
17721TIP3   OH274653   1.533   5.373  13.741 -0.2088  0.1163  0.4533
17721TIP3    H174654   1.470   5.324  13.794  1.1428  0.3828  2.4443
17721TIP3    H274655   1.479   5.425  13.681 -1.7600 -1.4977  0.3675
17722TIP3   OH274656   5.227   1.549   1.852  0.2644  0.1882  0.0257
17722TIP3    H174657   5.227   1.456   1.831 -0.3367  0.4357 -1.1291
17722TIP3    H274658   5.139   1.579   1.831  0.3598  0.9642  0.6678
17723TIP3   OH274659   5.997   2.668   5.968 -0.1317  0.4041  0.3108
17723TIP3    H174660   5.918   2.621   5.994 -0.7018  0.7386 -0.7714
17723TIP3    H274661   6.064   2.600   5.956 -0.9628 -0.1702 -1.3184
17724TIP3   OH274662   1.980   2.600  13.409  0.0157 -0.3238  0.4887
17724TIP3    H174663   2.048   2.668  13.405 -0.9455  0.6464  0.2637
17724TIP3    H274664   1.972   2.569  13.319 -0.7712  0.5247  0.2498
17725TIP3   OH274665   4.278   0.347  11.773 -0.3041 -0.0303 -0.1797
17725TIP3    H174666   4.325   0.300  11.704 -0.9890 -1.5761  0.3428
17725TIP3    H274667   4.334   0.338  11.850  0.9549  2.5654 -0.6900
17726TIP3   OH274668   6.813   1.859   2.893 -0.0672  0.8191  0.1855
17726TIP3    H174669   6.822   1.882   2.800 -2.7067  0.8603 -0.1388
17726TIP3    H274670   6.847   1.770   2.899 -1.6411  0.0560 -1.2966
17727TIP3   OH274671   2.291   6.128   1.688  0.3913  0.9278  0.2360
17727TIP3    H174672   2.298   6.109   1.595 -0.4447  0.5969  0.2325
17727TIP3    H274673   2.212   6.083   1.716  0.5997  1.0743  1.0969
17728TIP3   OH274674   3.661   4.517  10.893  0.1969 -0.4249  0.4762
17728TIP3    H174675   3.627   4.594  10.940 -0.1694  0.1659 -0.6968
17728TIP3    H274676   3.665   4.546  10.802 -0.0490 -1.8365 -0.0028
17729TIP3   OH274677   4.632   1.225   4.709 -0.3628  0.3187 -0.4830
17729TIP3    H174678   4.640   1.131   4.727 -0.7524  0.6079  1.3886
17729TIP3    H274679   4.556   1.253   4.761 -1.1819  1.4181 -2.1664
17730TIP3   OH274680   3.931   2.724  13.333 -0.0323  0.4258 -0.0293
17730TIP3    H174681   4.007   2.704  13.280  0.2816  1.5215 -0.0113
17730TIP3    H274682   3.895   2.639  13.357  2.1464 -0.1740  1.3742
17731TIP3   OH274683   2.256   2.218  14.742 -0.0106  0.2830  0.3181
17731TIP3    H174684   2.306   2.137  14.755  1.4597  0.9370 -0.9766
17731TIP3    H274685   2.165   2.188  14.733  0.6496 -1.3809 -1.4235
17732TIP3   OH274686   6.005   6.400  11.163 -0.2123 -0.3846 -0.4415
17732TIP3    H174687   5.943   6.439  11.224  0.0428 -1.0737  0.2659
17732TIP3    H274688   6.063   6.472  11.138 -0.8420  0.0938 -0.5471
17733TIP3   OH274689   1.138   0.201  16.019 -0.0387  0.0925  0.2451
17733TIP3    H174690   1.077   0.235  16.085 -1.3359  0.3638 -1.0509
17733TIP3    H274691   1.147   0.272  15.956  0.6115 -0.4246 -0.2585
17734TIP3   OH274692   2.935   4.807   2.170  0.2027  0.1441  0.7329
17734TIP3    H174693   2.995   4.776   2.238  0.0315  0.1526  0.8862
17734TIP3    H274694   2.942   4.902   2.174  0.8518  0.1263  0.1530
17735TIP3   OH274695   1.177   6.167  11.209  0.1689  0.5216 -0.5011
17735TIP3    H174696   1.211   6.081  11.186 -2.3567 -0.8540  0.4805
17735TIP3    H274697   1.093   6.173  11.164 -0.6389  1.5936  1.0391
17736TIP3   OH274698   5.076   0.606   4.276 -0.0063 -0.1265  0.3957
17736TIP3    H174699   5.167   0.615   4.303  0.7005 -0.3873 -1.6793
17736TIP3    H274700   5.064   0.512   4.262 -0.8193 -0.1741  1.2975
17737TIP3   OH274701   1.221   3.891   1.693 -0.2000  0.0011  0.5121
17737TIP3    H174702   1.247   3.854   1.609 -2.9568  1.6927 -1.2841
17737TIP3    H274703   1.140   3.844   1.715  0.1142  0.0739  1.9001
17738TIP3   OH274704   3.978   6.787  16.688  0.5463  1.1202  0.1971
17738TIP3    H174705   4.065   6.825  16.676  0.7302  0.1218 -2.2829
17738TIP3    H274706   3.956   6.806  16.779  3.0679  1.9759  0.7199
17739TIP3   OH274707   4.571   5.519   0.165 -0.7495  0.4459  0.1558
17739TIP3    H174708   4.506   5.589   0.174 -1.1142  0.0053  1.0701
17739TIP3    H274709   4.600   5.501   0.255 -1.3512 -1.2060  0.0494
17740TIP3   OH274710   3.414   0.114   5.770 -0.6061  0.0616 -0.0709
17740TIP3    H174711   3.376   0.103   5.683 -1.2225  0.9676  0.0712
17740TIP3    H274712   3.435   0.207   5.776  1.0755 -0.2945  0.1006
17741TIP3   OH274713   0.883   1.640   4.968 -0.0319 -0.1623 -0.2473
17741TIP3    H174714   0.810   1.598   4.923 -0.3734  0.9997 -0.8438
17741TIP3    H274715   0.961   1.608   4.923 -0.2430 -0.5767 -0.3213
17742TIP3   OH274716   6.587   5.696  15.247 -0.4693  0.1124  0.8494
17742TIP3    H174717   6.556   5.705  15.157 -0.0524  3.8357  0.9088
17742TIP3    H274718   6.682   5.701  15.241 -0.3664 -0.8152  1.4550
17743TIP3   OH274719   3.563   4.657  15.895  0.3637 -0.3764 -0.4960
17743TIP3    H174720   3.534   4.577  15.851  0.4900 -0.8867  0.3345
17743TIP3    H274721   3.656   4.663  15.873  0.3793 -0.5192 -0.4721
17744TIP3   OH274722   4.540   6.068  13.274 -0.2020  0.0519 -0.1492
17744TIP3    H174723   4.604   6.001  13.250  0.5616  0.8024 -0.2744
17744TIP3    H274724   4.474   6.064  13.204 -0.6030 -1.1011  0.2747
17745TIP3   OH274725   5.793   2.090   5.279  0.4487  0.1629 -0.4694
17745TIP3    H174726   5.740   2.069   5.356  2.9645  0.4791  1.4912
17745TIP3    H274727   5.748   2.163   5.237 -1.9696 -1.2073 -0.4314
17746TIP3   OH274728   0.472   4.219   4.227  0.4202 -0.7045 -0.5270
17746TIP3    H174729   0.463   4.314   4.219  1.2762 -0.6347 -0.7321
17746TIP3    H274730   0.464   4.201   4.321 -0.2327 -0.4904 -0.5358
17747TIP3   OH274731   5.835   6.286   2.972 -0.5702  0.4037  0.1731
17747TIP3    H174732   5.747   6.307   3.003 -0.2628  0.3378  1.1248
17747TIP3    H274733   5.823   6.263   2.879 -1.6098  0.0138  0.3872
17748TIP3   OH274734   4.728   4.135  12.929 -0.5201 -0.2009  0.4771
17748TIP3    H174735   4.816   4.162  12.954 -0.1468  0.1714 -1.1318
17748TIP3    H274736   4.670   4.184  12.988  0.2953  0.9329  0.3624
17749TIP3   OH274737   2.256   3.371  14.898 -0.3964 -0.3628  0.2127
17749TIP3    H174738   2.309   3.295  14.875 -0.3104 -0.4564  0.7285
17749TIP3    H274739   2.292   3.402  14.981 -1.1907 -0.4727  0.6115
17750TIP3   OH274740   4.593   0.643  14.630  0.4413  0.1632 -0.1404
17750TIP3    H174741   4.517   0.585  14.633 -1.4720  2.2669 -2.7937
17750TIP3    H274742   4.561   0.725  14.667  1.8242  0.7402 -0.1754
17751TIP3   OH274743   0.293   2.968   5.559  0.1299  0.2030 -0.1998
17751TIP3    H174744   0.221   3.026   5.534  0.6986 -0.0639 -2.8144
17751TIP3    H274745   0.271   2.884   5.519 -0.5473 -1.4618  3.2724
17752TIP3   OH274746   1.808   2.245   5.796 -0.7288 -0.4287  0.3872
17752TIP3    H174747   1.877   2.229   5.861  0.6761  0.2701 -0.8792
17752TIP3    H274748   1.734   2.276   5.847 -0.5171 -2.2494  1.9232
17753TIP3   OH274749   0.897   6.061  13.477  0.2432  0.5348 -0.0027
17753TIP3    H174750   0.868   5.986  13.424  1.2025  1.0813 -1.3581
17753TIP3    H274751   0.992   6.057  13.473  0.3695  0.4059  2.0230
17754TIP3   OH274752   1.223   3.431   3.941  0.5401  0.2745 -0.0569
17754TIP3    H174753   1.238   3.359   4.001  0.8521  1.3668  1.2121
17754TIP3    H274754   1.208   3.389   3.856 -0.8609 -1.3518  0.9318
17755TIP3   OH274755   4.927   4.301  12.657  0.1225 -0.4363  0.3904
17755TIP3    H174756   4.904   4.321  12.748  0.6426  0.0545  0.4207
17755TIP3    H274757   5.006   4.247  12.664  0.2060 -0.3342  0.2297
17756TIP3   OH274758   5.696   1.043  10.869  0.2645 -0.1029  0.5502
17756TIP3    H174759   5.646   0.966  10.897 -0.3730 -0.0616 -0.4080
17756TIP3    H274760   5.781   1.009  10.842  0.6281 -0.2318  1.7992
17757TIP3   OH274761   6.768   3.120  12.893  0.0276  0.1054  0.3612
17757TIP3    H174762   6.757   3.059  12.821 -0.5624  0.4919  0.1217
17757TIP3    H274763   6.697   3.099  12.954 -1.0931  1.4882 -0.4042
17758TIP3   OH274764   4.764   5.589   1.641  0.4160 -0.3713  0.1605
17758TIP3    H174765   4.752   5.543   1.724  0.9710  0.3918  0.6801
17758TIP3    H274766   4.703   5.663   1.646 -0.5547 -1.0789 -0.7168
17759TIP3   OH274767   0.515   1.206  15.654 -0.1806  0.0427 -0.2233
17759TIP3    H174768   0.545   1.151  15.727  0.5403 -1.0085 -1.2648
17759TIP3    H274769   0.419   1.203  15.660 -0.2284 -2.4067 -0.9413
17760TIP3   OH274770   6.175   1.112  13.445  0.2304 -0.1834  0.2365
17760TIP3    H174771   6.224   1.063  13.511  1.1285 -1.1612 -1.1001
17760TIP3    H274772   6.243   1.152  13.390 -0.4865  0.2865 -0.3275
17761TIP3   OH274773   1.836   4.178  15.829  0.1395 -0.2627  0.8337
17761TIP3    H174774   1.881   4.098  15.805  0.3255  0.3438 -0.9528
17761TIP3    H274775   1.749   4.170  15.791  1.3677  1.9780 -3.0454
17762TIP3   OH274776   0.421   3.495  14.386 -0.2921 -0.3545 -0.1488
17762TIP3    H174777   0.381   3.516  14.470 -0.4094 -0.6245 -0.1370
17762TIP3    H274778   0.483   3.425  14.405 -1.1959 -1.2652 -0.4908
17763TIP3   OH274779   2.572   0.108  15.152 -0.1572  0.1626  0.0302
17763TIP3    H174780   2.534   0.182  15.199 -0.2433  0.4949 -0.5441
17763TIP3    H274781   2.502   0.079  15.094 -0.2099 -0.5398  0.4397
17764TIP3   OH274782   6.791   5.673  15.494 -0.7951 -0.2961 -0.1290
17764TIP3    H174783   6.874   5.668  15.542 -0.9950  0.2716  0.2926
17764TIP3    H274784   6.816   5.703  15.407 -0.5662 -0.0266  0.0259
17765TIP3   OH274785   0.700   2.496  16.693  0.4986 -0.0805  0.2767
17765TIP3    H174786   0.747   2.579  16.686 -0.1519  0.2666 -0.1439
17765TIP3    H274787   0.652   2.489  16.610 -0.6422 -0.1235  0.9114
17766TIP3   OH274788   1.558   2.837   0.213 -0.9465  0.0550  0.1272
17766TIP3    H174789   1.473   2.800   0.239 -2.2830  2.2847 -0.8096
17766TIP3    H274790   1.622   2.772   0.243 -2.8186 -0.8437  2.5817
17767TIP3   OH274791   6.628   5.372   5.333 -0.5862 -0.2300  0.2277
17767TIP3    H174792   6.600   5.455   5.295  2.3481  0.3727 -0.9366
17767TIP3    H274793   6.662   5.395   5.419 -0.1519 -0.2587  0.0694
17768TIP3   OH274794   1.333   6.594  14.354 -0.2236  0.2857 -0.0699
17768TIP3    H174795   1.417   6.616  14.393  0.6307 -0.5971 -1.3438
17768TIP3    H274796   1.342   6.502  14.326 -1.6093  0.1651 -0.2214
17769TIP3   OH274797   2.415   6.246   5.575 -0.5527  0.0803 -0.1649
17769TIP3    H174798   2.436   6.240   5.668 -2.9007 -1.6743  0.3522
17769TIP3    H274799   2.460   6.171   5.536  0.8062  1.0757 -0.5686
17770TIP3   OH274800   1.802   0.232  12.983 -0.4696 -0.1866  0.3343
17770TIP3    H174801   1.820   0.248  13.076 -0.4985 -0.0006  0.3065
17770TIP3    H274802   1.732   0.166  12.984 -0.0899 -0.5952  0.4414
17771TIP3   OH274803   2.097   5.989   2.080 -0.2906 -0.4568  0.1308
17771TIP3    H174804   2.160   5.964   2.147  0.2852 -4.6750 -1.6348
17771TIP3    H274805   2.150   6.016   2.006 -0.8338  1.5706  0.4375
17772TIP3   OH274806   3.020   4.223  16.490 -0.2440 -0.2581  0.0686
17772TIP3    H174807   2.939   4.225  16.440  0.5393 -0.5546 -1.2449
17772TIP3    H274808   2.996   4.179  16.572 -1.0188 -2.0293 -1.0585
17773TIP3   OH274809   5.358   1.705   4.672  0.2395 -0.2960  0.2562
17773TIP3    H174810   5.264   1.686   4.665  0.2596 -0.1401 -0.6156
17773TIP3    H274811   5.362   1.794   4.709  0.1012 -1.0632  2.2065
17774TIP3   OH274812   1.888   0.441   2.185  0.1138 -0.2078 -0.1833
17774TIP3    H174813   1.842   0.519   2.154  0.0360  0.2558  1.0212
17774TIP3    H274814   1.889   0.451   2.281  1.1526 -1.0973 -0.0835
17775TIP3   OH274815   4.894   3.108  12.156 -0.3175  0.1221  0.0950
17775TIP3    H174816   4.821   3.122  12.096  0.1190 -0.7233 -0.6752
17775TIP3    H274817   4.854   3.073  12.236 -0.7425 -0.6207 -0.4274
17776TIP3   OH274818   6.620   4.508  17.053  0.0713  0.2111  0.0861
17776TIP3    H174819   6.613   4.510  17.149 -0.0528 -0.3337  0.0908
17776TIP3    H274820   6.569   4.432  17.027 -0.1911  0.5698 -0.4453
17777TIP3   OH274821   6.025   6.523   4.391 -0.2373 -0.3313  0.5018
17777TIP3    H174822   6.012   6.550   4.300  0.9087  0.2618  0.4928
17777TIP3    H274823   5.936   6.513   4.426 -0.7012 -1.2759 -0.8696
17778TIP3   OH274824   4.058   0.568  11.049 -0.2553  0.2523  0.0805
17778TIP3    H174825   4.065   0.663  11.059 -0.7326  0.1628  1.5297
17778TIP3    H274826   4.001   0.556  10.973  0.7548  1.0989 -0.8387
17779TIP3   OH274827   0.279   2.441  12.165  0.0076 -0.0649  0.5312
17779TIP3    H174828   0.375   2.441  12.166  0.0381 -1.6765  1.7066
17779TIP3    H274829   0.255   2.531  12.187  1.2103  0.6728 -0.9915
17780TIP3   OH274830   5.387   3.455  12.777 -0.0921 -0.4139 -0.1592
17780TIP3    H174831   5.383   3.519  12.706  2.5424  1.0147  0.8485
17780TIP3    H274832   5.297   3.426  12.788 -1.2518  2.4170 -1.3218
17781TIP3   OH274833   1.154   1.837  15.478 -0.2461 -0.3699 -0.4691
17781TIP3    H174834   1.135   1.847  15.572 -0.7714  0.1799 -0.6247
17781TIP3    H274835   1.192   1.921  15.453  1.4938 -1.0991 -0.3941
17782TIP3   OH274836   2.190   4.294  11.647 -0.0290 -0.1959 -0.2046
17782TIP3    H174837   2.211   4.306  11.554  0.9794  0.3898  0.0900
17782TIP3    H274838   2.274   4.279  11.689 -0.5350 -1.0373  0.5500
17783TIP3   OH274839   4.387   6.574  12.877 -0.5281 -0.8692 -0.3820
17783TIP3    H174840   4.432   6.489  12.875  0.0155 -0.5843 -0.5770
17783TIP3    H274841   4.446   6.631  12.926 -1.7057 -1.0379  1.3344
17784TIP3   OH274842   0.978   0.772  17.159 -0.1858  0.2777  0.1459
17784TIP3    H174843   1.048   0.754  17.096  0.6284  1.3203  0.7299
17784TIP3    H274844   1.023   0.786  17.242 -0.8550  3.2378  0.1036
17785TIP3   OH274845   4.409   0.878  11.657  0.4132 -0.0475  0.2255
17785TIP3    H174846   4.381   0.791  11.685  1.8225 -0.1968  1.2517
17785TIP3    H274847   4.429   0.924  11.738  0.7805  0.8680 -0.3648
17786TIP3   OH274848   2.583   4.934   5.752  0.2486 -0.0542 -0.7636
17786TIP3    H174849   2.506   4.917   5.807  0.6360 -2.1181 -0.7754
17786TIP3    H274850   2.604   4.849   5.713  0.8615  1.0395 -2.9950
17787TIP3   OH274851   1.578   5.296  12.399  0.3970 -0.1655  0.0382
17787TIP3    H174852   1.565   5.346  12.318  1.1936  1.2467  0.7437
17787TIP3    H274853   1.652   5.239  12.380 -0.2735 -0.8437 -0.6485
17788TIP3   OH274854   6.375   0.690   0.798  0.4664 -0.0981  0.1074
17788TIP3    H174855   6.406   0.609   0.838  0.5469 -0.1856 -0.1338
17788TIP3    H274856   6.435   0.706   0.725 -1.3794 -1.5411 -1.8794
17789TIP3   OH274857   1.655   1.641   1.972  0.7368  0.1230 -0.4413
17789TIP3    H174858   1.606   1.679   1.900  1.3249 -0.0038 -0.9215
17789TIP3    H274859   1.625   1.688   2.049  1.6055  1.7590 -1.0427
17790TIP3   OH274860   4.186   3.458   5.644  0.2753 -0.1171 -0.0637
17790TIP3    H174861   4.121   3.393   5.671  0.0832  0.2735  0.4538
17790TIP3    H274862   4.177   3.528   5.709  0.1928  0.6074 -0.8496
17791TIP3   OH274863   2.457   1.296  14.880 -0.4198  0.0091 -0.3627
17791TIP3    H174864   2.523   1.341  14.932 -0.3745  0.6635 -0.9701
17791TIP3    H274865   2.453   1.208  14.917  0.4305  0.1123 -0.0040
17792TIP3   OH274866   4.449   1.406   3.798  0.2621 -0.2221  0.2459
17792TIP3    H174867   4.393   1.394   3.722 -0.4502 -1.6150  0.9491
17792TIP3    H274868   4.535   1.427   3.762 -0.9221  3.5374 -0.8515
17793TIP3   OH274869   4.415   2.971   2.886 -0.0798 -0.0986 -0.5277
17793TIP3    H174870   4.375   2.969   2.973  1.0252 -1.8474 -0.0034
17793TIP3    H274871   4.420   2.880   2.859  1.2576  0.2543 -1.6279
17794TIP3   OH274872   2.184   0.205   0.246 -0.8784  0.0872 -0.5062
17794TIP3    H174873   2.091   0.192   0.231 -0.7641  0.1286 -1.3250
17794TIP3    H274874   2.190   0.279   0.305 -1.2960  2.6284 -3.4226
17795TIP3   OH274875   1.145   6.533  14.130  0.0686  0.4518 -0.3325
17795TIP3    H174876   1.150   6.622  14.166  0.5020  0.6112 -0.7767
17795TIP3    H274877   1.166   6.477  14.204 -0.8723  0.6707  0.1294
17796TIP3   OH274878   5.251   1.291   2.012 -0.0801 -0.4131 -0.1998
17796TIP3    H174879   5.257   1.383   2.037 -0.7713 -0.3303 -0.2975
17796TIP3    H274880   5.181   1.256   2.067 -1.3366 -0.3274 -1.6586
17797TIP3   OH274881   6.219   2.029  12.229  0.0693  0.6431 -0.6752
17797TIP3    H174882   6.152   1.962  12.238  2.4584 -1.7926  0.4018
17797TIP3    H274883   6.171   2.108  12.205 -2.8654 -1.5161 -2.5846
17798TIP3   OH274884   5.581   2.759   4.214  0.0132 -0.1715  0.3357
17798TIP3    H174885   5.655   2.717   4.257  0.3221 -0.8365 -0.8141
17798TIP3    H274886   5.504   2.724   4.260  0.3574 -0.1239  0.9708
17799TIP3   OH274887   1.868   5.489   0.292 -0.5201 -0.2450 -0.1773
17799TIP3    H174888   1.942   5.453   0.340 -1.3364  0.5566  1.7980
17799TIP3    H274889   1.901   5.568   0.251 -0.4444  0.6140  1.4510
17800TIP3   OH274890   1.060   1.023   5.389 -0.2091 -0.0447  0.1129
17800TIP3    H174891   1.049   0.948   5.448 -2.0146 -1.4241 -1.8294
17800TIP3    H274892   0.973   1.060   5.380  0.3910  1.3476 -0.2056
17801TIP3   OH274893   4.749   6.755   5.841 -0.4091  0.1265 -0.3090
17801TIP3    H174894   4.718   6.782   5.754 -0.6834 -0.2950 -0.3485
17801TIP3    H274895   4.804   6.827   5.871  0.3268 -0.0591 -1.1679
17802TIP3   OH274896   0.582   5.294   3.917  0.2738  0.3115 -0.4415
17802TIP3    H174897   0.676   5.281   3.932  0.5571  1.5401 -1.0196
17802TIP3    H274898   0.554   5.352   3.988 -0.3173 -0.9371  0.3839
17803TIP3   OH274899   6.420   2.403   4.393  0.2696 -0.5206 -0.2229
17803TIP3    H174900   6.434   2.333   4.329 -0.5099  0.4629 -1.5232
17803TIP3    H274901   6.354   2.460   4.352  1.2584  1.2602  0.5525
17804TIP3   OH274902   2.950   2.658   3.738  0.4612  0.3488  0.3125
17804TIP3    H174903   2.949   2.565   3.761  0.9615  0.1041 -0.6108
17804TIP3    H274904   2.932   2.660   3.644 -2.3268  1.3645  0.7848
17805TIP3   OH274905   0.071   0.636  12.224 -0.2870  0.0875  0.0762
17805TIP3    H174906   0.045   0.700  12.157 -0.6204 -0.3960 -0.2680
17805TIP3    H274907   0.166   0.632  12.217 -0.0815  1.8290  1.2993
17806TIP3   OH274908   4.949   4.088  14.016 -0.0357 -0.3525  0.4504
17806TIP3    H174909   5.030   4.040  13.995  0.1467  0.4615 -0.7930
17806TIP3    H274910   4.892   4.073  13.940 -0.8760 -0.5224  1.1061
17807TIP3   OH274911   4.593   0.978   2.173 -0.2598 -0.0344 -0.0677
17807TIP3    H174912   4.640   1.047   2.126  0.4861  0.6308  1.5821
17807TIP3    H274913   4.531   1.026   2.229  1.2035 -0.5557  2.1150
17808TIP3   OH274914   1.578   4.844  15.182  0.1940  0.3510 -1.0371
17808TIP3    H174915   1.629   4.817  15.259  0.7885 -2.6942 -2.3563
17808TIP3    H274916   1.487   4.823  15.205 -0.0294  2.0548 -0.1953
17809TIP3   OH274917   3.770   6.653   2.872  0.1182  0.1262  0.1919
17809TIP3    H174918   3.720   6.573   2.885  0.2204 -0.1294 -0.9116
17809TIP3    H274919   3.745   6.709   2.945 -3.1072  0.6828 -1.1901
17810TIP3   OH274920   3.265   5.037   2.189  0.2385 -0.5717  0.0694
17810TIP3    H174921   3.300   5.099   2.125  0.7553 -2.1662 -1.2665
17810TIP3    H274922   3.244   4.959   2.137 -2.5656 -0.7493  1.2871
17811TIP3   OH274923   2.211   3.538  10.996 -0.1995 -0.3775 -0.0378
17811TIP3    H174924   2.155   3.615  10.994 -1.6988 -1.4267 -3.0265
17811TIP3    H274925   2.297   3.571  10.969  0.1326  0.7684  2.1135
17812TIP3   OH274926   4.450   1.373  10.599 -0.0891  0.6922 -0.0885
17812TIP3    H174927   4.457   1.278  10.594 -0.3064  0.4329  2.6447
17812TIP3    H274928   4.362   1.393  10.568 -0.0376  0.0252 -0.6863
17813TIP3   OH274929   3.714   5.831  15.680  0.8297 -0.1898  0.0996
17813TIP3    H174930   3.758   5.860  15.600 -1.3578  1.6420 -0.5417
17813TIP3    H274931   3.699   5.737  15.666  3.5616 -0.6775 -0.0425
17814TIP3   OH274932   2.010   1.020  11.573  0.2523  0.4773  0.2103
17814TIP3    H174933   2.067   0.991  11.645  0.5564  1.1052  0.2304
17814TIP3    H274934   1.990   1.111  11.593  0.4796  0.7139 -0.5823
17815TIP3   OH274935   3.193   0.254  13.943 -0.0308 -0.6200  0.4820
17815TIP3    H174936   3.255   0.182  13.954 -1.6182 -2.0730  0.2560
17815TIP3    H274937   3.224   0.301  13.866  1.5088 -0.5146  1.1305
17816TIP3   OH274938   4.908   6.205   2.671  0.7175 -0.4545 -0.6003
17816TIP3    H174939   4.893   6.288   2.716  1.1792  0.7299 -2.5478
17816TIP3    H274940   4.895   6.139   2.739  1.8525  1.2447  1.3952
17817TIP3   OH274941   6.086   5.452  12.899  0.1133  0.2414  0.2935
17817TIP3    H174942   6.102   5.452  12.804 -1.8312  0.7478 -0.0569
17817TIP3    H274943   6.137   5.377  12.931  1.9367  0.8872 -0.9036
17818TIP3   OH274944   3.810   5.566  16.761 -0.2582 -0.4759 -0.1710
17818TIP3    H174945   3.867   5.609  16.825 -0.6764 -1.3225  0.7891
17818TIP3    H274946   3.728   5.616  16.765 -0.8375 -1.4904  1.1427
17819TIP3   OH274947   3.214   5.152   0.714  0.1040 -0.0570 -0.1269
17819TIP3    H174948   3.188   5.109   0.795  0.5292  0.1631  0.1314
17819TIP3    H274949   3.297   5.194   0.735  0.0337  0.3142 -0.5711
17820TIP3   OH274950   5.471   3.403   5.723  1.0326  0.2376 -0.7977
17820TIP3    H174951   5.443   3.428   5.811  2.0453  1.8757 -0.9075
17820TIP3    H274952   5.527   3.326   5.736  0.0717 -0.3709 -0.1698
17821TIP3   OH274953   2.936   1.857  11.869  0.1603 -0.0779  0.0288
17821TIP3    H174954   2.940   1.932  11.810 -1.5441 -0.1968 -0.3028
17821TIP3    H274955   2.924   1.782  11.811 -2.1223 -0.1326  0.4782
17822TIP3   OH274956   6.449   4.178  14.109  0.2647  0.3286  0.6780
17822TIP3    H174957   6.397   4.118  14.161 -1.2437  0.5485 -0.5061
17822TIP3    H274958   6.438   4.263  14.152 -0.1625  0.3296  0.5667
17823TIP3   OH274959   1.776   0.174   2.889  0.2277 -0.0326  0.4692
17823TIP3    H174960   1.866   0.150   2.912  0.3473  0.0324  0.0814
17823TIP3    H274961   1.754   0.245   2.949  0.7265  0.4959  0.0338
17824TIP3   OH274962   1.420   2.961   6.265  0.1262  0.3317 -0.0114
17824TIP3    H174963   1.485   3.026   6.238  1.1853 -1.1294 -1.1601
17824TIP3    H274964   1.442   2.883   6.214 -0.4969 -1.2460  1.9758
17825TIP3   OH274965   2.399   5.380  12.504  0.3358  0.7284  0.0016
17825TIP3    H174966   2.434   5.408  12.420  1.9135  0.2472  0.4646
17825TIP3    H274967   2.476   5.370  12.560 -0.5657 -0.1917  1.1315
17826TIP3   OH274968   1.349   2.290  16.863  0.1752 -0.0782  0.4507
17826TIP3    H174969   1.331   2.379  16.831 -0.2636  0.1048  1.1727
17826TIP3    H274970   1.299   2.284  16.944  2.3166 -0.0219  1.8773
17827TIP3   OH274971   5.623   6.033  10.586  0.1169 -1.0593  0.0727
17827TIP3    H174972   5.531   6.060  10.585  0.0371 -1.3261 -0.5676
17827TIP3    H274973   5.672   6.113  10.606 -0.2773 -1.0063  0.8583
17828TIP3   OH274974   5.588   5.904   1.089 -0.0496 -0.6130  0.5228
17828TIP3    H174975   5.495   5.927   1.085 -0.1392 -0.9320  0.7909
17828TIP3    H274976   5.590   5.817   1.127  0.3683 -0.5599  0.6273
17829TIP3   OH274977   4.107   3.160   5.706 -0.0873  0.0446 -0.6405
17829TIP3    H174978   4.044   3.093   5.680  1.3821 -2.3775  1.4628
17829TIP3    H274979   4.064   3.207   5.778 -0.5073  0.2399 -1.0189
17830TIP3   OH274980   5.670   0.300  11.327  0.7236  0.0827  0.1897
17830TIP3    H174981   5.723   0.247  11.267  0.6500 -0.3207  0.4849
17830TIP3    H274982   5.698   0.274  11.414  0.2282  0.0654  0.3442
17831TIP3   OH274983   5.382   3.785   1.004 -0.5842 -0.3365  0.1618
17831TIP3    H174984   5.345   3.865   0.967 -1.9601 -1.8145 -1.9368
17831TIP3    H274985   5.448   3.758   0.941  1.2153  0.0684  1.8014
17832TIP3   OH274986   0.611   3.409  15.101 -0.5972 -0.5521  0.0699
17832TIP3    H174987   0.593   3.315  15.094 -1.5449 -0.3813  0.0534
17832TIP3    H274988   0.532   3.445  15.142 -2.2436  0.8761 -3.8989
17833TIP3   OH274989   3.003   1.241   4.103  0.3879 -0.3152 -0.6991
17833TIP3    H174990   2.944   1.216   4.032  0.2730 -0.2134 -0.6387
17833TIP3    H274991   2.948   1.289   4.165  0.7379  0.6637 -1.1209
17834TIP3   OH274992   1.030   1.827   4.778 -0.4269  0.0119  0.3628
17834TIP3    H174993   1.003   1.787   4.860 -0.0434  0.0560  0.5144
17834TIP3    H274994   0.979   1.783   4.711  0.1530 -0.8823  0.5019
17835TIP3   OH274995   5.677   4.979   0.349 -0.3677 -0.0996  0.0667
17835TIP3    H174996   5.709   4.911   0.408  0.4506  0.3698  0.1874
17835TIP3    H274997   5.585   4.958   0.335 -0.7221  0.0080  1.8893
17836TIP3   OH274998   2.469   1.540   0.270  0.6624  0.6515  0.1047
17836TIP3    H174999   2.506   1.453   0.258 -1.9202 -0.6348  0.6648
17836TIP3    H275000   2.513   1.574   0.347  2.0127  0.0369 -0.3667
17837TIP3   OH275001   2.539   2.806   1.430  0.1836 -0.0439  0.1927
17837TIP3    H175002   2.564   2.765   1.512 -1.2949  3.2173  2.4554
17837TIP3    H275003   2.445   2.791   1.422  0.0219  1.0178 -0.0498
17838TIP3   OH275004   4.201   2.012  15.079 -0.3764  0.4468 -0.2183
17838TIP3    H175005   4.185   1.926  15.039  1.6945  1.7284 -4.3853
17838TIP3    H275006   4.291   2.008  15.109  0.1325  1.4642 -1.5338
17839TIP3   OH275007   3.060   5.926   1.300  0.0031  0.2685  0.6473
17839TIP3    H175008   3.048   5.863   1.371  0.3926  0.1878  0.6421
17839TIP3    H275009   3.133   5.891   1.249 -2.0445 -1.2509 -1.4835
17840TIP3   OH275010   2.863   5.381  13.785  0.4948  0.2888 -0.2434
17840TIP3    H175011   2.948   5.407  13.749  1.4279 -0.0714  1.5430
17840TIP3    H275012   2.805   5.454  13.766  1.2267  0.5736 -1.4451
17841TIP3   OH275013   0.125   4.751   5.275 -0.1835  0.3367  0.0177
17841TIP3    H175014   0.193   4.771   5.212  1.2735  0.7957  1.6536
17841TIP3    H275015   0.146   4.805   5.352 -0.8158 -1.5100  1.5814
17842TIP3   OH275016   3.157   2.090  16.646  0.1764  0.2240 -0.3208
17842TIP3    H175017   3.076   2.116  16.602 -0.1050  1.1724  0.7121
17842TIP3    H275018   3.207   2.171  16.653  1.0363 -0.2775 -0.5737
17843TIP3   OH275019   2.209   4.348  16.197 -0.2653  0.1538  0.0829
17843TIP3    H175020   2.152   4.422  16.177 -1.6561 -0.4017  1.7426
17843TIP3    H275021   2.290   4.387  16.229  0.2072  0.9471 -1.8976
17844TIP3   OH275022   6.046   1.990   5.346  0.6531  0.2423 -0.4286
17844TIP3    H175023   6.083   1.915   5.299  0.4163  1.0037 -1.9233
17844TIP3    H275024   5.951   1.984   5.331  0.4709 -0.0091  0.7671
17845TIP3   OH275025   1.606   2.839  16.733  0.5393 -0.5088 -0.3849
17845TIP3    H175026   1.547   2.914  16.725  1.2550 -0.0830 -2.4269
17845TIP3    H275027   1.684   2.865  16.685  1.0700 -2.3283 -0.5917
17846TIP3   OH275028   3.613   3.041   5.141  0.0470 -0.1155 -0.4787
17846TIP3    H175029   3.591   3.117   5.087 -1.3710 -1.5643 -2.1005
17846TIP3    H275030   3.574   3.059   5.226  3.2139  2.6983  0.5976
17847TIP3   OH275031   1.640   1.413  13.211 -0.0887  0.0354  0.2567
17847TIP3    H175032   1.727   1.453  13.201 -0.7336  2.0556  1.9925
17847TIP3    H275033   1.593   1.439  13.132  0.2313  0.7823  0.3016
17848TIP3   OH275034   6.338   5.337   6.293  0.0563  0.2373  0.1238
17848TIP3    H175035   6.331   5.294   6.208  0.2649  0.4349  0.0072
17848TIP3    H275036   6.395   5.278   6.344  1.6893  1.1594 -0.5513
17849TIP3   OH275037   5.683   4.765  16.819  0.0350 -0.4726  0.0051
17849TIP3    H175038   5.587   4.768  16.821  0.0660  0.3424  1.1729
17849TIP3    H275039   5.710   4.803  16.902  1.4305  2.5886 -1.6703
17850TIP3   OH275040   6.171   3.993  15.535 -0.2387 -0.4691  0.2487
17850TIP3    H175041   6.110   3.920  15.548 -0.0530 -0.5541  0.6678
17850TIP3    H275042   6.132   4.045  15.464 -0.7715 -0.5526  0.4722
17851TIP3   OH275043   4.396   4.427  15.643  0.0586 -0.5756  0.3537
17851TIP3    H175044   4.383   4.487  15.717  1.9678 -0.5649  0.7379
17851TIP3    H275045   4.491   4.419  15.636 -0.0219  0.0734 -2.6357
17852TIP3   OH275046   2.790   4.583   2.120 -0.3276 -0.3340  0.3111
17852TIP3    H175047   2.834   4.532   2.052  1.3117 -1.4807  2.1328
17852TIP3    H275048   2.850   4.655   2.139 -0.4173 -0.4318  1.0149
17853TIP3   OH275049   0.389   0.731  12.518 -0.1934  0.1293  0.6328
17853TIP3    H175050   0.372   0.685  12.435 -1.0921 -1.4325  1.6179
17853TIP3    H275051   0.484   0.730  12.527 -0.0826  0.3834 -0.4118
17854TIP3   OH275052   6.583   2.528  15.738  0.4160  0.1000 -0.0868
17854TIP3    H175053   6.496   2.540  15.700  0.7481  1.2163 -0.5197
17854TIP3    H275054   6.573   2.452  15.795 -0.9189  0.3909  0.1054
17855TIP3   OH275055   4.973   6.409  10.566 -0.3489 -0.2502  0.8836
17855TIP3    H175056   5.034   6.384  10.498  0.7724  0.3577  1.6431
17855TIP3    H275057   5.016   6.480  10.613 -0.6874 -1.2157  2.7707
17856TIP3   OH275058   2.250   1.788   5.503 -0.2564 -0.2017 -0.1808
17856TIP3    H175059   2.318   1.830   5.449 -0.9927  0.9243 -0.2761
17856TIP3    H275060   2.298   1.737   5.567  0.6693 -0.0590 -0.7423
17857TIP3   OH275061   5.315   4.330   3.223  0.4492 -0.2081 -0.0622
17857TIP3    H175062   5.225   4.323   3.192  0.4832 -1.3428  0.0564
17857TIP3    H275063   5.310   4.384   3.301 -0.1989 -0.6877  0.2345
17858TIP3   OH275064   6.320   5.768   1.050 -0.4829  0.1636 -0.2545
17858TIP3    H175065   6.308   5.861   1.071 -0.9839  0.6201 -2.3366
17858TIP3    H275066   6.324   5.766   0.954 -1.8832 -2.1263 -0.3112
17859TIP3   OH275067   5.017   2.381  16.254  0.2597  0.1243 -0.4538
17859TIP3    H175068   5.069   2.302  16.240  1.0035  0.1245  1.8557
17859TIP3    H275069   4.940   2.350  16.301  0.7556  0.7846  0.8346
17860TIP3   OH275070   3.368   4.799   5.306 -0.3309  0.1226 -0.3179
17860TIP3    H175071   3.359   4.705   5.321  0.0003 -0.0914 -1.3674
17860TIP3    H275072   3.414   4.832   5.383 -1.8849 -0.2941  0.8267
17861TIP3   OH275073   6.352   5.564   5.973  0.1928  0.1841 -0.3428
17861TIP3    H175074   6.372   5.529   6.060 -1.8519  0.4632  0.3008
17861TIP3    H275075   6.366   5.490   5.914 -0.6430 -0.7260  0.5478
17862TIP3   OH275076   6.332   3.945  14.958  0.3026 -0.0752 -0.0479
17862TIP3    H175077   6.349   4.037  14.980 -0.8711 -0.1117  1.1214
17862TIP3    H275078   6.246   3.927  14.996 -0.2934 -1.1644 -1.8225
17863TIP3   OH275079   5.910   1.678  14.956  0.6556  0.3613  0.0576
17863TIP3    H175080   5.984   1.626  14.926 -1.1317 -1.9063 -0.6813
17863TIP3    H275081   5.845   1.614  14.984 -0.6069  2.2881  1.8154
17864TIP3   OH275082   3.033   2.718  15.401  0.2008  0.3122  0.0763
17864TIP3    H175083   3.044   2.662  15.478  0.3833  1.5000  0.9424
17864TIP3    H275084   3.122   2.727  15.366  0.2292  0.3694  0.1616
17865TIP3   OH275085   6.422   2.322  13.556 -0.1750 -0.0149  0.1735
17865TIP3    H175086   6.425   2.233  13.591 -1.5072 -0.7271 -1.3822
17865TIP3    H275087   6.420   2.311  13.461 -0.2007  1.6833 -0.0657
17866TIP3   OH275088   5.119   1.973   4.546 -0.0793 -0.8504 -0.1880
17866TIP3    H175089   5.025   1.964   4.531 -0.0602 -1.4306  0.0240
17866TIP3    H275090   5.126   1.998   4.638  0.0775 -3.6547  0.6528
17867TIP3   OH275091   3.806   0.462   0.918  0.0867 -0.3439 -0.3096
17867TIP3    H175092   3.864   0.480   0.992 -1.8253 -1.3394  1.5472
17867TIP3    H275093   3.830   0.374   0.889 -0.4988 -0.8081  0.5424
17868TIP3   OH275094   4.349   3.422  15.289 -0.0243  0.5323 -0.2294
17868TIP3    H175095   4.407   3.497  15.301  1.4835 -0.4742 -0.9997
17868TIP3    H275096   4.404   3.355  15.250 -1.9046 -0.2099 -1.7462
17869TIP3   OH275097   1.626   1.120   3.796  0.1135 -0.1914 -0.4635
17869TIP3    H175098   1.543   1.087   3.761 -0.1043  0.8885 -1.0263
17869TIP3    H275099   1.676   1.042   3.818 -1.6682 -0.8886  1.4033
17870TIP3   OH275100   3.322   5.008   6.080 -0.7881 -0.0235  0.7179
17870TIP3    H175101   3.228   4.992   6.090 -0.5755 -1.7741  0.2392
17870TIP3    H275102   3.330   5.104   6.081 -2.5341  0.1552  1.0537
17871TIP3   OH275103   2.078   3.392  15.744 -0.0344 -0.2196 -0.2512
17871TIP3    H175104   2.010   3.421  15.805  1.2417 -0.7298  1.4997
17871TIP3    H275105   2.158   3.391  15.797  1.3847  0.4877 -2.2672
17872TIP3   OH275106   2.389   4.366  12.716 -0.2117 -0.0536  0.1195
17872TIP3    H175107   2.380   4.310  12.793 -0.3998 -0.8818 -0.4967
17872TIP3    H275108   2.382   4.306  12.642  0.9583  0.5876 -0.5343
17873TIP3   OH275109   3.847   3.739  13.912 -0.1489 -0.3017  0.4589
17873TIP3    H175110   3.832   3.766  14.002  1.6864 -0.5631  0.8748
17873TIP3    H275111   3.877   3.648  13.918 -1.8870 -0.9970 -0.5835
17874TIP3   OH275112   5.021   0.964   2.917 -0.1575 -0.1424  0.2813
17874TIP3    H175113   4.970   0.978   2.997  0.5341 -0.4401  0.7815
17874TIP3    H275114   5.017   1.047   2.870 -0.3263  0.1221  0.7637
17875TIP3   OH275115   3.904   2.337   5.101  0.2184 -0.2547  0.1801
17875TIP3    H175116   3.933   2.373   5.018 -0.3020  0.2419  0.2037
17875TIP3    H275117   3.906   2.242   5.089  1.5142 -0.2399  0.0807
17876TIP3   OH275118   0.044   5.193  16.511  0.6186 -0.1306  0.5275
17876TIP3    H175119   0.099   5.203  16.433  0.8439 -0.0329  0.6955
17876TIP3    H275120  -0.040   5.232  16.487 -0.2411 -2.5460 -0.6133
17877TIP3   OH275121   2.934   3.007  13.846  0.2505  0.1389  0.6398
17877TIP3    H175122   2.893   3.067  13.783  0.7488  1.2429  1.3248
17877TIP3    H275123   3.015   2.978  13.802 -1.8942 -3.4281 -1.4620
17878TIP3   OH275124   2.241   4.044  11.044  0.0900 -0.3719 -0.2466
17878TIP3    H175125   2.251   3.950  11.057  2.5766 -0.1639 -0.1993
17878TIP3    H275126   2.295   4.063  10.967  2.8270  1.5152  1.9577
17879TIP3   OH275127   3.080   5.404   0.826  0.6088  0.2578 -0.1394
17879TIP3    H175128   3.114   5.327   0.781 -1.2468 -0.9287  0.3871
17879TIP3    H275129   3.133   5.412   0.905  1.2176 -0.1068 -0.5062
17880TIP3   OH275130   4.198   3.684   2.610  0.2057  0.5629  0.3225
17880TIP3    H175131   4.253   3.658   2.537  1.3014  1.3672  0.8253
17880TIP3    H275132   4.242   3.648   2.687 -0.7407  0.0236  0.6256
17881TIP3   OH275133   0.791   2.705  15.010  0.5811  0.0852  0.1493
17881TIP3    H175134   0.834   2.785  14.981  1.2878 -0.4962 -0.4588
17881TIP3    H275135   0.745   2.729  15.090  0.3130  1.2335 -0.3319
17882TIP3   OH275136   2.035   3.479  13.149 -0.2413 -0.4182  0.3111
17882TIP3    H175137   1.980   3.404  13.170 -0.6830 -0.9031 -2.2352
17882TIP3    H275138   2.055   3.519  13.233 -1.6666 -2.2129  1.5693
17883TIP3   OH275139   1.347   3.299  10.663 -0.0852  0.2347 -0.1013
17883TIP3    H175140   1.361   3.215  10.707 -2.0514  0.5908  1.3302
17883TIP3    H275141   1.389   3.289  10.577  2.2237 -1.1570  1.0968
17884TIP3   OH275142   3.012   2.120  13.972  0.1686  0.1023  0.2834
17884TIP3    H175143   3.102   2.098  13.993 -0.1174  0.1843  1.7014
17884TIP3    H275144   3.013   2.215  13.957  0.3793  0.0414 -0.0968
17885TIP3   OH275145   5.078   0.317   2.880 -0.1929  0.3810 -0.0800
17885TIP3    H175146   5.132   0.383   2.836 -0.2094  0.8831  0.6558
17885TIP3    H275147   4.997   0.362   2.903 -0.5114 -0.0954 -0.2361
17886TIP3   OH275148   4.765   2.078  14.757 -0.2023  0.1896  0.7504
17886TIP3    H175149   4.696   2.140  14.780 -0.3606  0.1019  0.5228
17886TIP3    H275150   4.741   2.047  14.669  0.3522  0.4729  0.4917
17887TIP3   OH275151   3.293   0.393  14.630  0.2578 -0.4348  0.0947
17887TIP3    H175152   3.272   0.472  14.680  0.9992 -0.8571  1.1168
17887TIP3    H275153   3.303   0.423  14.540 -0.6186  0.4349  0.2715
17888TIP3   OH275154   1.229   3.736   4.915  0.1535  0.5102  0.1102
17888TIP3    H175155   1.207   3.650   4.879 -1.7793  0.9289  0.1546
17888TIP3    H275156   1.313   3.759   4.876 -1.0859  0.2661 -2.9001
17889TIP3   OH275157   5.925   2.489  13.743  0.3380 -0.1837  0.4458
17889TIP3    H175158   5.995   2.543  13.707 -0.3870  0.8390  0.5171
17889TIP3    H275159   5.968   2.407  13.767  0.9946 -0.7083 -2.1609
17890TIP3   OH275160   1.111   5.382   4.679 -0.3407  0.0984  0.0208
17890TIP3    H175161   1.206   5.394   4.673 -0.2373  0.4655  1.8542
17890TIP3    H275162   1.077   5.470   4.696 -0.9829 -0.0824 -0.3049
17891TIP3   OH275163   1.291   2.414   2.089  0.3850  0.5281  0.0979
17891TIP3    H175164   1.294   2.504   2.122  2.4648  0.2722  0.8008
17891TIP3    H275165   1.329   2.362   2.160  0.6003 -0.6894 -0.8756
17892TIP3   OH275166   6.753   1.531   5.443  0.3168 -0.1083 -0.2901
17892TIP3    H175167   6.793   1.545   5.529  1.7677  1.1370 -1.1114
17892TIP3    H275168   6.686   1.598   5.436  0.3293 -0.0859 -0.1965
17893TIP3   OH275169   5.491   5.478   2.724 -0.0821  0.0915 -0.0885
17893TIP3    H175170   5.585   5.467   2.711 -0.1144 -1.3796  0.6446
17893TIP3    H275171   5.484   5.551   2.785  0.5191  0.8192 -0.8581
17894TIP3   OH275172   0.432   0.911  14.562 -0.5314  0.0983  0.0612
17894TIP3    H175173   0.384   0.829  14.559  0.8805 -0.9422  2.5083
17894TIP3    H275174   0.372   0.973  14.603 -1.1664 -0.0643 -0.6196
17895TIP3   OH275175   6.399   5.795  12.198  0.2181  0.3358 -0.0971
17895TIP3    H175176   6.432   5.756  12.117  0.6225  0.7990 -0.1567
17895TIP3    H275177   6.468   5.853  12.228  0.0636  0.1973  0.5717
17896TIP3   OH275178   5.476   3.432  13.292 -0.3974 -0.4847  0.0738
17896TIP3    H175179   5.396   3.394  13.255  0.7160 -0.6358 -2.3530
17896TIP3    H275180   5.469   3.525  13.273  0.8305 -0.7583 -1.8948
17897TIP3   OH275181   4.372   6.453  15.267  0.0030  0.4926 -0.3358
17897TIP3    H175182   4.406   6.455  15.356  0.9951  0.9312 -0.7081
17897TIP3    H275183   4.350   6.544  15.248  0.3705  0.4937 -0.7553
17898TIP3   OH275184   6.737   4.403  13.323  0.2015  0.5059 -0.0093
17898TIP3    H175185   6.665   4.366  13.374  0.4055  0.8368  0.5371
17898TIP3    H275186   6.756   4.338  13.256  0.9540 -0.6581  1.2872
17899TIP3   OH275187   3.486   4.942   4.870  0.0082 -0.0247 -0.7058
17899TIP3    H175188   3.577   4.959   4.847  0.1340  1.5868  0.6961
17899TIP3    H275189   3.436   4.960   4.790  0.7087  1.8092 -0.7730
17900TIP3   OH275190   4.669   5.043   1.713 -0.5201  0.1654  0.1943
17900TIP3    H175191   4.590   4.998   1.686 -0.8945  0.6589  0.4552
17900TIP3    H275192   4.686   5.106   1.644  0.2751 -0.6910 -0.4099
17901TIP3   OH275193   1.447   4.360  12.262 -0.3332 -0.3841  0.3656
17901TIP3    H175194   1.409   4.275  12.240 -0.8971  0.2539 -1.2780
17901TIP3    H275195   1.390   4.394  12.331  0.7014 -1.8786  2.0506
17902TIP3   OH275196   2.818   4.538   1.199  0.4817  0.0226  0.2594
17902TIP3    H175197   2.762   4.510   1.272  0.2135 -0.3269 -0.0812
17902TIP3    H275198   2.890   4.585   1.242 -0.2522  0.7867  0.6802
17903TIP3   OH275199   2.387   6.378   1.460 -0.3259  0.2898  0.0590
17903TIP3    H175200   2.377   6.446   1.394 -0.8408 -0.0650 -0.2435
17903TIP3    H275201   2.310   6.321   1.447  1.3574 -1.8395 -1.4509
17904TIP3   OH275202   5.420   5.512   2.102 -0.4231 -0.1564 -0.3533
17904TIP3    H175203   5.414   5.437   2.043 -0.1570  0.6925 -1.5083
17904TIP3    H275204   5.381   5.584   2.052  0.7642  0.8273  0.0965
17905TIP3   OH275205   5.808   6.644  15.092  0.0825 -0.2285 -0.3039
17905TIP3    H175206   5.834   6.585  15.163  0.8127  0.2303 -0.1783
17905TIP3    H275207   5.714   6.653  15.102  0.3332  1.1186  1.6561
17906TIP3   OH275208   4.370   4.632   6.240 -0.0568  0.1476 -0.5407
17906TIP3    H175209   4.333   4.651   6.327  0.1061  1.7526 -0.7959
17906TIP3    H275210   4.451   4.682   6.237  0.7618 -1.1685 -1.0420
17907TIP3   OH275211   2.455   0.371  13.359 -0.0745 -0.7213 -0.5450
17907TIP3    H175212   2.421   0.286  13.331  0.1173 -0.7533 -0.6768
17907TIP3    H275213   2.450   0.368  13.455  2.3913 -1.9025 -0.3856
17908TIP3   OH275214   1.400   0.960   6.308 -0.1401  0.0071  0.2360
17908TIP3    H175215   1.395   0.877   6.355 -1.7001  0.3600  0.7423
17908TIP3    H275216   1.492   0.968   6.284 -0.1212 -2.3098 -0.6607
17909TIP3   OH275217   3.350   3.411  13.803 -0.1092  0.3942 -0.0879
17909TIP3    H175218   3.274   3.391  13.858 -0.9867  2.8617 -0.2769
17909TIP3    H275219   3.325   3.381  13.716 -0.0267 -0.5976  0.2168
17910TIP3   OH275220   6.210   2.330   5.016  0.0794  0.1153  0.0998
17910TIP3    H175221   6.172   2.243   5.009 -0.3521  0.0492  2.3349
17910TIP3    H275222   6.153   2.386   4.963  0.3518 -0.9342 -1.3371
17911TIP3   OH275223   6.094   4.790   2.347  0.2803 -0.0613 -0.0762
17911TIP3    H175224   6.097   4.844   2.426  0.7568 -0.9379  0.5166
17911TIP3    H275225   6.150   4.836   2.285 -0.3370  0.7927 -0.0271
17912TIP3   OH275226   5.156   3.670   2.566  0.1769  0.1183  0.0516
17912TIP3    H175227   5.216   3.650   2.494  1.7298  3.3100  0.2643
17912TIP3    H275228   5.079   3.709   2.523 -0.2520 -0.7960 -0.0243
17913TIP3   OH275229   1.130   1.905  11.825 -0.1660 -0.3062  0.0656
17913TIP3    H175230   1.201   1.959  11.860 -0.6584 -1.3985  3.1183
17913TIP3    H275231   1.057   1.966  11.811  0.1349  0.2421  0.8426
17914TIP3   OH275232   5.207   6.648  11.545  0.1993  0.3969 -0.7004
17914TIP3    H175233   5.149   6.664  11.620  1.7015 -1.7932  1.0911
17914TIP3    H275234   5.239   6.734  11.520 -0.0024  1.1904  1.5358
17915TIP3   OH275235   5.880   2.347   4.661  0.7337  0.2346  0.3164
17915TIP3    H175236   5.833   2.411   4.607  3.7114  2.5978  0.2621
17915TIP3    H275237   5.928   2.293   4.599 -0.4921 -1.0599  0.4446
17916TIP3   OH275238   2.380   0.991  11.526  0.3583 -0.3219  0.3652
17916TIP3    H175239   2.324   1.049  11.475  1.1094 -1.0770 -1.3936
17916TIP3    H275240   2.327   0.914  11.543 -0.9539  1.0916  3.4684
17917TIP3   OH275241   5.422   2.022   3.713  0.5060 -0.1544  0.1675
17917TIP3    H175242   5.421   2.023   3.617 -0.3578  1.5022  0.1625
17917TIP3    H275243   5.425   2.114   3.738 -0.7743 -0.5018  1.7403
17918TIP3   OH275244   6.495   2.895   4.704  0.1313  0.6282 -0.8028
17918TIP3    H175245   6.583   2.859   4.697 -0.2994 -0.9022  0.7671
17918TIP3    H275246   6.438   2.826   4.670 -0.7697 -0.6849  2.9237
17919TIP3   OH275247   6.226   3.178  12.401  0.3427  0.3162 -0.1380
17919TIP3    H175248   6.199   3.138  12.483  3.6925 -1.0034  0.4953
17919TIP3    H275249   6.230   3.272  12.419 -1.7550  0.3990  0.2081
17920TIP3   OH275250   6.006   5.449  12.130  0.2965 -0.0826  0.4739
17920TIP3    H175251   6.029   5.405  12.048 -0.6232 -0.1724  0.2503
17920TIP3    H275252   5.932   5.505  12.107  1.6445  1.8917  0.6759
17921TIP3   OH275253   0.524   3.712  15.486 -0.0494 -0.3165 -0.2418
17921TIP3    H175254   0.470   3.641  15.453  0.8334 -1.2836  0.3294
17921TIP3    H275255   0.530   3.774  15.413 -0.8046 -0.8310 -0.7547
17922TIP3   OH275256   4.036   1.726  14.735 -0.0693 -0.5002 -0.0536
17922TIP3    H175257   4.065   1.714  14.645  1.4723 -2.2587  0.6101
17922TIP3    H275258   3.951   1.681  14.738  0.1574 -0.9713 -0.4842
17923TIP3   OH275259   3.524   2.199  15.767 -0.1397 -0.0884  0.0854
17923TIP3    H175260   3.537   2.284  15.726  2.2783  0.4082  1.6549
17923TIP3    H275261   3.549   2.135  15.700  0.0088  0.5328 -0.4590
17924TIP3   OH275262   4.468   4.887  16.611  0.5001 -0.0447  0.3262
17924TIP3    H175263   4.385   4.931  16.594 -0.8679 -2.2424  0.9124
17924TIP3    H275264   4.522   4.954  16.653 -1.1106  1.3393  0.3157
17925TIP3   OH275265   0.778   1.831   2.685 -1.0499  0.1474 -0.0957
17925TIP3    H175266   0.746   1.769   2.619  1.2163  0.0795 -1.2447
17925TIP3    H275267   0.862   1.796   2.712 -1.0174  1.2573  1.3804
17926TIP3   OH275268   4.650   0.791  15.554  0.7903 -0.5017 -0.2134
17926TIP3    H175269   4.590   0.743  15.610 -0.4000  0.2778 -0.7781
17926TIP3    H275270   4.655   0.879  15.593 -0.1947  0.1087 -1.3883
17927TIP3   OH275271   6.434   4.191   4.518 -0.4178 -0.1498 -0.2292
17927TIP3    H175272   6.479   4.161   4.597 -1.6971 -1.6252 -0.0112
17927TIP3    H275273   6.468   4.135   4.449 -0.4149  0.1199 -0.4462
17928TIP3   OH275274   2.383   5.346   2.926  0.8901  0.3533  0.0601
17928TIP3    H175275   2.462   5.300   2.952  2.2225  1.8967 -1.0631
17928TIP3    H275276   2.329   5.279   2.884  1.8611 -0.6027  0.3042
17929TIP3   OH275277   6.072   3.583   1.462 -0.6006  0.1442 -0.0324
17929TIP3    H175278   6.068   3.678   1.452  1.1158  0.1813 -0.7830
17929TIP3    H275279   6.166   3.564   1.470 -0.7775 -1.6344 -1.5728
17930TIP3   OH275280   1.271   5.495  16.165  0.4708 -0.1692 -0.5429
17930TIP3    H175281   1.351   5.510  16.215  0.4011 -1.5116  0.0226
17930TIP3    H275282   1.295   5.429  16.100 -0.1557 -0.5445 -0.4046
17931TIP3   OH275283   3.997   2.162  15.249 -0.4403 -0.1054  0.3233
17931TIP3    H175284   4.053   2.222  15.299 -0.4530  1.0239 -0.9547
17931TIP3    H275285   4.058   2.098  15.212 -0.1185  0.4791 -0.1742
17932TIP3   OH275286   5.770   1.159   1.244 -0.1795  0.1888  0.6112
17932TIP3    H175287   5.679   1.189   1.234  0.2086  1.5156  0.8485
17932TIP3    H275288   5.767   1.066   1.224 -1.1944  0.6445 -1.6891
17933TIP3   OH275289   4.692   3.375   2.393 -0.5113 -0.2941 -0.2622
17933TIP3    H175290   4.682   3.281   2.409 -2.0529  0.0163  0.8993
17933TIP3    H275291   4.687   3.384   2.298 -0.9177 -1.3329 -0.3514
17934TIP3   OH275292   4.503   2.680  17.038  0.3075 -0.2068 -0.1671
17934TIP3    H175293   4.426   2.629  17.063 -1.1578  3.2258  3.2598
17934TIP3    H275294   4.468   2.763  17.007  2.5279  1.3254  1.1236
17935TIP3   OH275295   0.478   1.509   1.568 -0.5206  0.2632  0.0526
17935TIP3    H175296   0.504   1.558   1.645  0.5499  0.2995 -0.3182
17935TIP3    H275297   0.435   1.430   1.602 -0.9346  0.7437  0.6568
17936TIP3   OH275298   1.977   4.910   2.588 -0.2317 -0.7342  0.5853
17936TIP3    H175299   2.012   4.851   2.654  3.0281  0.6122  0.2790
17936TIP3    H275300   1.980   4.997   2.629 -1.6141 -0.3366 -0.1132
17937TIP3   OH275301   0.851   0.545  17.253  0.0834 -0.2506 -0.0065
17937TIP3    H175302   0.849   0.590  17.169 -0.9531  1.6940  0.9794
17937TIP3    H275303   0.910   0.598  17.307 -2.0574  0.7008  1.5481
17938TIP3   OH275304   2.215   4.638  16.620 -0.1891 -1.0019  0.1257
17938TIP3    H175305   2.213   4.715  16.564  1.0187 -0.9899  0.0735
17938TIP3    H275306   2.129   4.598  16.609 -1.2560  0.9003  0.9616
17939TIP3   OH275307   6.710   3.077   6.642 -0.6216  0.0485 -0.3119
17939TIP3    H175308   6.738   3.052   6.554  1.0707  0.0992  0.1850
17939TIP3    H275309   6.757   3.158   6.660 -0.0258 -0.5638  1.0661
17940TIP3   OH275310   4.337   4.579  14.101 -0.2797 -0.4139 -0.1122
17940TIP3    H175311   4.255   4.612  14.064 -0.1589  1.5940  1.2261
17940TIP3    H275312   4.326   4.484  14.105 -1.6029 -0.3965 -2.0869
17941TIP3   OH275313   5.724   1.899  16.607 -0.0231  0.1757  0.4549
17941TIP3    H175314   5.762   1.821  16.648  0.0953  0.7155  1.4153
17941TIP3    H275315   5.799   1.944  16.569  0.0100  0.1780  0.5206
17942TIP3   OH275316   1.431   0.201   2.528  0.2336  0.5308 -0.3224
17942TIP3    H175317   1.384   0.144   2.588  0.4674 -0.3501 -0.9579
17942TIP3    H275318   1.522   0.172   2.533  0.3696  0.8914 -0.6138
17943TIP3   OH275319   2.975   6.430   5.426 -0.2208  0.2520 -0.2022
17943TIP3    H175320   2.979   6.523   5.407  0.5891  0.2146 -0.2602
17943TIP3    H275321   3.053   6.412   5.478 -1.0296 -0.1607  0.9036
17944TIP3   OH275322   1.242   0.479   3.909  0.4514 -0.3643  0.2749
17944TIP3    H175323   1.159   0.512   3.875  1.1377 -0.6779 -1.8781
17944TIP3    H275324   1.308   0.514   3.850  1.9265  0.1086  2.1057
17945TIP3   OH275325   0.363   1.715  14.742  0.1446 -0.2572 -0.2309
17945TIP3    H175326   0.450   1.752  14.752 -0.3246  0.6629  0.6162
17945TIP3    H275327   0.343   1.677  14.827 -0.9251  1.0222  0.1305
17946TIP3   OH275328   2.796   1.032   4.692 -0.4838 -0.0861 -0.2667
17946TIP3    H175329   2.790   0.986   4.776 -0.5375  1.6579  0.7419
17946TIP3    H275330   2.888   1.026   4.668 -0.2445  0.3714  0.5132
17947TIP3   OH275331   0.234   0.919  11.791  0.2785 -0.1267  0.1339
17947TIP3    H175332   0.185   0.895  11.713  0.8759 -1.5119  0.1663
17947TIP3    H275333   0.230   1.015  11.793  0.1823 -0.0730 -1.5462
17948TIP3   OH275334   2.882   4.777  13.617  0.3478  0.2567  0.1895
17948TIP3    H175335   2.825   4.818  13.682 -0.9224 -1.0377 -0.0808
17948TIP3    H275336   2.968   4.773  13.661  0.2963  2.2607  0.5763
17949TIP3   OH275337   3.673   4.122   3.734  0.0332  0.2530 -0.0350
17949TIP3    H175338   3.658   4.107   3.828 -0.5970  3.4931  0.5208
17949TIP3    H275339   3.766   4.140   3.727  0.3636 -1.4493 -0.3257
17950TIP3   OH275340   4.808   2.561   4.927  0.0629 -0.0254 -0.4358
17950TIP3    H175341   4.865   2.484   4.921  0.2811 -0.1941  2.6130
17950TIP3    H275342   4.740   2.544   4.862  1.4977 -1.5274 -1.6638
17951TIP3   OH275343   4.934   6.451  12.833 -0.1963 -0.1971 -0.1904
17951TIP3    H175344   5.008   6.405  12.872 -1.1775 -0.8344  0.9702
17951TIP3    H275345   4.870   6.383  12.813 -0.5514  0.3595 -1.0229
17952TIP3   OH275346   6.673   2.350   0.685 -0.2179  0.8106 -0.4751
17952TIP3    H175347   6.767   2.353   0.703 -0.4472  2.0857  0.6779
17952TIP3    H275348   6.659   2.417   0.618 -0.3123  0.6707 -0.5955
17953TIP3   OH275349   3.799   1.372  10.987 -0.2018  0.1895 -0.0772
17953TIP3    H175350   3.865   1.313  11.023  1.1161  1.4535 -0.3070
17953TIP3    H275351   3.801   1.357  10.893 -0.3219  0.1532 -0.0741
17954TIP3   OH275352   3.748   3.801   1.110 -0.0637  0.0506 -0.0024
17954TIP3    H175353   3.665   3.754   1.103 -0.3961  0.4811  0.8816
17954TIP3    H275354   3.812   3.741   1.073 -0.6288 -0.7027  0.2004
17955TIP3   OH275355   1.641   2.477   1.761 -0.5995 -0.1022 -0.2594
17955TIP3    H175356   1.566   2.530   1.789 -1.4209 -1.6352  0.5462
17955TIP3    H275357   1.604   2.413   1.700 -0.1962 -1.5875  0.9845
17956TIP3   OH275358   4.578   5.988   0.684 -0.1207  0.1665  0.2229
17956TIP3    H175359   4.564   5.947   0.599  3.7275  1.6735 -1.4142
17956TIP3    H275360   4.564   6.082   0.668 -0.5435  0.3673  1.6021
17957TIP3   OH275361   1.989   6.565  12.849 -0.0654  0.2837  0.0769
17957TIP3    H175362   1.969   6.501  12.918 -0.9062  1.1071  0.6326
17957TIP3    H275363   1.964   6.521  12.768  0.0467 -0.3552  0.3805
17958TIP3   OH275364   1.572   5.466   5.311 -0.5453  0.4416  0.7176
17958TIP3    H175365   1.626   5.411   5.367 -0.8163  1.4574  2.0141
17958TIP3    H275366   1.633   5.500   5.245 -0.4692 -1.7523 -0.4239
17959TIP3   OH275367   3.977   3.053  15.861 -0.4771  0.5583 -0.0048
17959TIP3    H175368   3.903   3.093  15.815 -0.2987 -1.0268 -1.8197
17959TIP3    H275369   4.038   3.125  15.877 -0.7739  1.2753 -1.8540
17960TIP3   OH275370   4.447   3.076   1.039 -0.5309  0.6746  0.1569
17960TIP3    H175371   4.476   3.010   0.977 -2.0837 -0.9245  1.0287
17960TIP3    H275372   4.492   3.156   1.013  0.2128 -0.3585 -1.9008
17961TIP3   OH275373   2.764   3.526   1.484  0.1671  0.3362 -0.0831
17961TIP3    H175374   2.819   3.566   1.552 -1.2963  2.7760 -0.2072
17961TIP3    H275375   2.722   3.452   1.528  0.9444  0.4971  0.9886
17962TIP3   OH275376   2.533   3.250  13.606 -0.1709 -0.2915 -0.1814
17962TIP3    H175377   2.537   3.158  13.582  1.7229 -0.1607 -0.5386
17962TIP3    H275378   2.561   3.253  13.698 -0.7495 -0.1105 -0.0037
17963TIP3   OH275379   1.035   2.746  11.071 -0.0616 -0.1632  0.2160
17963TIP3    H175380   1.000   2.657  11.071 -0.1885 -0.1242 -0.8924
17963TIP3    H275381   1.007   2.783  11.155 -1.8894 -0.4477 -0.2239
17964TIP3   OH275382   0.887   0.426   3.707  0.3378  0.3496  0.2347
17964TIP3    H175383   0.801   0.437   3.665  0.6522  1.5206 -0.1417
17964TIP3    H275384   0.927   0.352   3.660 -0.1908  0.2266 -0.0349
17965TIP3   OH275385   1.371   4.907   0.510 -0.2998 -0.1096  0.5579
17965TIP3    H175386   1.279   4.881   0.522 -0.8040  1.5215  0.4359
17965TIP3    H275387   1.419   4.824   0.505 -1.6705 -0.9873  1.3336
17966TIP3   OH275388   1.415   1.139  11.741 -0.1904 -1.0809 -0.5771
17966TIP3    H175389   1.421   1.172  11.830 -4.1549 -0.2590 -0.4689
17966TIP3    H275390   1.453   1.051  11.746  3.5393  0.3835  0.8077
17967TIP3   OH275391   0.273   5.035   2.241 -0.0049 -0.3764  0.5977
17967TIP3    H175392   0.369   5.033   2.237 -0.0539 -0.9325 -0.9084
17967TIP3    H275393   0.248   4.944   2.253 -0.4128 -0.8184 -2.8071
17968TIP3   OH275394   1.707   3.408  17.019  0.2417 -0.2431 -0.2485
17968TIP3    H175395   1.623   3.454  17.015  0.8536  0.8433 -1.5379
17968TIP3    H275396   1.716   3.382  17.111 -2.1776 -1.7453 -0.3369
17969TIP3   OH275397   1.191   5.251  17.190 -0.2925  0.3017 -0.2881
17969TIP3    H175398   1.131   5.319  17.220 -2.0688 -0.6692 -1.4765
17969TIP3    H275399   1.221   5.281  17.104  0.0313  0.2599 -0.1903
17970TIP3   OH275400   4.912   1.166  14.388  0.4591 -0.1058  0.1360
17970TIP3    H175401   4.924   1.257  14.416  0.8809 -0.0864 -0.1043
17970TIP3    H275402   4.953   1.162  14.302 -1.3046 -0.0159 -0.7669
17971TIP3   OH275403   5.724   4.139  10.796  0.1910 -0.5714  0.2365
17971TIP3    H175404   5.629   4.126  10.785 -0.1160  0.3422  1.5565
17971TIP3    H275405   5.752   4.178  10.714 -1.0919  1.5677  0.7459
17972TIP3   OH275406   0.929   3.077  12.802  0.3922 -0.6266  0.6596
17972TIP3    H175407   0.837   3.100  12.799  0.5749  0.0639  0.1337
17972TIP3    H275408   0.972   3.151  12.844  0.9668 -0.0261 -0.9119
17973TIP3   OH275409   2.337   2.452   2.730  0.1536 -0.1753 -0.2623
17973TIP3    H175410   2.292   2.520   2.781  1.6026  0.4026  0.3196
17973TIP3    H275411   2.339   2.485   2.641  1.3668  0.8839  0.1204
17974TIP3   OH275412   2.020   0.067   2.935 -0.2249  0.5387 -0.5000
17974TIP3    H175413   2.115   0.071   2.931 -0.1575  0.2139 -4.7866
17974TIP3    H275414   1.999  -0.026   2.938 -0.4155  0.6050  0.3486
17975TIP3   OH275415   6.364   6.464  14.947 -0.4049  0.4296 -0.1559
17975TIP3    H175416   6.277   6.430  14.928 -1.0231  2.0344 -0.4084
17975TIP3    H275417   6.404   6.399  15.004 -1.6451 -0.4869 -0.2884
17976TIP3   OH275418   0.470   2.876   4.906 -0.0586 -0.1326 -0.1563
17976TIP3    H175419   0.382   2.894   4.871  0.0160  0.1649 -0.1989
17976TIP3    H275420   0.506   2.809   4.849  1.1717  2.3004 -2.5007
17977TIP3   OH275421   2.460   3.882  13.521 -0.4121  0.1798 -1.2029
17977TIP3    H175422   2.479   3.938  13.445  1.8446 -0.2475 -1.0229
17977TIP3    H275423   2.527   3.905  13.584  1.3824 -3.4837 -1.5633
17978TIP3   OH275424   3.754   6.604   4.737  0.1304  0.2469 -0.1714
17978TIP3    H175425   3.685   6.590   4.672 -0.8142 -0.5282  0.9591
17978TIP3    H275426   3.726   6.554   4.813  1.3123  0.9675  0.7753
17979TIP3   OH275427   3.643   6.696   0.217 -0.4300 -0.4631  0.4726
17979TIP3    H175428   3.726   6.653   0.200  0.0001  0.7668 -0.6946
17979TIP3    H275429   3.613   6.727   0.132 -1.1799  0.7081  1.1172
17980TIP3   OH275430   3.106   4.759   4.067 -0.2309  0.5733 -0.5135
17980TIP3    H175431   3.190   4.799   4.044  0.1423  0.1803  0.1409
17980TIP3    H275432   3.124   4.711   4.148 -0.9615  0.0636 -0.6491
17981TIP3   OH275433   1.764   1.968  12.731 -0.7655 -0.6672 -0.2520
17981TIP3    H175434   1.725   1.945  12.647 -2.0065 -0.3644  0.2230
17981TIP3    H275435   1.829   1.900  12.746 -0.8085 -0.9583 -1.2553
17982TIP3   OH275436   3.719   5.476   5.327  0.1652  0.4835  0.6922
17982TIP3    H175437   3.806   5.501   5.357  0.1402  1.2652  0.1307
17982TIP3    H275438   3.734   5.420   5.251  0.2385 -1.7582  2.2457
17983TIP3   OH275439   6.543   1.296   1.874  0.6195 -0.5003  0.4818
17983TIP3    H175440   6.492   1.365   1.831  3.0667  2.7695  2.4027
17983TIP3    H275441   6.603   1.265   1.805  1.4614  1.4592  0.2581
17984TIP3   OH275442   5.590   1.361  11.908 -0.2378 -0.1050  0.5350
17984TIP3    H175443   5.546   1.388  11.828 -0.6979 -1.8007  0.1754
17984TIP3    H275444   5.681   1.347  11.881 -0.0782  0.6771  0.6427
17985TIP3   OH275445   0.517   4.531   3.183 -0.1312 -0.3559  0.4539
17985TIP3    H175446   0.556   4.453   3.145 -1.1914 -0.4710 -0.4251
17985TIP3    H275447   0.425   4.526   3.160 -0.3216  0.8704  0.8701
17986TIP3   OH275448   4.479   5.888   2.621 -0.4352  0.0088  0.0111
17986TIP3    H175449   4.539   5.819   2.648 -0.6702  0.1228  0.8544
17986TIP3    H275450   4.393   5.858   2.651 -0.4665  0.8940  0.8442
17987TIP3   OH275451   1.129   3.179   3.225 -0.7530  0.2665 -0.2977
17987TIP3    H175452   1.126   3.274   3.218 -1.5913  0.2314 -0.5217
17987TIP3    H275453   1.076   3.148   3.152  0.8934 -0.4288 -1.2511
17988TIP3   OH275454   5.946   2.147  14.353 -0.4715 -0.0900  0.1266
17988TIP3    H175455   6.010   2.144  14.282 -1.0641 -1.0008 -0.3906
17988TIP3    H275456   5.967   2.072  14.408 -0.5085  0.1514  0.4710
17989TIP3   OH275457   2.462   5.030  13.849  0.1762 -0.0742  0.0579
17989TIP3    H175458   2.476   5.119  13.816  2.5715 -0.6937 -0.7696
17989TIP3    H275459   2.384   5.000  13.802  0.0956  1.1204 -0.6269
17990TIP3   OH275460   2.715   1.655   0.803  0.2247 -0.4711 -0.4244
17990TIP3    H175461   2.636   1.670   0.855 -0.8170 -2.2402 -1.4107
17990TIP3    H275462   2.709   1.720   0.733 -1.2542 -1.6075 -1.4179
17991TIP3   OH275463   2.325   5.299   0.757 -0.2034  0.0218 -0.3010
17991TIP3    H175464   2.331   5.299   0.662 -0.8124  1.2682 -0.3657
17991TIP3    H275465   2.291   5.213   0.779  0.7409 -0.5975 -1.1318
17992TIP3   OH275466   0.974   3.698  15.350 -0.0775 -0.1209 -0.0145
17992TIP3    H175467   0.888   3.689  15.391 -0.7221  0.3698 -1.2262
17992TIP3    H275468   0.961   3.762  15.280  1.6928  1.3667  0.9288
17993TIP3   OH275469   4.812   1.653   0.976 -0.3731  0.5109 -0.6269
17993TIP3    H175470   4.718   1.643   0.991 -0.3809 -0.1840 -1.0746
17993TIP3    H275471   4.818   1.696   0.891 -0.2956  1.9803  0.0939
17994TIP3   OH275472   1.718   5.311   4.199 -0.0675  0.0072  0.7910
17994TIP3    H175473   1.759   5.250   4.260  1.3437  1.4675  1.3586
17994TIP3    H275474   1.737   5.398   4.235 -1.8964  0.8134 -0.0631
17995TIP3   OH275475   2.480   0.765  11.775 -0.1117 -0.0697  0.3191
17995TIP3    H175476   2.469   0.854  11.742 -1.0882  0.2439  1.4502
17995TIP3    H275477   2.512   0.716  11.699 -0.0395  1.1295 -0.4542
17996TIP3   OH275478   4.792   6.725  15.144 -0.4391 -0.2489  0.5041
17996TIP3    H175479   4.708   6.685  15.125 -0.5919 -0.1397  0.9341
17996TIP3    H275480   4.836   6.662  15.202 -0.0212 -0.5342 -0.1071
17997TIP3   OH275481   4.136   6.275  13.005 -0.3629 -0.1909 -0.5112
17997TIP3    H175482   4.152   6.336  13.076 -1.3752 -1.0858  0.5304
17997TIP3    H275483   4.043   6.288  12.983 -0.9987 -2.2749  0.6850
17998TIP3   OH275484   0.173   5.988  12.800 -0.3944  0.4370 -0.5253
17998TIP3    H175485   0.143   5.923  12.737 -0.0477  0.5877 -0.8467
17998TIP3    H275486   0.255   5.952  12.833 -1.3670 -0.4597  1.0758
17999TIP3   OH275487   2.379   5.361   0.137  0.1722  0.4174 -0.1237
17999TIP3    H175488   2.376   5.275   0.179  0.4289  0.0886 -0.7718
17999TIP3    H275489   2.313   5.356   0.067 -0.9524  1.2919  0.8269
18000TIP3   OH275490   4.187   3.731  14.295 -0.6142  0.3495 -0.0576
18000TIP3    H175491   4.162   3.822  14.307 -0.7716  0.4925 -1.2728
18000TIP3    H275492   4.202   3.723  14.200 -0.0422 -0.7410  0.1089
18001TIP3   OH275493   3.639   2.782  12.204  0.3565  0.4973 -0.5007
18001TIP3    H175494   3.602   2.703  12.165 -0.5907  0.4699  0.4116
18001TIP3    H275495   3.568   2.845  12.203  0.8152  1.0268 -0.3295
18002TIP3   OH275496   5.001   3.479   1.948  0.2875  0.2405 -0.4556
18002TIP3    H175497   4.989   3.484   1.853  0.0774 -1.4115 -0.5443
18002TIP3    H275498   5.008   3.385   1.966 -2.2762  0.3101  1.4737
18003TIP3   OH275499   2.537   2.044  11.722 -0.2200  0.6930 -0.7305
18003TIP3    H175500   2.514   1.957  11.754  1.3680  0.0119 -1.3340
18003TIP3    H275501   2.521   2.102  11.797 -0.2099 -0.2806  0.0472
18004TIP3   OH275502   6.313   5.736  14.649 -0.8543  0.2904  0.7376
18004TIP3    H175503   6.330   5.798  14.719 -0.5785  0.2533  0.7041
18004TIP3    H275504   6.398   5.697  14.630 -0.5158  1.6863 -0.9412
18005TIP3   OH275505   5.162   6.793   1.303  0.2419  0.0413 -0.4423
18005TIP3    H175506   5.157   6.726   1.235  0.2089  0.5634 -0.9581
18005TIP3    H275507   5.254   6.820   1.304  0.2798 -0.0927 -0.1519
18006TIP3   OH275508   3.094   1.972  15.342  0.0811  0.1956  0.2365
18006TIP3    H175509   3.095   1.978  15.438  1.8648  1.1407  0.1955
18006TIP3    H275510   3.022   1.912  15.323 -0.2900 -0.0422  2.1660
18007TIP3   OH275511   4.194   1.720   2.037 -0.0911 -0.2937 -0.3877
18007TIP3    H175512   4.275   1.725   2.089  0.1645 -2.9202 -0.3997
18007TIP3    H275513   4.125   1.742   2.099  0.4493 -0.4042  0.2696
18008TIP3   OH275514   3.753   4.289  12.370  0.2722  0.6545 -0.0028
18008TIP3    H175515   3.680   4.351  12.375  1.1891  1.7167  0.5497
18008TIP3    H275516   3.830   4.344  12.353  0.6721 -0.6241 -2.9782
18009TIP3   OH275517   2.400   2.116   2.173  0.0244  0.5739 -0.0130
18009TIP3    H175518   2.440   2.151   2.093 -1.8801  1.3162 -0.7128
18009TIP3    H275519   2.317   2.079   2.144  0.1223 -0.8424  1.3745
18010TIP3   OH275520   5.902   3.758   1.274 -0.5806  0.2523  0.4329
18010TIP3    H175521   5.892   3.663   1.286  0.6523  0.1926  1.2025
18010TIP3    H275522   5.853   3.777   1.194 -1.9955 -0.7912  0.9992
18011TIP3   OH275523   5.915   1.420   3.553 -0.2560 -0.3059  0.1368
18011TIP3    H175524   5.837   1.425   3.608 -0.4110 -0.0347 -0.1060
18011TIP3    H275525   5.952   1.508   3.554  0.2259 -0.5068  0.5053
18012TIP3   OH275526   5.793   4.480   2.656  0.0963  0.6830 -0.5354
18012TIP3    H175527   5.796   4.451   2.748  0.5831  0.8652 -0.4932
18012TIP3    H275528   5.734   4.555   2.657 -1.0288 -0.1744 -0.6132
18013TIP3   OH275529   1.564   5.908  17.015  0.2563  0.1570  0.0970
18013TIP3    H175530   1.620   5.839  17.049 -1.2647 -1.1999 -0.0073
18013TIP3    H275531   1.617   5.952  16.948  1.2689 -0.8782  0.2002
18014TIP3   OH275532   6.425   1.595  14.373  0.0744 -0.0276  0.5451
18014TIP3    H175533   6.518   1.573  14.377  0.4101  1.3719  1.8174
18014TIP3    H275534   6.424   1.691  14.373 -1.3696 -0.0277  0.3691
18015TIP3   OH275535   2.415   5.831  15.707  0.0110 -0.3936  0.6595
18015TIP3    H175536   2.443   5.815  15.617  0.2202  0.3823  0.5820
18015TIP3    H275537   2.320   5.826  15.705 -0.3004  3.2648 -0.3876
18016TIP3   OH275538   4.612   2.623   4.421  0.7480 -0.0107 -0.4619
18016TIP3    H175539   4.557   2.557   4.377  1.8134 -0.3169 -1.3772
18016TIP3    H275540   4.654   2.574   4.493  0.2810  0.0882 -0.1132
18017TIP3   OH275541   3.883   3.038   1.664  0.6200 -0.3810 -0.5984
18017TIP3    H175542   3.794   3.060   1.635  0.9711  0.3568 -1.1256
18017TIP3    H275543   3.873   2.952   1.706 -0.7402  0.6305  1.3311
18018TIP3   OH275544   1.286   0.459   2.241  0.6702 -0.4605 -0.3368
18018TIP3    H175545   1.302   0.379   2.191  1.7667 -1.7908  1.9721
18018TIP3    H275546   1.193   0.456   2.261  0.6060 -0.8956 -0.6724
18019TIP3   OH275547   1.306   0.720  14.958 -0.2649 -0.1416 -0.2168
18019TIP3    H175548   1.395   0.751  14.968 -0.7435  1.6597 -1.1958
18019TIP3    H275549   1.287   0.673  15.039  0.8467  1.2813  0.9010
18020TIP3   OH275550   3.421   4.240   4.251  0.1861  0.4405  0.6446
18020TIP3    H175551   3.512   4.234   4.280  0.7277  0.3109 -0.9613
18020TIP3    H275552   3.426   4.289   4.169 -0.8216 -1.8378 -0.8846
18021TIP3   OH275553   4.027   0.634  10.485 -0.0203 -0.4955 -0.1564
18021TIP3    H175554   4.005   0.678  10.403 -1.5272 -1.3884 -0.2802
18021TIP3    H275555   3.971   0.676  10.550  0.5963 -0.3263  0.2715
18022TIP3   OH275556   4.778   2.865   0.318  0.2237  0.0399 -0.1899
18022TIP3    H175557   4.730   2.932   0.270 -0.6800 -0.8813 -0.6134
18022TIP3    H275558   4.867   2.870   0.284  0.2405  1.1733 -0.0367
18023TIP3   OH275559   0.460   6.276  11.464 -0.3622  0.0237 -0.2786
18023TIP3    H175560   0.543   6.282  11.510 -0.6754  1.8929  0.1142
18023TIP3    H275561   0.430   6.187  11.480  1.0124 -0.3215  0.5136
18024TIP3   OH275562   4.311   1.597  14.295  0.0985  0.1243  0.6828
18024TIP3    H175563   4.287   1.570  14.206  1.8072  0.3266  0.1220
18024TIP3    H275564   4.371   1.528  14.325 -0.0043  0.3646  1.4648
18025TIP3   OH275565   4.940   3.461   2.716  0.2882  0.0336  0.3611
18025TIP3    H175566   4.925   3.486   2.625 -0.4537 -1.5134  0.0172
18025TIP3    H275567   4.942   3.543   2.764 -1.4063  0.7776 -0.7637
18026TIP3   OH275568   0.712   0.125   6.205  0.2772 -0.0744  0.6590
18026TIP3    H175569   0.796   0.097   6.242 -1.0816 -2.5768  2.1325
18026TIP3    H275570   0.648   0.106   6.274 -1.8511 -0.9937 -1.4136
18027TIP3   OH275571   6.520   4.692   2.254  0.5137  0.6523  0.3193
18027TIP3    H175572   6.470   4.762   2.296  1.0385  1.4745 -0.4020
18027TIP3    H275573   6.467   4.613   2.269 -1.5018  1.6198 -1.1859
18028TIP3   OH275574   0.662   5.132   1.039  0.2108  0.0907 -0.1937
18028TIP3    H175575   0.657   5.133   0.944 -1.6534  1.0669 -0.1224
18028TIP3    H275576   0.754   5.113   1.058  0.3264 -1.6231 -2.1560
18029TIP3   OH275577   5.427   3.490  15.088  0.2550  0.2567  0.3267
18029TIP3    H175578   5.476   3.410  15.069 -0.4794  0.2168 -1.7119
18029TIP3    H275579   5.425   3.537  15.004 -1.2114  1.3581  0.9264
18030TIP3   OH275580   1.074   3.958   4.971 -0.2840 -0.2754 -0.0570
18030TIP3    H175581   1.116   3.873   4.957  0.7076  0.0872  0.5785
18030TIP3    H275582   1.147   4.020   4.975 -0.9867  0.5974 -0.4132
18031TIP3   OH275583   4.379   6.732   4.060  0.2958  0.2490  0.0727
18031TIP3    H175584   4.420   6.735   4.147 -0.3477 -1.3755  0.4679
18031TIP3    H275585   4.448   6.697   4.003  0.4509  0.5259  0.0864
18032TIP3   OH275586   1.347   2.980   7.012  0.3076 -0.2883 -0.1700
18032TIP3    H175587   1.296   2.903   6.986  1.8426 -0.4649 -2.9391
18032TIP3    H275588   1.312   3.052   6.959  1.5537  0.0275 -0.5867
18033TIP3   OH275589   0.336   3.309  14.721  0.2930  0.1035 -0.2719
18033TIP3    H175590   0.333   3.389  14.772 -1.2147 -1.8124  2.9925
18033TIP3    H275591   0.422   3.270  14.742 -0.2305 -0.5680  0.7301
18034TIP3   OH275592   6.074   4.671   5.205 -0.5587 -0.7552 -0.0961
18034TIP3    H175593   6.109   4.624   5.280 -0.4921  1.5698  1.4179
18034TIP3    H275594   5.980   4.654   5.207 -0.2813 -2.6832 -1.0148
18035TIP3   OH275595   0.280   0.415  14.377 -0.1708 -0.2794 -0.4087
18035TIP3    H175596   0.221   0.345  14.350 -1.3035  0.0256  1.0855
18035TIP3    H275597   0.318   0.448  14.295 -1.6178 -0.9057 -1.3785
18036TIP3   OH275598   6.208   4.958   2.568 -0.1199 -0.3635 -0.3944
18036TIP3    H175599   6.141   4.966   2.636  0.4298 -1.4721  0.3248
18036TIP3    H275600   6.183   5.022   2.501 -0.9020  0.4721  0.6638
18037TIP3   OH275601   0.870   3.703   2.288 -0.0532  0.3786  0.2234
18037TIP3    H175602   0.822   3.622   2.300  0.2620  0.2948  0.9772
18037TIP3    H275603   0.835   3.763   2.355  0.2052  0.6292  0.1407
18038TIP3   OH275604   3.775   5.613  12.263 -0.2250  0.5639 -0.6003
18038TIP3    H175605   3.782   5.696  12.310  1.5384  0.5636 -0.8113
18038TIP3    H275606   3.720   5.558  12.319  1.0963  0.8640  1.0717
18039TIP3   OH275607   2.677   0.804   1.310 -0.5593 -0.6701 -0.2820
18039TIP3    H175608   2.745   0.869   1.331 -0.5228 -0.9849  0.6577
18039TIP3    H275609   2.612   0.815   1.380 -1.9137  0.1874 -1.6172
18040TIP3   OH275610   1.438   6.253  10.894 -0.1625  0.5955 -0.3673
18040TIP3    H175611   1.521   6.283  10.931  0.2721  0.2267 -1.0216
18040TIP3    H275612   1.371   6.297  10.946  0.4225 -0.0205  0.9393
18041TIP3   OH275613   3.391   1.935   2.986  0.8455 -0.3099  0.1820
18041TIP3    H175614   3.341   1.858   2.958  0.6652  0.3165 -1.2963
18041TIP3    H275615   3.325   1.997   3.016  1.0088 -0.8040  1.6498
18042TIP3   OH275616   4.061   0.400  17.069  0.1683  0.2138 -0.0583
18042TIP3    H175617   4.037   0.477  17.122 -1.3587 -0.9517  1.0199
18042TIP3    H275618   4.009   0.409  16.989 -0.7317 -0.1300  0.4660
18043TIP3   OH275619   5.631   0.829   4.459  0.2137 -0.0203  0.5960
18043TIP3    H175620   5.679   0.850   4.379 -0.4561  2.2673  0.7358
18043TIP3    H275621   5.609   0.914   4.497 -1.7729 -1.0286  1.8525
18044TIP3   OH275622   6.248   5.175  11.982  0.7798 -0.3363 -0.1089
18044TIP3    H175623   6.261   5.157  12.075  0.6626  0.6212  0.1047
18044TIP3    H275624   6.291   5.103  11.937  0.5792 -0.9651  0.6937
18045TIP3   OH275625   2.134   6.237  11.012  0.4298 -0.0247 -0.1749
18045TIP3    H175626   2.216   6.194  10.986  0.7357 -0.8084  1.8787
18045TIP3    H275627   2.155   6.330  11.017  0.3814  0.1765 -2.4001
18046TIP3   OH275628   2.122   4.455  11.268 -0.4174  0.1763 -0.0502
18046TIP3    H175629   2.096   4.368  11.298  1.1103 -1.0426 -2.0298
18046TIP3    H275630   2.212   4.445  11.239  0.0981  2.6643  0.4512
18047TIP3   OH275631   6.274   5.002   0.181  0.7771  0.4978  0.3062
18047TIP3    H175632   6.363   5.003   0.148  0.2984  2.3883 -1.0931
18047TIP3    H275633   6.227   4.942   0.123  0.4304  2.1271 -1.1812
18048TIP3   OH275634   2.158   1.442   5.580  0.1487  0.1353 -0.3167
18048TIP3    H175635   2.171   1.531   5.612 -0.8114  0.3264 -0.4248
18048TIP3    H275636   2.237   1.424   5.528 -0.0862  1.2978 -1.1230
18049TIP3   OH275637   5.169   6.622   1.066 -0.3476  0.4301  0.6998
18049TIP3    H175638   5.093   6.566   1.074 -0.6336  0.7511  0.2578
18049TIP3    H275639   5.190   6.623   0.973 -0.5217  1.2703  0.6555
18050TIP3   OH275640   5.350   5.190   0.425  0.0635 -0.3766 -0.2483
18050TIP3    H175641   5.289   5.235   0.483  1.1660 -1.5172  1.9021
18050TIP3    H275642   5.437   5.215   0.456  0.6906 -2.0220 -0.5357
18051TIP3   OH275643   0.245   6.594   1.435  0.3260 -0.2236 -0.2281
18051TIP3    H175644   0.339   6.597   1.456  0.4992 -0.5397 -0.9397
18051TIP3    H275645   0.205   6.552   1.511  0.4053  2.1250  1.2101
18052TIP3   OH275646   5.630   0.503  14.750 -0.5229  0.1725 -0.2601
18052TIP3    H175647   5.649   0.436  14.816  0.0788 -0.7240 -1.3031
18052TIP3    H275648   5.689   0.574  14.772  1.4423 -1.0786 -1.1996
18053TIP3   OH275649   6.203   5.858   1.755 -0.5546  0.1543 -0.7862
18053TIP3    H175650   6.217   5.766   1.775 -0.2283  0.4616  0.5311
18053TIP3    H275651   6.165   5.859   1.667  1.6190 -1.1051 -1.8233
18054TIP3   OH275652   4.959   6.504   2.483 -0.7661 -0.7612 -0.5437
18054TIP3    H175653   4.871   6.506   2.521  0.0805 -0.1343  1.4829
18054TIP3    H275654   4.972   6.593   2.448 -0.2424 -0.2494  0.8941
18055TIP3   OH275655   0.285   6.092   2.645 -0.2822 -0.2701 -0.3091
18055TIP3    H175656   0.343   6.057   2.577 -0.1827 -0.4084 -0.1569
18055TIP3    H275657   0.199   6.058   2.623 -0.1826 -0.6322 -0.1529
18056TIP3   OH275658   2.661   4.939  12.479  0.0091 -0.2160  0.6782
18056TIP3    H175659   2.718   4.957  12.405 -0.2325 -0.3764  0.4529
18056TIP3    H275660   2.575   4.971  12.452 -0.2142 -0.8349  0.6463
18057TIP3   OH275661   3.749   5.651   0.445 -0.0999 -0.0249 -0.1500
18057TIP3    H175662   3.825   5.636   0.501  0.8292  0.6364 -1.1762
18057TIP3    H275663   3.762   5.593   0.370 -1.4050 -1.0186  0.3696
18058TIP3   OH275664   2.307   2.886   3.824  0.7019  0.4925 -0.3788
18058TIP3    H175665   2.278   2.838   3.747 -0.6489  0.9776 -0.1985
18058TIP3    H275666   2.323   2.975   3.792 -0.6977  0.9151  0.0423
18059TIP3   OH275667   1.169   4.734  10.787 -0.0878 -0.4251  0.7275
18059TIP3    H175668   1.098   4.671  10.795 -0.1805 -0.2945  0.9337
18059TIP3    H275669   1.127   4.814  10.755  0.4699 -1.3596 -2.8056
18060TIP3   OH275670   1.116   4.266  12.195  0.4169 -0.7544 -0.3233
18060TIP3    H175671   1.026   4.262  12.226 -0.2150  1.5925 -1.6531
18060TIP3    H275672   1.164   4.306  12.268  0.3835 -1.8266  0.3087
18061TIP3   OH275673   5.921   1.803  13.961 -0.4447  0.1784  0.0099
18061TIP3    H175674   5.964   1.719  13.947  1.7342  0.9387  1.6615
18061TIP3    H275675   5.879   1.796  14.046 -0.2068  0.7431  0.1858
18062TIP3   OH275676   2.113   3.405   5.846 -0.3335  0.2691  0.0263
18062TIP3    H175677   2.087   3.362   5.765  0.2794  1.0834 -0.6139
18062TIP3    H275678   2.079   3.348   5.915  0.8717 -1.4936 -0.7895
18063TIP3   OH275679   4.351   1.702   4.915  0.1161 -0.2556 -0.2770
18063TIP3    H175680   4.280   1.755   4.880 -0.0598 -0.4538 -0.2208
18063TIP3    H275681   4.412   1.766   4.953 -0.7503 -0.1682  1.0125
18064TIP3   OH275682   1.259   1.527  13.362  0.1019 -0.1029 -0.1337
18064TIP3    H175683   1.325   1.518  13.293  0.0669  1.0967 -0.3450
18064TIP3    H275684   1.190   1.467  13.336  0.3518 -0.1012 -0.8444
18065TIP3   OH275685   3.634   0.016  14.007  0.2345 -0.2467  0.4959
18065TIP3    H175686   3.712   0.044  13.958  1.6420 -0.5676  2.4481
18065TIP3    H275687   3.652  -0.075  14.030  0.2648  0.2544  2.7013
18066TIP3   OH275688   1.926   1.345   2.380  0.6569  0.2306 -0.1066
18066TIP3    H175689   1.957   1.344   2.290  1.9002  1.0617  0.2794
18066TIP3    H275690   2.005   1.333   2.433 -0.1518 -1.0205  0.8714
18067TIP3   OH275691   5.674   4.770   1.523 -0.2053 -0.1960  0.7703
18067TIP3    H175692   5.768   4.756   1.506 -0.1986 -0.0529  0.6751
18067TIP3    H275693   5.638   4.790   1.436 -0.2862 -0.0529  0.8363
18068TIP3   OH275694   3.861   6.712  15.296  0.4480 -0.0930  0.4364
18068TIP3    H175695   3.784   6.768  15.304  1.4885  1.5020 -0.1048
18068TIP3    H275696   3.893   6.727  15.207  0.4856 -1.9976  0.0841
18069TIP3   OH275697   2.692   0.066  15.990  0.6034 -0.0352  0.4565
18069TIP3    H175698   2.757   0.125  16.027  0.1669  0.6452  0.1514
18069TIP3    H275699   2.629   0.052  16.061  1.3348 -1.0982  0.9188
18070TIP3   OH275700   3.872   3.591   4.573 -0.5044 -0.0568  0.0985
18070TIP3    H175701   3.842   3.512   4.618 -0.7745  1.0615  2.0216
18070TIP3    H275702   3.939   3.560   4.511 -2.0414 -1.9963 -0.6850
18071TIP3   OH275703   3.945   0.083   3.160  0.1697 -0.4517  0.3468
18071TIP3    H175704   3.865   0.038   3.131  1.4677 -2.8544  0.2037
18071TIP3    H275705   3.928   0.106   3.251 -0.9316 -0.2922  0.1162
18072TIP3   OH275706   4.695   5.583   2.542  0.5448 -0.2912 -0.0713
18072TIP3    H175707   4.775   5.634   2.536  0.3897 -0.1104 -0.6951
18072TIP3    H275708   4.675   5.559   2.451 -1.2299  1.4021 -0.1862
18073TIP3   OH275709   3.654   4.003  14.094 -0.2217 -0.2606  0.4178
18073TIP3    H175710   3.654   4.072  14.028 -1.1335  1.4643  2.1204
18073TIP3    H275711   3.597   3.935  14.058 -0.2314  0.3670 -0.8082
18074TIP3   OH275712   4.564   5.198  15.767 -0.0143  0.2179 -0.4168
18074TIP3    H175713   4.536   5.251  15.842 -2.9551 -2.2575  0.4347
18074TIP3    H275714   4.489   5.197  15.708  0.3688 -1.8953 -0.9711
18075TIP3   OH275715   2.674   3.267   4.935  0.0438 -0.0432 -0.4779
18075TIP3    H175716   2.585   3.299   4.950 -0.3078 -1.1192 -0.2186
18075TIP3    H275717   2.663   3.176   4.906  1.0835 -0.3716  0.1021
18076TIP3   OH275718   4.073   4.158   3.132 -0.1196  0.2325  0.2401
18076TIP3    H175719   4.071   4.078   3.186  2.3817 -0.8568 -1.1200
18076TIP3    H275720   4.021   4.221   3.182 -1.4123 -1.9400  1.8390
18077TIP3   OH275721   6.663   6.652  12.539 -0.0071 -0.2279  0.2176
18077TIP3    H175722   6.685   6.745  12.536 -1.1714  0.0249 -1.4429
18077TIP3    H275723   6.571   6.650  12.562  0.0487 -0.9935  0.3948
18078TIP3   OH275724   5.123   3.897  15.453  0.4899 -0.0796 -0.4951
18078TIP3    H175725   5.142   3.807  15.426  0.2667 -0.2056 -0.2342
18078TIP3    H275726   5.041   3.918  15.408  0.8730  0.2222 -1.0690
18079TIP3   OH275727   1.394   5.327   0.166 -0.0351  0.0417  0.2098
18079TIP3    H175728   1.306   5.292   0.155  0.2562 -1.0031  1.0675
18079TIP3    H275729   1.449   5.271   0.110  0.2215  0.0700  0.4335
18080TIP3   OH275730   5.306   0.360  16.692 -0.1702 -0.5233  0.1107
18080TIP3    H175731   5.283   0.357  16.785 -0.7279 -0.8422 -0.0285
18080TIP3    H275732   5.221   0.355  16.647  0.0175  0.6703 -0.4045
18081TIP3   OH275733   2.391   1.882  10.387 -0.1852  0.0292 -0.6104
18081TIP3    H175734   2.385   1.844  10.474  2.1361 -0.5390 -0.6543
18081TIP3    H275735   2.326   1.952  10.387 -0.6276 -0.3330  1.3595
18082TIP3   OH275736   5.702   6.095  16.928 -0.1910 -0.1760 -0.2381
18082TIP3    H175737   5.669   6.055  17.008 -1.1865  1.2238  0.0846
18082TIP3    H275738   5.678   6.187  16.935  1.4527  0.3854 -1.2476
18083TIP3   OH275739   5.233   4.899  11.232  0.3700  0.3039 -0.2652
18083TIP3    H175740   5.148   4.937  11.208  0.8882  0.7878 -1.3926
18083TIP3    H275741   5.297   4.966  11.208  1.1715 -0.5600 -0.6171
18084TIP3   OH275742   2.660   4.700  16.712 -0.2781  0.0924 -0.5477
18084TIP3    H175743   2.657   4.606  16.698 -1.2993 -0.0073  0.2115
18084TIP3    H275744   2.570   4.724  16.734  0.2466  0.9924  0.7896
18085TIP3   OH275745   2.204   3.940  11.376  0.6842 -0.1333  0.3491
18085TIP3    H175746   2.200   4.035  11.360  1.9165 -0.3002 -1.2489
18085TIP3    H275747   2.279   3.911  11.324  0.0814 -2.0573  0.5040
18086TIP3   OH275748   4.236   4.296  11.620  0.0687 -0.6443 -0.3564
18086TIP3    H175749   4.144   4.290  11.594  0.4605 -0.7787 -1.7809
18086TIP3    H275750   4.277   4.348  11.551  0.7842  0.7938  1.0619
18087TIP3   OH275751   2.633   6.193  12.346 -0.0454  0.5705 -0.4114
18087TIP3    H175752   2.571   6.198  12.418 -2.2560  0.4810 -2.2247
18087TIP3    H275753   2.639   6.100  12.324 -0.3569  0.7112 -1.1259
18088TIP3   OH275754   1.284   5.582   5.337 -0.1476  0.1183  0.1794
18088TIP3    H175755   1.375   5.555   5.329 -0.0723  0.1140  0.9717
18088TIP3    H275756   1.275   5.655   5.275  0.3681  0.0693  0.0437
18089TIP3   OH275757   5.814   6.222   4.484  0.7484  0.4342 -0.4985
18089TIP3    H175758   5.890   6.268   4.518  0.4072 -0.0942  1.0710
18089TIP3    H275759   5.739   6.274   4.513  0.4732  0.5312 -1.3622
18090TIP3   OH275760   0.549   2.201  10.471  0.5526  0.2811 -0.0821
18090TIP3    H175761   0.501   2.125  10.438  0.4673  0.1564  0.3134
18090TIP3    H275762   0.577   2.248  10.393 -0.8117  0.7225 -0.3368
18091TIP3   OH275763   5.371   1.668   4.027 -0.6057 -0.0332 -0.1857
18091TIP3    H175764   5.437   1.698   4.090  0.2581 -1.2313 -0.4630
18091TIP3    H275765   5.386   1.721   3.949 -2.4580  2.3015  0.9136
18092TIP3   OH275766   5.026   0.332  11.147 -0.3498  0.1763  0.5064
18092TIP3    H175767   5.081   0.268  11.101 -0.1035 -1.0568  2.3968
18092TIP3    H275768   5.037   0.413  11.098  1.2862 -0.6207 -0.5388
18093TIP3   OH275769   0.898   5.027   4.032  0.9010 -1.1310  0.5901
18093TIP3    H175770   0.845   5.014   4.111  0.8069 -1.6583  0.4401
18093TIP3    H275771   0.869   4.959   3.972 -1.3558  1.1698 -1.1560
18094TIP3   OH275772   6.474   2.678  16.712  0.0763 -0.2588 -0.3371
18094TIP3    H175773   6.549   2.623  16.734 -0.1461 -0.1303  0.8388
18094TIP3    H275774   6.488   2.703  16.621  1.1970 -0.6493 -0.2884
18095TIP3   OH275775   5.911   3.450  11.870  0.2150 -0.4638  0.0589
18095TIP3    H175776   5.908   3.508  11.794  1.4560  0.2851  0.5482
18095TIP3    H275777   5.929   3.363  11.835 -0.3088 -0.3244 -0.5764
18096TIP3   OH275778   4.912   1.267  16.602 -0.0044 -0.0653  0.2209
18096TIP3    H175779   4.909   1.244  16.695 -0.0170 -0.2789  0.1688
18096TIP3    H275780   4.961   1.196  16.562 -0.0173  0.0170  0.0588
18097TIP3   OH275781   4.755   4.417  16.463  0.1775  0.4944 -0.1499
18097TIP3    H175782   4.798   4.360  16.399 -0.1693 -0.8652  0.7749
18097TIP3    H275783   4.826   4.452  16.516  0.3154  0.0139 -0.0147
18098TIP3   OH275784   4.774   0.963   0.927  0.3972  0.6714  0.8989
18098TIP3    H175785   4.740   0.945   0.840  0.4274 -0.7511  1.1647
18098TIP3    H275786   4.697   0.985   0.979 -0.1173 -1.8878  1.3398
18099TIP3   OH275787   6.669   5.666   5.823  0.2163  0.1685  0.0106
18099TIP3    H175788   6.665   5.679   5.918  1.8295 -0.1103  0.1560
18099TIP3    H275789   6.615   5.736   5.786  0.1076  0.6837  1.1177
18100TIP3   OH275790   1.394   5.135   4.060 -0.5135  0.1062 -0.1437
18100TIP3    H175791   1.343   5.096   4.131 -0.6801  0.9788  0.2322
18100TIP3    H275792   1.329   5.172   4.001 -0.3547 -0.0173 -0.3944
18101TIP3   OH275793   2.649   1.475  14.964 -0.2130 -0.0419 -0.3878
18101TIP3    H175794   2.599   1.549  14.929 -0.4231  0.2694  0.5563
18101TIP3    H275795   2.737   1.487  14.927  0.0275  1.2520  0.5342
18102TIP3   OH275796   4.616   4.332  11.941  0.0309  0.0622  0.1961
18102TIP3    H175797   4.544   4.391  11.917  0.0999 -0.6637 -2.0935
18102TIP3    H275798   4.602   4.254  11.887  2.4514 -0.1613 -0.2371
18103TIP3   OH275799   3.322   2.969   3.276 -0.5147  0.0259  0.0576
18103TIP3    H175800   3.407   2.996   3.242 -0.9076 -0.1843 -1.1389
18103TIP3    H275801   3.275   3.051   3.291  0.0978  0.1683  1.3078
18104TIP3   OH275802   4.543   6.146   3.925  0.0993 -0.3087 -0.1978
18104TIP3    H175803   4.572   6.130   3.835 -1.4496  1.7140 -1.1243
18104TIP3    H275804   4.603   6.093   3.979  1.4408 -1.1175 -2.3465
18105TIP3   OH275805   5.775   5.444  17.085 -0.2905  0.1926 -0.2775
18105TIP3    H175806   5.721   5.521  17.102 -0.8361 -0.5848  1.9209
18105TIP3    H275807   5.751   5.383  17.155  1.6008 -1.1646 -0.7455
18106TIP3   OH275808   1.666   2.887  14.265 -0.2284 -0.4524 -0.8010
18106TIP3    H175809   1.732   2.884  14.334 -2.1247 -1.3748  1.0861
18106TIP3    H275810   1.672   2.802  14.221  1.2256  0.2705 -2.0958
18107TIP3   OH275811   0.737   1.932  13.984  0.1083  0.4172 -0.5408
18107TIP3    H175812   0.830   1.953  13.995 -0.2074  2.3662 -1.2154
18107TIP3    H275813   0.716   1.965  13.896 -0.8107 -1.6419 -1.1494
18108TIP3   OH275814   2.324   3.228   3.060 -0.2552  0.1976  0.0061
18108TIP3    H175815   2.415   3.257   3.067 -0.0889 -0.7491  2.6075
18108TIP3    H275816   2.315   3.200   2.968  2.9683 -2.4152  0.3107
18109TIP3   OH275817   6.412   4.539   6.107 -0.3568  0.4619 -0.1598
18109TIP3    H175818   6.427   4.611   6.168 -1.4020  2.0632 -1.7164
18109TIP3    H275819   6.484   4.546   6.044  0.6210 -1.0723  0.7395
18110TIP3   OH275820   4.455   5.745  11.295  0.2300  0.3200 -0.1363
18110TIP3    H175821   4.405   5.762  11.215 -0.5244  0.2277  0.3073
18110TIP3    H275822   4.410   5.797  11.362 -1.2003 -2.1612  0.9352
18111TIP3   OH275823   5.920   5.161  16.691 -0.3497  0.1482  1.3670
18111TIP3    H175824   5.895   5.213  16.767  2.6138  0.6895  2.1139
18111TIP3    H275825   5.954   5.080  16.729 -1.0419 -0.5871  0.4495
18112TIP3   OH275826   5.539   2.547   3.817 -0.1073  0.4490  0.2497
18112TIP3    H175827   5.619   2.597   3.833 -0.0848  0.5257 -0.0984
18112TIP3    H275828   5.490   2.598   3.753  0.5032 -0.5891 -1.0993
18113TIP3   OH275829   1.130   1.555  16.698  0.0531 -0.6031  0.2280
18113TIP3    H175830   1.079   1.589  16.772  1.8970  0.1915  1.1917
18113TIP3    H275831   1.156   1.633  16.649  1.5218 -0.8593  0.5690
18114TIP3   OH275832   0.128   3.931  16.717  0.0304  0.0503 -0.1076
18114TIP3    H175833   0.211   3.977  16.725 -0.2496  1.0583 -2.2056
18114TIP3    H275834   0.087   3.937  16.803  1.6937  0.3789  0.6837
18115TIP3   OH275835   2.937   5.607  16.331  0.5754  0.1764  0.1528
18115TIP3    H175836   2.850   5.602  16.291  1.2852 -0.8485 -1.3231
18115TIP3    H275837   2.927   5.674  16.399 -1.4021 -0.0094  0.1260
18116TIP3   OH275838   3.036   3.142  14.380  0.3908 -0.1278 -0.2484
18116TIP3    H175839   3.101   3.111  14.318 -0.1362 -1.1907 -0.2825
18116TIP3    H275840   3.005   3.224  14.343 -1.5015 -1.7794 -2.5726
18117TIP3   OH275841   4.524   1.701  16.829  0.0126  0.6060 -0.1412
18117TIP3    H175842   4.501   1.774  16.886  0.7499  1.1230 -0.4889
18117TIP3    H275843   4.440   1.667  16.797 -0.4135  0.2377  1.3126
18118TIP3   OH275844   0.345   1.105   1.274 -0.5802  0.1022 -0.4670
18118TIP3    H175845   0.343   1.010   1.266  0.7797  0.1038 -1.2372
18118TIP3    H275846   0.269   1.135   1.225 -0.5318 -0.5594 -0.9613
18119TIP3   OH275847   3.501   1.244   3.974 -0.4831  0.5196 -0.0717
18119TIP3    H175848   3.451   1.214   3.898 -0.2161 -0.6475  0.1948
18119TIP3    H275849   3.449   1.316   4.010 -1.5348 -0.1085 -0.3019
18120TIP3   OH275850   6.083   4.425   6.510 -0.1008  0.0607 -0.9429
18120TIP3    H175851   6.114   4.420   6.601 -0.3231  0.5716 -0.8361
18120TIP3    H275852   5.990   4.448   6.518 -0.6547 -1.8438 -1.2458
18121TIP3   OH275853   4.054   0.115  10.616 -0.4769 -0.2130 -0.4488
18121TIP3    H175854   4.050   0.064  10.697  0.6505  1.7933  0.9708
18121TIP3    H275855   3.963   0.129  10.592 -0.8389 -3.0698 -1.0870
18122TIP3   OH275856   2.795   2.078   2.529 -0.0005 -0.3869 -0.1485
18122TIP3    H175857   2.870   2.079   2.589 -0.0160  2.4864 -0.0049
18122TIP3    H275858   2.719   2.065   2.586  0.2624 -1.7259 -0.0898
18123TIP3   OH275859   2.774   2.111   2.198  0.6822 -0.7105 -0.0906
18123TIP3    H175860   2.774   2.106   2.294  1.9038  0.9409  0.0493
18123TIP3    H275861   2.865   2.131   2.176  0.3958 -0.9842 -1.6018
18124TIP3   OH275862   1.862   2.208   2.427 -0.1084  0.0456  0.6137
18124TIP3    H175863   1.928   2.144   2.451  1.4502  1.3571  0.0620
18124TIP3    H275864   1.885   2.234   2.338 -0.1038  2.0231  1.1380
18125TIP3   OH275865   2.821   0.904  13.063 -0.3918  0.1138  0.4954
18125TIP3    H175866   2.768   0.983  13.076 -1.6185 -0.3833 -1.1501
18125TIP3    H275867   2.757   0.835  13.049  0.5604 -1.7214  4.0842
18126TIP3   OH275868   4.329   3.499   1.222 -0.3467 -0.7759 -0.1879
18126TIP3    H175869   4.329   3.516   1.317 -0.5714  1.2605 -0.5104
18126TIP3    H275870   4.421   3.500   1.198 -0.3405 -0.2054 -0.1541
18127TIP3   OH275871   1.451   4.785  12.425 -0.1796  0.0512 -0.3796
18127TIP3    H175872   1.524   4.775  12.363 -0.1562 -0.5825 -0.2539
18127TIP3    H275873   1.385   4.833  12.375  1.0321  2.3761  0.0924
18128TIP3   OH275874   1.397   2.367   5.700  0.3651 -0.0683  0.4731
18128TIP3    H175875   1.430   2.278   5.688 -0.7985 -0.3482 -0.9308
18128TIP3    H275876   1.346   2.385   5.621 -0.0259  1.5883  1.0495
18129TIP3   OH275877   2.818   2.246  12.582 -0.9716  0.0418  0.3863
18129TIP3    H175878   2.846   2.209  12.498 -2.2673 -2.3993  0.9382
18129TIP3    H275879   2.746   2.304  12.559 -0.9617 -0.1783 -0.2332
18130TIP3   OH275880   1.091   4.769   0.826  0.5653  0.9223 -0.1329
18130TIP3    H175881   1.122   4.846   0.875 -3.1893  1.1383  2.3130
18130TIP3    H275882   1.083   4.700   0.892 -2.2694  0.4492 -0.8197
18131TIP3   OH275883   2.917   0.292   4.645  0.2678  0.6298  0.0486
18131TIP3    H175884   3.003   0.283   4.685 -0.1814  0.5403  1.0136
18131TIP3    H275885   2.859   0.317   4.717 -0.0124  3.5277 -1.0214
18132TIP3   OH275886   0.339   1.460  13.580  0.1158  0.0360 -0.0160
18132TIP3    H175887   0.417   1.415  13.612  0.7829  1.0656 -0.1608
18132TIP3    H275888   0.328   1.534  13.640 -1.6459 -0.9166  0.9324
18133TIP3   OH275889   1.408   6.132   3.730  0.4789  0.4046  0.2165
18133TIP3    H175890   1.406   6.170   3.642 -0.0985  0.8194  0.3987
18133TIP3    H275891   1.405   6.207   3.789  3.4771  0.2995  0.6583
18134TIP3   OH275892   0.097   1.322   4.210  0.2264 -0.0902  0.0540
18134TIP3    H175893   0.049   1.385   4.156  0.4198 -0.4540 -0.5515
18134TIP3    H275894   0.167   1.289   4.152  2.3184  1.6831  1.4011
18135TIP3   OH275895   2.454   2.856   2.436 -0.6757 -0.3148  0.3308
18135TIP3    H175896   2.525   2.795   2.419 -3.0534 -2.9972 -0.8385
18135TIP3    H275897   2.429   2.888   2.349 -0.0427  1.7732  0.8509
18136TIP3   OH275898   5.780   3.650   4.517  0.2183  0.9516 -0.3624
18136TIP3    H175899   5.746   3.562   4.532 -0.4462  1.2971  0.1798
18136TIP3    H275900   5.875   3.640   4.522  0.2104  0.0255 -1.6420
18137TIP3   OH275901   0.543   0.608  15.728  0.5754 -0.2778 -0.1579
18137TIP3    H175902   0.459   0.569  15.751 -0.1649  0.3899 -1.6399
18137TIP3    H275903   0.575   0.556  15.654  0.7848  0.3388 -0.5110
18138TIP3   OH275904   0.157   0.190   0.304  0.7875 -0.7114 -0.0576
18138TIP3    H175905   0.218   0.264   0.295 -0.3369  0.1591 -0.9218
18138TIP3    H275906   0.195   0.135   0.372  1.0160  1.3484  1.5765
18139TIP3   OH275907   4.471   6.256  15.720  0.2738 -0.1063 -0.4808
18139TIP3    H175908   4.384   6.215  15.717  0.6234 -0.9273  0.1555
18139TIP3    H275909   4.531   6.185  15.699  0.7371  0.7182 -2.0820
18140TIP3   OH275910   5.341   1.676  11.199 -0.2365 -0.1653  0.4734
18140TIP3    H175911   5.286   1.706  11.127 -1.0235  1.2584  1.6176
18140TIP3    H275912   5.400   1.750  11.217  1.2988 -1.2260  0.0440
18141TIP3   OH275913   5.160   2.183  13.995  0.5131  0.0013 -0.2106
18141TIP3    H175914   5.152   2.102  14.046  2.6522 -0.1216  0.0351
18141TIP3    H275915   5.187   2.153  13.908 -2.7766  0.2338 -1.4308
18142TIP3   OH275916   6.674   5.341  11.394 -0.9217 -0.5345  0.0298
18142TIP3    H175917   6.666   5.273  11.327 -0.1121  0.7964 -1.5109
18142TIP3    H275918   6.658   5.423  11.347  1.1201  0.5749  1.1053
18143TIP3   OH275919   2.565   4.825   4.642 -0.7512  0.6498 -0.1448
18143TIP3    H175920   2.532   4.872   4.719 -2.3926  0.6473 -0.8124
18143TIP3    H275921   2.596   4.742   4.677  1.6875  1.9398  0.9742
18144TIP3   OH275922   5.617   3.923  16.151 -0.0556  0.4099  0.3971
18144TIP3    H175923   5.573   3.884  16.076 -1.7987 -0.1281  1.6240
18144TIP3    H275924   5.653   4.006  16.118 -2.2605  1.0152 -0.6570
18145TIP3   OH275925   6.170   0.344  11.441  0.0967 -0.1748  0.5953
18145TIP3    H175926   6.257   0.367  11.474  1.0181 -1.4363 -0.8083
18145TIP3    H275927   6.138   0.278  11.502 -0.8347  1.7349  2.3077
18146TIP3   OH275928   4.070   5.371   4.456 -0.2964  0.4301 -0.6113
18146TIP3    H175929   4.077   5.417   4.540  0.1554 -0.9870  0.1654
18146TIP3    H275930   3.992   5.315   4.467  0.4236 -0.6140 -0.6742
18147TIP3   OH275931   4.930   2.785  15.636 -0.9986 -0.4801  0.3999
18147TIP3    H175932   4.880   2.860  15.605  0.8317  0.7728  0.3087
18147TIP3    H275933   4.873   2.710  15.619 -4.3881  1.0505  3.5892
18148TIP3   OH275934   1.661   3.024   0.681  0.0421  0.3388  0.1229
18148TIP3    H175935   1.718   2.964   0.633 -0.4065 -1.0481  1.2335
18148TIP3    H275936   1.576   3.016   0.637  0.7221  2.8853 -1.9392
18149TIP3   OH275937   3.870   4.251   1.815  0.0510  0.3973 -0.0084
18149TIP3    H175938   3.899   4.165   1.784 -0.1786  0.2228  0.2567
18149TIP3    H275939   3.859   4.303   1.736  0.7690  0.3648 -0.1329
18150TIP3   OH275940   1.323   5.806   0.780  0.1299  0.4144 -0.0042
18150TIP3    H175941   1.359   5.732   0.731  1.5381 -0.7068  2.5329
18150TIP3    H275942   1.228   5.798   0.768  0.3966  0.3132 -2.5672
18151TIP3   OH275943   5.692   4.874   2.256  0.5607 -0.1841  0.7115
18151TIP3    H175944   5.698   4.779   2.256  0.1524 -0.2297 -0.4206
18151TIP3    H275945   5.759   4.903   2.194 -0.0221  0.1958  0.2444
18152TIP3   OH275946   2.933   0.975  11.214  0.0480 -0.2011  0.1842
18152TIP3    H175947   2.998   0.905  11.214  0.5597  0.1231  3.1170
18152TIP3    H275948   2.852   0.934  11.184  1.1764 -1.0055 -1.9669
18153TIP3   OH275949   2.975   6.074   4.046  0.1804  0.1212 -0.1874
18153TIP3    H175950   3.041   6.105   4.109 -0.2386  0.5247  0.0630
18153TIP3    H275951   2.904   6.138   4.053 -0.3010 -0.3878 -0.3481
18154TIP3   OH275952   0.042   6.141  17.200  0.1937 -0.0727  0.2609
18154TIP3    H175953  -0.052   6.151  17.215  0.1950 -1.7012  1.5585
18154TIP3    H275954   0.073   6.230  17.184 -1.3201  0.6836  1.3165
18155TIP3   OH275955   4.524   0.961   1.064  0.0819  0.1704  0.1551
18155TIP3    H175956   4.463   0.899   1.023  1.9497 -1.1441 -0.8525
18155TIP3    H275957   4.592   0.905   1.103  2.6636  1.4682 -2.0825
18156TIP3   OH275958   5.359   5.079   6.162  0.2526  0.1397  0.0932
18156TIP3    H175959   5.277   5.052   6.121  0.6332 -2.1881  0.7326
18156TIP3    H275960   5.333   5.150   6.222 -1.4896 -1.1617  0.9901
18157TIP3   OH275961   3.431   0.580  10.092  0.2218  0.3244  0.1806
18157TIP3    H175962   3.365   0.641  10.059 -0.0983 -0.8094 -1.3843
18157TIP3    H275963   3.381   0.502  10.118  0.9197 -0.6351 -1.2395
18158TIP3   OH275964   3.648   3.331   1.818 -0.2491 -0.2537 -0.0916
18158TIP3    H175965   3.585   3.383   1.869 -1.5074 -1.6220 -0.2110
18158TIP3    H275966   3.613   3.333   1.729  1.0312  0.6998 -0.6037
18159TIP3   OH275967   6.268   0.096  14.680 -0.0972 -0.1959  0.4200
18159TIP3    H175968   6.210   0.027  14.712  1.9790 -1.0529  2.6987
18159TIP3    H275969   6.246   0.172  14.734 -0.2995  0.0010  0.0589
18160TIP3   OH275970   0.083   0.102   5.056 -0.6604  0.7094 -0.0643
18160TIP3    H175971   0.059   0.031   5.116 -0.4478  0.3649 -0.3766
18160TIP3    H275972  -0.001   0.137   5.026 -0.7782  0.1326 -0.4342
18161TIP3   OH275973   1.770   5.857  13.472 -0.2569 -0.0623 -0.4783
18161TIP3    H175974   1.860   5.888  13.460  0.0618 -0.6256  0.3746
18161TIP3    H275975   1.771   5.768  13.437  0.4961 -1.4536  2.7986
18162TIP3   OH275976   5.970   1.463  13.129 -0.2641  0.1124 -0.0305
18162TIP3    H175977   5.951   1.387  13.184 -1.9803  0.0921 -0.6086
18162TIP3    H275978   5.990   1.427  13.043  0.8988  0.2331  0.1677
18163TIP3   OH275979   1.327   0.987  16.170 -0.1721  0.3826 -0.5933
18163TIP3    H175980   1.336   0.905  16.219 -2.2493  1.0638  1.1049
18163TIP3    H275981   1.363   0.967  16.084  1.3116 -1.6659  0.3994
18164TIP3   OH275982   1.346   3.905  11.709  0.0377 -0.5631 -0.5573
18164TIP3    H175983   1.303   3.824  11.735 -0.8653 -0.6281 -2.1270
18164TIP3    H275984   1.433   3.900  11.748 -0.7912 -1.1757  1.3502
18165TIP3   OH275985   5.296   5.992   1.951  0.3331  0.0013  0.3818
18165TIP3    H175986   5.355   6.067   1.962  1.0017 -0.3728 -0.5129
18165TIP3    H275987   5.351   5.915   1.963 -0.3212 -0.3658  1.1534
18166TIP3   OH275988   0.584   5.642   4.975  0.1315  0.4469 -0.0301
18166TIP3    H175989   0.615   5.551   4.981  0.3325  0.4760 -0.6351
18166TIP3    H275990   0.599   5.667   4.884  0.0369  1.0782  0.1239
18167TIP3   OH275991   4.040   0.812  10.803 -0.0790  0.2165 -0.3961
18167TIP3    H175992   3.970   0.791  10.740 -0.4183 -0.1201  0.0931
18167TIP3    H275993   4.104   0.861  10.751 -0.5026  0.2092 -0.9371
18168TIP3   OH275994   0.233   1.470  11.205 -0.4259  0.1149  0.2040
18168TIP3    H175995   0.262   1.554  11.242  2.1572 -0.5314 -0.1601
18168TIP3    H275996   0.223   1.488  11.112  0.2321  0.0126  0.1085
18169TIP3   OH275997   2.895   6.541   5.837  0.1275  0.0337 -0.4876
18169TIP3    H175998   2.953   6.470   5.806 -0.4676 -0.0272 -1.4998
18169TIP3    H275999   2.810   6.499   5.848 -0.6681  0.8870 -2.7341
18170TIP3   OH276000   0.068   6.406   3.361  0.2711  0.1159 -0.7840
18170TIP3    H176001   0.117   6.338   3.314 -0.1550  0.8312 -2.3366
18170TIP3    H276002   0.010   6.358   3.420 -0.2182 -0.9072 -2.0480
18171TIP3   OH276003   5.592   1.571   4.701  0.3291  0.2217  0.1011
18171TIP3    H176004   5.654   1.634   4.664 -0.9340  1.1460 -0.5184
18171TIP3    H276005   5.508   1.594   4.660 -0.0559 -2.2949 -0.6535
18172TIP3   OH276006   5.628   1.070   2.021  0.2335  0.0686 -0.1159
18172TIP3    H176007   5.654   1.099   2.109  0.1522 -2.6171  0.8736
18172TIP3    H276008   5.690   1.002   1.998 -0.7356 -0.4145 -1.4600
18173TIP3   OH276009   0.638   1.484  12.824  0.2795  0.3919 -0.6067
18173TIP3    H176010   0.592   1.424  12.884 -2.5480  1.2260 -1.7521
18173TIP3    H276011   0.707   1.432  12.785 -0.2373 -1.2549  0.5746
18174TIP3   OH276012   2.285   1.609  11.329 -0.1371  0.3741 -0.3035
18174TIP3    H176013   2.200   1.619  11.285 -0.5046 -1.0312  0.0527
18174TIP3    H276014   2.344   1.665  11.278 -0.7694 -0.4069 -1.9814
18175TIP3   OH276015   6.470   2.675  11.077 -0.3336  0.9905  0.5489
18175TIP3    H176016   6.518   2.757  11.067  1.1213  0.1168  0.0931
18175TIP3    H276017   6.528   2.609  11.040 -3.1568  0.2160 -3.0098
18176TIP3   OH276018   2.728   1.361  12.273  0.4784 -0.5738 -0.1605
18176TIP3    H176019   2.656   1.413  12.239  0.3469 -1.6857 -1.6619
18176TIP3    H276020   2.806   1.412  12.251  0.2614 -0.2026 -0.0860
18177TIP3   OH276021   3.682   5.808   6.059 -0.3726  0.4778 -0.0864
18177TIP3    H176022   3.658   5.831   5.969 -0.4271 -0.2560 -0.2703
18177TIP3    H276023   3.754   5.746   6.050 -0.2948  0.4948  0.3827
18178TIP3   OH276024   3.133   6.098  14.674 -0.6091  0.0175 -0.1154
18178TIP3    H176025   3.054   6.120  14.724 -1.0491 -1.7182 -0.0124
18178TIP3    H276026   3.100   6.072  14.588 -0.1048 -0.1812 -0.2486
18179TIP3   OH276027   3.587   4.719  11.073 -0.6306 -0.0777  0.1950
18179TIP3    H176028   3.523   4.760  11.131 -1.2259 -1.1116  0.2813
18179TIP3    H276029   3.573   4.763  10.988 -1.2278 -0.0698  0.2936
18180TIP3   OH276030   1.181   6.009  13.471  0.6634 -0.2303 -0.2310
18180TIP3    H176031   1.154   5.922  13.443  1.2767  0.1479 -2.1530
18180TIP3    H276032   1.182   6.005  13.566 -1.2394 -1.7140 -0.2298
18181TIP3   OH276033   4.289   3.983   4.607  0.3220  0.4493  0.3316
18181TIP3    H176034   4.227   4.002   4.677  0.1199  0.6341  0.1062
18181TIP3    H276035   4.331   3.901   4.634 -1.2692 -0.6478 -0.3385
18182TIP3   OH276036   3.088   5.006  14.199 -0.4231 -0.1219  0.0607
18182TIP3    H176037   3.158   4.951  14.235 -1.3409 -0.7383  0.9509
18182TIP3    H276038   3.076   5.075  14.264 -1.7683 -0.9720  0.7611
18183TIP3   OH276039   0.588   3.519   0.060  0.8725 -0.3088  0.3859
18183TIP3    H176040   0.583   3.592   0.122 -0.1055  0.2545 -0.3257
18183TIP3    H276041   0.661   3.542   0.002 -0.5346  1.0710 -0.9613
18184TIP3   OH276042   0.501   2.269   2.907 -0.1555 -0.4293  0.2698
18184TIP3    H176043   0.447   2.235   2.978  1.6356  0.2946  2.0779
18184TIP3    H276044   0.547   2.193   2.871 -0.2524 -0.6461  0.6107
18185TIP3   OH276045   4.636   3.864  15.130  0.4968  0.0506 -0.3143
18185TIP3    H176046   4.729   3.886  15.129 -0.0524  2.8380 -0.8823
18185TIP3    H276047   4.594   3.940  15.089 -2.1110 -0.6350  0.8903
18186TIP3   OH276048   3.315   3.417  14.219 -0.0409  0.3321  0.8475
18186TIP3    H176049   3.327   3.357  14.145 -0.5381 -0.1249  1.1268
18186TIP3    H276050   3.391   3.401  14.275  0.5589  0.9858  0.2363
18187TIP3   OH276051   3.385   0.051  13.540  0.0993 -0.5469 -0.5201
18187TIP3    H176052   3.434   0.088  13.614  0.7594 -0.2501 -1.0948
18187TIP3    H276053   3.326  -0.013  13.580  1.3483 -1.3280  0.1460
18188TIP3   OH276054   5.991   5.469   6.098  0.2114 -0.2241  0.1082
18188TIP3    H176055   6.059   5.525   6.134 -0.9258  0.3973  1.4037
18188TIP3    H276056   5.909   5.511   6.124 -0.7249  0.0442 -2.9456
18189TIP3   OH276057   5.154   2.110  16.196 -0.0828 -0.2596 -0.2254
18189TIP3    H176058   5.157   2.049  16.122  0.5755 -0.8403  0.2726
18189TIP3    H276059   5.231   2.089  16.248 -0.0139  0.7878  0.1310
18190TIP3   OH276060   1.190   4.709   0.585  0.2072 -0.4438 -0.4718
18190TIP3    H176061   1.163   4.718   0.676  0.1920 -2.1731 -0.2675
18190TIP3    H276062   1.270   4.657   0.589  0.7012  0.2296 -1.3958
18191TIP3   OH276063   1.693   0.152   2.606 -0.4241  0.5123 -0.9800
18191TIP3    H176064   1.702   0.149   2.701 -3.4934 -1.3527 -0.5930
18191TIP3    H276065   1.773   0.109   2.573  0.2203  0.2572  0.7997
18192TIP3   OH276066   4.599   5.536   3.942  0.0206 -0.3129 -0.0655
18192TIP3    H176067   4.634   5.463   3.993  0.3634 -0.7640 -0.9229
18192TIP3    H276068   4.504   5.530   3.955  0.1196 -0.2250  0.7605
18193TIP3   OH276069   2.229   4.734   3.650  0.2531  0.2377 -0.2868
18193TIP3    H176070   2.309   4.765   3.609  0.0441 -0.7189 -1.4819
18193TIP3    H276071   2.185   4.683   3.582 -1.7389  1.3256  0.1041
18194TIP3   OH276072   0.036   2.780   3.278 -0.1590  0.1659 -0.8581
18194TIP3    H176073   0.035   2.689   3.248  0.3344 -0.6119  1.2898
18194TIP3    H276074   0.045   2.774   3.373  0.3906  2.4824 -0.6958
18195TIP3   OH276075   4.190   6.621  15.488  0.5747 -0.0367 -0.8658
18195TIP3    H176076   4.120   6.568  15.450  0.4838 -0.5041 -0.0710
18195TIP3    H276077   4.248   6.640  15.415  0.1345 -0.4785 -1.3429
18196TIP3   OH276078   1.553   4.628   4.239  0.3447 -0.6170 -0.2446
18196TIP3    H176079   1.589   4.624   4.150 -0.0867 -0.6771 -0.4212
18196TIP3    H276080   1.460   4.650   4.226  0.7872  1.8031  0.2909
18197TIP3   OH276081   1.375   6.413  12.554  0.0604  0.6317  0.2748
18197TIP3    H176082   1.361   6.328  12.596 -0.8580 -0.2519 -1.6986
18197TIP3    H276083   1.468   6.431  12.567  0.0045  0.0031  1.8601
18198TIP3   OH276084   1.247   6.142  16.293  0.3081 -0.1315 -1.0623
18198TIP3    H176085   1.280   6.139  16.382  0.6592 -0.1946 -1.1912
18198TIP3    H276086   1.293   6.070  16.248 -0.3502 -0.5172 -1.1293
18199TIP3   OH276087   1.691   2.422  14.463 -0.0163 -0.3820  0.6215
18199TIP3    H176088   1.777   2.383  14.477  0.0309 -1.7474 -2.5898
18199TIP3    H276089   1.710   2.513  14.440  0.3416 -0.0349  2.1896
18200TIP3   OH276090   1.348   2.873   0.908 -0.0153 -0.0640 -0.7197
18200TIP3    H176091   1.434   2.901   0.942 -0.1943 -1.4578  1.0084
18200TIP3    H276092   1.287   2.940   0.940 -0.4649 -2.1706  3.5206
18201TIP3   OH276093   4.694   6.253  15.056  0.2526 -0.0486  0.6511
18201TIP3    H176094   4.746   6.223  15.130 -1.3477 -4.1093  0.3539
18201TIP3    H276095   4.757   6.261  14.984  0.9240 -2.4019  0.9059
18202TIP3   OH276096   4.165   3.126   1.213  0.2694 -1.0631 -0.1379
18202TIP3    H176097   4.219   3.119   1.134  2.6554 -1.7716  1.4462
18202TIP3    H276098   4.120   3.041   1.219  0.5799 -1.2514 -0.4275
18203TIP3   OH276099   6.781   1.275  13.927  0.3048  0.7492  0.4328
18203TIP3    H176100   6.812   1.200  13.876  0.0748  1.2445 -0.4586
18203TIP3    H276101   6.861   1.316  13.960  0.4515  0.3792  0.5396
18204TIP3   OH276102   2.576   0.146   1.213 -0.3189 -0.4563 -0.4154
18204TIP3    H176103   2.527   0.106   1.284  0.0151 -0.4884 -0.2039
18204TIP3    H276104   2.565   0.086   1.139 -0.6910 -0.4052 -0.4003
18205TIP3   OH276105   5.411   1.656   5.127  0.4790 -0.2978  0.2535
18205TIP3    H176106   5.368   1.581   5.085  2.5739 -1.0082 -0.7393
18205TIP3    H276107   5.454   1.618   5.204 -0.2657  0.3260  0.9971
18206TIP3   OH276108   5.983   1.315   5.720  0.2751  0.2804 -0.5917
18206TIP3    H176109   5.951   1.396   5.760  0.6675 -0.5459  1.5486
18206TIP3    H276110   5.916   1.290   5.658 -0.3089  1.7333 -0.5863
18207TIP3   OH276111   0.859   3.296   4.362 -0.4600 -0.3525  0.2083
18207TIP3    H176112   0.765   3.287   4.342 -0.3776  0.0812 -0.4182
18207TIP3    H276113   0.890   3.362   4.300 -0.1445  0.9431  1.6854
18208TIP3   OH276114   6.154   4.286   4.392  0.0477  0.6159  0.5954
18208TIP3    H176115   6.206   4.339   4.332 -0.2739 -0.0574 -0.3082
18208TIP3    H276116   6.180   4.315   4.480  0.0482  2.0761  0.1295
18209TIP3   OH276117   2.354   0.102   0.065 -0.1323  0.1838 -0.0246
18209TIP3    H176118   2.399   0.185   0.046 -0.8759  0.8047  0.8666
18209TIP3    H276119   2.273   0.128   0.110 -0.2607 -1.0405  0.4839
18210TIP3   OH276120   0.753   6.535  14.341  0.1139  0.4310 -0.0644
18210TIP3    H176121   0.726   6.588  14.266 -0.8397  0.3943  0.2424
18210TIP3    H276122   0.762   6.599  14.412 -0.6531  0.2470  0.2075
18211TIP3   OH276123   3.420   5.520  16.526 -0.6318 -0.0605 -0.0179
18211TIP3    H176124   3.404   5.517  16.621  0.7056  0.0572  0.2388
18211TIP3    H276125   3.337   5.549  16.488 -1.2124 -0.1908  1.1118
18212TIP3   OH276126   3.347   5.185  12.654  0.4198 -0.3136  0.5733
18212TIP3    H176127   3.381   5.195  12.566  1.5579 -1.4118  0.8608
18212TIP3    H276128   3.258   5.221  12.650  0.6516  0.1547 -0.8592
18213TIP3   OH276129   4.556   5.337  12.690  0.1885 -0.4083  0.2182
18213TIP3    H176130   4.492   5.320  12.758 -0.6807  1.5191 -0.0573
18213TIP3    H276131   4.508   5.383  12.622  1.6219  0.1036 -0.5046
18214TIP3   OH276132   3.282   3.871   0.378 -0.1356 -0.0406  0.0409
18214TIP3    H176133   3.370   3.908   0.377  0.5920 -1.6481  1.1196
18214TIP3    H276134   3.292   3.787   0.422 -1.9965 -0.8151 -0.9199
18215TIP3   OH276135   0.642   1.690   4.202  0.1533  0.3780 -0.1934
18215TIP3    H176136   0.621   1.610   4.154  0.0525 -0.3381  1.0095
18215TIP3    H276137   0.685   1.660   4.282  0.1329  1.5289  0.2745
18216TIP3   OH276138   2.689   3.376  12.576  0.2699 -0.0222  0.2735
18216TIP3    H176139   2.597   3.356  12.566  0.0772  0.5029  0.9209
18216TIP3    H276140   2.727   3.361  12.489 -0.5158  0.2324 -0.1187
18217TIP3   OH276141   4.380   4.661   4.577 -0.4926  0.0925  0.0065
18217TIP3    H176142   4.320   4.728   4.608 -1.5310 -0.9307  0.2752
18217TIP3    H276143   4.353   4.644   4.486  0.5513  0.8810 -0.4737
18218TIP3   OH276144   1.280   2.688  14.536 -0.1578  0.8143 -0.0227
18218TIP3    H176145   1.243   2.669  14.450  2.5521 -1.0583 -0.9178
18218TIP3    H276146   1.308   2.602  14.570  0.8453  1.7642  1.7179
18219TIP3   OH276147   0.112   4.941  11.466 -0.5684  0.1147 -0.3309
18219TIP3    H176148   0.129   5.021  11.418 -0.0969 -0.1664 -0.6361
18219TIP3    H276149   0.090   4.876  11.398  0.7768 -0.4642 -0.2469
18220TIP3   OH276150   3.142   5.262  12.087 -0.1777  0.1767 -0.4858
18220TIP3    H176151   3.171   5.173  12.068  1.0309  0.2638  0.8158
18220TIP3    H276152   3.053   5.251  12.121 -0.6295 -0.3604 -1.7676
18221TIP3   OH276153   3.914   1.295   5.786  0.3322 -0.3333 -0.2307
18221TIP3    H176154   3.920   1.327   5.876  3.3830  1.1109 -0.8142
18221TIP3    H276155   3.947   1.367   5.733 -0.7358 -1.4075 -2.4939
18222TIP3   OH276156   1.224   3.716  16.044 -0.3861 -0.2507 -0.3263
18222TIP3    H176157   1.228   3.713  15.949  1.8482 -0.0491 -0.2966
18222TIP3    H276158   1.302   3.767  16.070 -1.0944 -0.0354  1.5922
18223TIP3   OH276159   3.612   2.652   5.625 -0.0144  0.0625 -0.1292
18223TIP3    H176160   3.536   2.707   5.641 -0.2058  0.4539 -2.2077
18223TIP3    H276161   3.684   2.697   5.669 -0.5784  0.8142  0.0282
18224TIP3   OH276162   4.228   2.582  16.512 -0.4611  0.3414  0.0803
18224TIP3    H176163   4.218   2.487  16.515 -1.3190  0.3709 -0.9328
18224TIP3    H276164   4.198   2.607  16.425  1.0057  1.4243 -0.1629
18225TIP3   OH276165   6.560   4.604   4.495  0.7235 -0.0464 -0.0577
18225TIP3    H176166   6.481   4.554   4.518 -0.1118  1.2338 -0.0369
18225TIP3    H276167   6.527   4.678   4.444  1.7990  1.0301  0.7570
18226TIP3   OH276168   2.001   1.509  16.749  0.2755 -0.3437 -0.0678
18226TIP3    H176169   1.907   1.499  16.733  0.3436 -1.2531  0.0654
18226TIP3    H276170   2.008   1.523  16.844  0.2699 -0.1006 -0.1017
18227TIP3   OH276171   0.640   5.000   5.216  0.6295 -0.2618  0.0299
18227TIP3    H176172   0.552   5.036   5.204  0.4306 -1.0663 -1.0642
18227TIP3    H276173   0.626   4.905   5.220  1.1719 -0.3188  2.5459
18228TIP3   OH276174   3.775   0.527   4.494  0.7477  0.0757  0.8276
18228TIP3    H176175   3.771   0.569   4.409  1.2048 -1.6272 -0.0760
18228TIP3    H276176   3.685   0.535   4.528  0.5273  0.6513  0.1483
18229TIP3   OH276177   2.984   6.564  10.172 -0.3448  0.6178 -0.2843
18229TIP3    H176178   3.015   6.635  10.229 -3.3991  0.9223  1.2440
18229TIP3    H276179   3.048   6.559  10.102  1.4842  2.9762  1.0722
18230TIP3   OH276180   3.047   1.329  11.211 -0.7781  0.1250  0.5816
18230TIP3    H176181   2.987   1.265  11.250 -2.0246  1.2427  0.5875
18230TIP3    H276182   3.064   1.296  11.123 -0.5341 -0.7665  0.9580
18231TIP3   OH276183   0.070   5.843   2.800  0.1650 -0.2798 -0.9993
18231TIP3    H176184   0.035   5.903   2.866  0.5851 -0.7995 -0.2894
18231TIP3    H276185   0.075   5.896   2.720  0.6570  0.6815 -0.3573
18232TIP3   OH276186   3.797   0.694  11.827 -0.1105  0.5888 -0.0244
18232TIP3    H176187   3.886   0.723  11.805 -0.2658 -0.5523 -2.5867
18232TIP3    H276188   3.809   0.606  11.863 -0.2269 -0.0389 -1.4586
18233TIP3   OH276189   1.013   0.578  13.627  0.3295 -0.0391  0.1010
18233TIP3    H176190   1.029   0.543  13.539  2.2923 -0.5892  0.6223
18233TIP3    H276191   1.020   0.501  13.685 -1.3217  0.2462  0.7185
18234TIP3   OH276192   1.550   1.935  15.574 -0.4404 -0.0213 -0.1513
18234TIP3    H176193   1.508   2.010  15.615 -0.5197 -0.1232 -0.0461
18234TIP3    H276194   1.584   1.969  15.492 -0.0742  0.2383  0.1070
18235TIP3   OH276195   4.641   4.746   5.563  0.1124  0.0392  0.3111
18235TIP3    H176196   4.626   4.840   5.549 -2.6512 -0.2591  0.7996
18235TIP3    H276197   4.604   4.729   5.649 -0.3717 -1.7038 -0.2179
18236TIP3   OH276198   3.223   2.013  14.889 -0.1406 -0.2916  0.2861
18236TIP3    H176199   3.224   2.002  14.794 -0.1426 -0.0740  0.2616
18236TIP3    H276200   3.139   2.056  14.907 -0.2200 -0.4902  0.4043
18237TIP3   OH276201   4.064   3.557   4.409  0.4018  0.0933  0.3252
18237TIP3    H176202   4.146   3.510   4.423  0.5047  0.2566  0.2618
18237TIP3    H276203   4.087   3.649   4.415  0.2359  0.1416  0.2304
18238TIP3   OH276204   1.646   4.758   5.939  0.1486 -0.0427 -0.1479
18238TIP3    H176205   1.613   4.805   5.863  0.2168 -0.7785 -0.6411
18238TIP3    H276206   1.738   4.784   5.946 -0.4102  1.7894  1.0591
18239TIP3   OH276207   1.091   0.278   3.035 -0.5963  0.3346  0.6190
18239TIP3    H176208   0.997   0.265   3.049 -0.5817  0.9727  1.3743
18239TIP3    H276209   1.108   0.367   3.067  0.1457  0.4765 -0.1262
18240TIP3   OH276210   4.085   2.020  15.628  0.3524  0.0181  0.0635
18240TIP3    H176211   4.019   2.088  15.620  1.1392  0.6815 -0.9555
18240TIP3    H276212   4.156   2.060  15.678 -0.5662 -1.1543  2.4985
18241TIP3   OH276213   1.087   2.337  11.063 -0.2453  0.2060 -0.1286
18241TIP3    H176214   1.013   2.383  11.023 -1.2384 -1.9520 -0.9024
18241TIP3    H276215   1.143   2.313  10.989  0.1211 -0.0674  0.2343
18242TIP3   OH276216   4.809   1.093  16.964 -0.1373  0.2436  0.7392
18242TIP3    H176217   4.890   1.076  16.917 -0.3624 -0.5108  0.6132
18242TIP3    H276218   4.757   1.014  16.952  0.7438 -1.0791  4.2877
18243TIP3   OH276219   0.325   3.883   3.244  0.4624  0.3927  0.5122
18243TIP3    H176220   0.338   3.978   3.241 -0.8767  0.5867  0.2452
18243TIP3    H276221   0.382   3.853   3.315  0.4428  1.4713  0.9979
18244TIP3   OH276222   0.988   5.603   2.439 -0.1925  0.7567  0.3906
18244TIP3    H176223   1.040   5.611   2.520 -0.4477  0.3992  0.5906
18244TIP3    H276224   0.978   5.693   2.409  0.0663  0.8779  0.6573
18245TIP3   OH276225   1.862   6.279  11.815  0.1300 -0.1290 -0.1590
18245TIP3    H176226   1.935   6.341  11.814  0.5449 -0.6189 -0.4962
18245TIP3    H276227   1.784   6.334  11.827  0.6936  0.2453  2.3709
18246TIP3   OH276228   3.391   3.334   0.438 -0.3847 -0.0579 -0.0826
18246TIP3    H176229   3.369   3.325   0.530  0.0910  1.4172  0.1972
18246TIP3    H276230   3.369   3.249   0.400 -0.3493 -0.7804  1.4273
18247TIP3   OH276231   4.303   6.754   5.717 -0.1338  0.3156 -0.2465
18247TIP3    H176232   4.281   6.668   5.752  0.0781  0.5799  0.5785
18247TIP3    H276233   4.383   6.740   5.666 -0.2913 -0.0355 -0.3938
18248TIP3   OH276234   1.747   5.094   3.430 -0.1996  0.2154  0.4169
18248TIP3    H176235   1.770   5.044   3.352  0.4677 -0.5710  1.1022
18248TIP3    H276236   1.717   5.178   3.396  1.2542  0.3478 -0.6509
18249TIP3   OH276237   2.338   4.349   5.426 -0.1526 -0.1036 -0.2987
18249TIP3    H176238   2.366   4.342   5.517  0.2031 -0.3601 -0.4272
18249TIP3    H276239   2.344   4.442   5.405 -0.4382 -0.0170  0.0043
18250TIP3   OH276240   3.496   0.252   1.446 -0.3116  0.2257  0.2585
18250TIP3    H176241   3.575   0.302   1.424  0.4681  0.8037  3.7487
18250TIP3    H276242   3.524   0.160   1.439  0.0824  0.3937 -0.4257
18251TIP3   OH276243   4.671   5.398  13.968  1.2975  0.4274 -0.3548
18251TIP3    H176244   4.684   5.342  13.892  1.2101 -1.4226  0.9158
18251TIP3    H276245   4.749   5.382  14.023  0.2148 -0.2204  1.0594
18252TIP3   OH276246   2.985   6.773  14.902 -0.4079 -0.4710  0.7109
18252TIP3    H176247   3.036   6.707  14.854 -0.7768 -0.6443  0.5526
18252TIP3    H276248   3.014   6.857  14.867 -3.4783 -0.6112 -2.8352
18253TIP3   OH276249   0.083   6.259   4.916  0.1864  0.3089  0.3296
18253TIP3    H176250   0.009   6.264   4.856  0.2474  1.2355  0.3154
18253TIP3    H276251   0.099   6.166   4.928  1.5412  0.0157 -2.7769
18254TIP3   OH276252   0.253   0.686   1.420 -0.3029  0.0147  0.2744
18254TIP3    H176253   0.176   0.632   1.402 -0.9663  0.9789  0.1831
18254TIP3    H276254   0.248   0.703   1.514 -0.2416  0.1538  0.2519
18255TIP3   OH276255   1.988   5.665  12.128 -0.6264  0.4982  0.0761
18255TIP3    H176256   1.963   5.733  12.190 -2.6189  0.4375 -0.6090
18255TIP3    H276257   1.978   5.706  12.042 -3.4044 -1.0519 -0.4297
18256TIP3   OH276258   1.780   5.052  14.537  0.1319  0.0851  0.9247
18256TIP3    H176259   1.797   4.999  14.615  0.1211 -0.4359  0.5735
18256TIP3    H276260   1.857   5.040  14.482 -0.9508 -1.6611 -0.3234
18257TIP3   OH276261   3.099   1.536   4.453  0.1295 -0.2898 -0.1087
18257TIP3    H176262   3.090   1.444   4.478  0.6576 -0.1191  0.7646
18257TIP3    H276263   3.179   1.565   4.497 -0.0763  0.6097 -0.3006
18258TIP3   OH276264   1.616   0.506  16.740  0.2702  0.1611  0.2824
18258TIP3    H176265   1.656   0.472  16.660 -0.7154 -2.0248  0.6589
18258TIP3    H276266   1.532   0.462  16.746  0.6181 -0.3243  2.9099
18259TIP3   OH276267   3.433   4.647   4.058  0.2700 -0.1057 -0.3767
18259TIP3    H176268   3.455   4.598   4.138  0.8687 -3.3614 -2.3520
18259TIP3    H276269   3.513   4.696   4.038 -0.3791  2.0214  1.7070
18260TIP3   OH276270   3.049   6.340  14.460 -0.1569  0.3050 -0.1897
18260TIP3    H176271   3.090   6.305  14.381 -0.5735  0.7894 -0.6294
18260TIP3    H276272   3.123   6.358  14.519  0.0664 -1.2324  0.0321
18261TIP3   OH276273   5.364   1.409   1.584  0.8508  0.3567  0.0453
18261TIP3    H176274   5.385   1.316   1.588 -0.1445  0.0907 -0.6869
18261TIP3    H276275   5.360   1.436   1.676 -1.0734 -0.8606  0.3693
18262TIP3   OH276276   0.524   5.683  16.870  0.0592  0.0250 -0.2071
18262TIP3    H176277   0.555   5.665  16.781  0.5635  0.1170 -0.0495
18262TIP3    H276278   0.428   5.676  16.863  0.1816 -2.5364 -0.1962
18263TIP3   OH276279   5.003   3.907   6.317  0.3237  0.7942  0.6657
18263TIP3    H176280   5.088   3.950   6.317  1.9372 -2.1155  1.7793
18263TIP3    H276281   4.990   3.879   6.407 -0.3157 -1.4353 -0.0532
18264TIP3   OH276282   5.655   1.436  11.324  0.3561 -0.1193 -0.0279
18264TIP3    H176283   5.561   1.423  11.316  0.1922  0.3828  1.0235
18264TIP3    H276284   5.682   1.373  11.392  0.8451 -0.5324 -0.5931
18265TIP3   OH276285   5.224   2.535   0.509  0.0399  0.5507  0.3776
18265TIP3    H176286   5.245   2.619   0.468  1.7300  0.5306  1.1077
18265TIP3    H276287   5.241   2.550   0.602 -2.1897  0.1398  0.9036
18266TIP3   OH276288   6.110   1.820   6.594 -0.0865  0.4311  0.0648
18266TIP3    H176289   6.116   1.912   6.620 -0.9458  0.9999 -1.6066
18266TIP3    H276290   6.058   1.821   6.513  0.9080 -1.4097 -0.6589
18267TIP3   OH276291   4.197   2.374  16.101 -0.3269 -0.0411  0.6135
18267TIP3    H176292   4.288   2.346  16.102  0.2034  1.4450 -1.0190
18267TIP3    H276293   4.148   2.294  16.079  0.5589 -0.8378  1.4558
18268TIP3   OH276294   0.279   2.023  14.965  0.4911  1.1327 -0.5125
18268TIP3    H176295   0.291   2.032  14.871  1.5884  1.0575 -0.3914
18268TIP3    H276296   0.356   1.975  14.995 -1.1982 -1.4034  0.0478
18269TIP3   OH276297   6.623   4.292  12.472  0.4408  0.3066  0.2031
18269TIP3    H176298   6.640   4.242  12.552  0.8156  0.2645  0.0997
18269TIP3    H276299   6.709   4.327  12.447  0.5749 -0.7432 -0.8963
18270TIP3   OH276300   2.335   6.314  12.446 -0.1364 -0.5609  0.4538
18270TIP3    H176301   2.384   6.392  12.419 -3.5082  2.0336  1.0752
18270TIP3    H276302   2.282   6.291  12.370  0.9223 -2.4650  0.2223
18271TIP3   OH276303   6.555   0.575  10.902 -0.0347 -0.1224 -0.1247
18271TIP3    H176304   6.584   0.562  10.811 -0.6049  0.1341 -0.3466
18271TIP3    H276305   6.484   0.638  10.896 -0.8784 -0.9988  0.3677
18272TIP3   OH276306   3.452   4.397   3.002 -0.6524  0.6131  0.0499
18272TIP3    H176307   3.474   4.393   2.909 -0.6230 -0.7498  0.0990
18272TIP3    H276308   3.537   4.396   3.047 -0.6917  0.3815  0.1180
18273TIP3   OH276309   1.914   3.473   4.336 -0.3632 -0.1677 -0.0825
18273TIP3    H176310   1.856   3.550   4.336 -2.1982 -1.4961 -0.6292
18273TIP3    H276311   1.860   3.402   4.369  0.7445 -1.6346 -1.2878
18274TIP3   OH276312   5.234   5.263  10.949 -0.2788  0.2052  0.2617
18274TIP3    H176313   5.302   5.310  10.902 -0.0540 -1.5535 -1.2897
18274TIP3    H276314   5.260   5.267  11.041  0.9340  1.0987 -0.1080
18275TIP3   OH276315   3.382   5.597  17.034  0.6485 -0.6022 -0.0223
18275TIP3    H176316   3.361   5.587  16.941 -1.2404  0.3269  0.2586
18275TIP3    H276317   3.367   5.690  17.052  1.0737 -0.7577  1.2050
18276TIP3   OH276318   6.698   3.387   5.223  0.1297 -0.0873 -0.5817
18276TIP3    H176319   6.710   3.293   5.210  0.0745 -0.1778 -0.0067
18276TIP3    H276320   6.655   3.417   5.143  0.3099 -0.5184 -0.8444
18277TIP3   OH276321   2.598   4.095   1.203  0.0819 -0.0041 -0.0574
18277TIP3    H176322   2.619   4.043   1.126  2.3522 -1.1002  1.2015
18277TIP3    H276323   2.668   4.160   1.207 -0.2842  0.3448  0.8180
18278TIP3   OH276324   4.326   5.808  13.299  0.3000 -0.4420  0.1501
18278TIP3    H176325   4.233   5.829  13.309 -0.0504 -1.5863 -0.5021
18278TIP3    H276326   4.362   5.814  13.387 -0.9158 -2.3180  0.8189
18279TIP3   OH276327   0.700   6.632   3.183 -0.0578 -0.5179  0.4272
18279TIP3    H176328   0.790   6.663   3.191  0.0688 -0.6195 -0.4301
18279TIP3    H276329   0.651   6.681   3.248  0.2692  0.9618 -0.4013
18280TIP3   OH276330   2.014   3.861   1.291 -0.2432  0.1585 -0.2649
18280TIP3    H176331   1.970   3.901   1.367 -1.8161  0.0634 -1.1010
18280TIP3    H276332   2.106   3.886   1.302 -0.6992  1.5229  0.8227
18281TIP3   OH276333   4.864   0.337   2.634  0.7239 -0.2118 -0.5296
18281TIP3    H176334   4.878   0.264   2.575  0.2253  0.9693 -2.1791
18281TIP3    H276335   4.951   0.376   2.646  1.0289 -1.1567  0.5337
18282TIP3   OH276336   0.395   6.055  14.758 -0.1023 -0.2443  0.6277
18282TIP3    H176337   0.475   6.103  14.780 -0.0902 -1.0262  2.5099
18282TIP3    H276338   0.421   5.963  14.761 -1.0213 -0.4953  1.0577
18283TIP3   OH276339   6.035   3.032   2.600 -0.0145  0.0470  0.0188
18283TIP3    H176340   6.064   3.102   2.658 -1.4346 -0.3915  1.3175
18283TIP3    H276341   6.116   2.998   2.561  1.0147  0.2992  1.8212
18284TIP3   OH276342   1.665   0.931   6.227  0.6938  0.4744  0.1508
18284TIP3    H176343   1.746   0.963   6.187  0.4813  2.4896  1.1953
18284TIP3    H276344   1.691   0.851   6.272  1.9846  0.7810 -0.0095
18285TIP3   OH276345   4.324   3.443  11.813  0.4063  0.0675  0.4489
18285TIP3    H176346   4.318   3.356  11.853 -1.6612 -0.1003 -0.1221
18285TIP3    H276347   4.415   3.469  11.826  1.0076 -2.0700  0.8461
18286TIP3   OH276348   0.512   4.612   3.474  0.4081  0.0038 -0.2301
18286TIP3    H176349   0.419   4.619   3.492  0.4855 -0.0087  0.1922
18286TIP3    H276350   0.520   4.625   3.380 -0.1258 -1.0242 -0.4305
18287TIP3   OH276351   0.446   6.263  15.214 -0.3710 -0.5643  0.5070
18287TIP3    H176352   0.420   6.353  15.196  0.0112 -0.7088 -0.8822
18287TIP3    H276353   0.363   6.216  15.225 -0.5675  0.1268  2.3182
18288TIP3   OH276354   1.854   2.470   3.851 -0.3712 -0.0206 -0.2471
18288TIP3    H176355   1.842   2.410   3.925 -0.1031  1.1360  0.7540
18288TIP3    H276356   1.766   2.502   3.832 -0.3723  0.0576 -0.1107
18289TIP3   OH276357   5.174   4.260   0.839 -0.2220 -0.2113  0.7746
18289TIP3    H176358   5.100   4.241   0.897 -0.2882  1.0997  1.1701
18289TIP3    H276359   5.139   4.247   0.751 -0.7188 -0.2815  0.9769
18290TIP3   OH276360   0.551   0.254   4.324 -0.0796 -0.1767 -0.2078
18290TIP3    H176361   0.545   0.162   4.349 -1.3993 -0.7933 -2.5448
18290TIP3    H276362   0.635   0.283   4.360 -0.0820 -1.9935  1.4183
18291TIP3   OH276363   0.199   2.885  12.759  0.9282 -0.0066  0.2330
18291TIP3    H176364   0.234   2.963  12.802  1.5216 -0.1605  0.0499
18291TIP3    H276365   0.164   2.918  12.676  0.9617  0.0996  0.2600
18292TIP3   OH276366   2.779   6.223   1.542  0.2623 -0.2846  0.2530
18292TIP3    H176367   2.741   6.307   1.570  0.9577  0.1921 -0.1829
18292TIP3    H276368   2.718   6.157   1.573 -0.8513  0.4510 -0.3083
18293TIP3   OH276369   0.328   2.656  16.229 -0.5724  1.0028  0.1803
18293TIP3    H176370   0.294   2.597  16.296  1.5191 -0.4808  0.0391
18293TIP3    H276371   0.424   2.649  16.238 -0.2292  1.0621 -2.6787
18294TIP3   OH276372   6.792   3.531   1.320 -0.5343  0.3711 -0.4735
18294TIP3    H176373   6.747   3.500   1.399 -0.0113  3.1577  1.0639
18294TIP3    H276374   6.724   3.577   1.271 -0.3980  0.5083 -0.5326
18295TIP3   OH276375   2.473   6.022   5.833  0.4087  0.3405  0.4313
18295TIP3    H176376   2.474   5.951   5.898 -0.5248  0.7391  0.9126
18295TIP3    H276377   2.444   5.980   5.752 -0.8624  0.2748  0.8877
18296TIP3   OH276378   4.592   3.443  14.160  0.3670  0.0381 -0.3954
18296TIP3    H176379   4.531   3.381  14.201 -0.6767  0.1886 -1.6563
18296TIP3    H276380   4.676   3.397  14.159 -0.2196 -1.0626 -0.6107
18297TIP3   OH276381   4.528   0.940  14.705 -1.1058  0.0469 -0.3950
18297TIP3    H176382   4.618   0.918  14.729 -1.1161  0.4907  0.0830
18297TIP3    H276383   4.535   1.026  14.663 -1.3576  0.2793  0.0378
18298TIP3   OH276384   0.203   0.136   5.412 -0.2183 -0.1839  0.2183
18298TIP3    H176385   0.143   0.210   5.402 -1.0050 -0.7778  0.3838
18298TIP3    H276386   0.156   0.062   5.374  0.9837 -0.4060 -0.9058
18299TIP3   OH276387   5.002   0.618  12.590  0.2755 -0.3041 -0.3427
18299TIP3    H176388   5.015   0.603  12.684 -1.0944  0.8599  0.0874
18299TIP3    H276389   4.997   0.714  12.583 -0.8129 -0.4226 -1.4078
18300TIP3   OH276390   4.519   6.001   4.514  0.2519  0.0864  0.5512
18300TIP3    H176391   4.600   6.016   4.562 -0.0493  2.4355  0.4442
18300TIP3    H276392   4.451   5.995   4.581  0.2362  0.3047  0.5561
18301TIP3   OH276393   3.500   6.162   1.017 -0.5380  0.2841  0.2399
18301TIP3    H176394   3.504   6.241   0.963 -0.6792 -0.5750 -1.0998
18301TIP3    H276395   3.440   6.104   0.970 -1.3261 -0.2045  1.7825
18302TIP3   OH276396   3.905   2.649  10.867 -0.3455 -0.1200  0.0938
18302TIP3    H176397   3.927   2.576  10.809 -0.6525  0.4023 -0.6924
18302TIP3    H276398   3.817   2.676  10.840 -1.1390 -0.8472  1.8220
18303TIP3   OH276399   2.079   3.236   1.618  0.2341  0.2074  0.3193
18303TIP3    H176400   2.025   3.162   1.643 -0.2541  0.0909 -0.9778
18303TIP3    H276401   2.025   3.285   1.555  2.0933 -0.6774 -2.1247
18304TIP3   OH276402   3.170   4.175  12.329 -0.5011  0.2438  0.6774
18304TIP3    H176403   3.146   4.241  12.393 -1.3305 -0.7514  1.4339
18304TIP3    H276404   3.249   4.134  12.365 -0.1563  0.6084  0.3518
18305TIP3   OH276405   5.313   3.713   3.749 -0.1368 -0.6326  0.1474
18305TIP3    H176406   5.375   3.782   3.724  0.9377 -1.5851  0.0858
18305TIP3    H276407   5.228   3.757   3.752  0.5566  0.7430  0.3676
18306TIP3   OH276408   6.330   0.925  12.011 -0.2525 -0.3211 -0.1813
18306TIP3    H176409   6.412   0.969  12.033  0.7224 -0.7890 -2.5692
18306TIP3    H276410   6.263   0.975  12.057  1.2930  0.3363  1.4873
18307TIP3   OH276411   5.710   1.085  16.705 -0.2511  0.3828 -0.2018
18307TIP3    H176412   5.805   1.096  16.701 -0.2809  0.2750 -1.4671
18307TIP3    H276413   5.677   1.169  16.737  0.2550  0.4194  0.2440
18308TIP3   OH276414   3.353   4.961  12.804 -0.0433 -0.4480  0.1554
18308TIP3    H176415   3.288   4.973  12.874 -0.2981 -1.3441  0.0737
18308TIP3    H276416   3.341   5.037  12.748 -1.2365 -0.7552 -0.0215
18309TIP3   OH276417   2.503   2.623  11.114  0.1555  0.4147  0.0015
18309TIP3    H176418   2.505   2.529  11.130 -0.5786  0.4875  0.5627
18309TIP3    H276419   2.580   2.657  11.160  0.2781  0.1210  0.0148
18310TIP3   OH276420   2.812   1.411   3.327 -0.5963  0.4606 -0.0860
18310TIP3    H176421   2.839   1.330   3.371 -0.6593  0.4393 -0.0865
18310TIP3    H276422   2.848   1.480   3.382 -0.8747  0.4363  0.1274
18311TIP3   OH276423   5.739   1.679   5.450  0.2012 -0.0109  0.2253
18311TIP3    H176424   5.825   1.649   5.419 -0.7841 -1.6566 -1.1083
18311TIP3    H276425   5.759   1.744   5.516  2.4857 -0.2932 -0.0974
18312TIP3   OH276426   3.980   5.972  13.520 -0.6973 -0.3321  0.7836
18312TIP3    H176427   4.040   5.976  13.595  0.1317 -0.1655  0.1302
18312TIP3    H276428   3.971   6.064  13.493 -1.7276 -0.2892  1.2360
18313TIP3   OH276429   2.466   3.688  11.663 -0.3504 -0.1611  0.0583
18313TIP3    H176430   2.414   3.716  11.588  1.6918  1.0435 -1.0139
18313TIP3    H276431   2.411   3.708  11.739 -1.4934  0.9671 -1.0056
18314TIP3   OH276432   4.827   2.051   3.088  0.4930 -0.4725 -0.6265
18314TIP3    H176433   4.800   1.995   3.015  1.7303  1.7529 -2.9425
18314TIP3    H276434   4.907   2.093   3.057 -0.6161  2.9389  0.7327
18315TIP3   OH276435   5.087   6.451  16.729  0.6245  0.6444  0.8316
18315TIP3    H176436   5.170   6.499  16.739  0.8869  0.1627  1.0335
18315TIP3    H276437   5.029   6.490  16.794  0.9184  0.5302  1.1758
18316TIP3   OH276438   5.438   4.463   5.519 -0.0700 -0.1320  0.4238
18316TIP3    H176439   5.428   4.558   5.525  0.1734  0.0238 -1.1231
18316TIP3    H276440   5.413   4.430   5.606 -1.0413  1.2586  0.7026
18317TIP3   OH276441   3.308   3.365  12.386  0.1401 -0.4124 -0.9811
18317TIP3    H176442   3.311   3.391  12.293 -1.8248  1.2868 -0.6520
18317TIP3    H276443   3.352   3.435  12.432 -2.8849  1.2364 -0.3134
18318TIP3   OH276444   1.977   2.968   0.342 -0.0070 -0.4421 -0.0394
18318TIP3    H176445   1.946   2.959   0.432  0.4981  4.3488  0.8817
18318TIP3    H276446   1.897   2.967   0.289 -0.6132 -0.2530  0.8425
18319TIP3   OH276447   5.156   0.237  15.519 -0.8094  0.1791  0.2784
18319TIP3    H176448   5.249   0.259  15.518 -0.5786 -0.5832  1.7882
18319TIP3    H276449   5.121   0.275  15.438  0.7911  0.5215 -0.2816
18320TIP3   OH276450   0.294   2.625  13.650  0.4739  0.0925 -0.1218
18320TIP3    H176451   0.346   2.614  13.730 -1.4522  0.0532  1.1891
18320TIP3    H276452   0.272   2.536  13.623 -0.3523  0.1399  0.3517
18321TIP3   OH276453   3.254   2.849   0.885 -0.2170 -0.1914  0.4106
18321TIP3    H176454   3.197   2.794   0.939 -0.3106 -0.4972  0.0009
18321TIP3    H276455   3.224   2.834   0.795  0.7474 -0.6464  0.1543
18322TIP3   OH276456   0.668   3.923  15.316  0.4992 -0.1861  0.1694
18322TIP3    H176457   0.727   3.975  15.261  0.5570  1.1475  1.4107
18322TIP3    H276458   0.672   3.966  15.402 -0.1356 -1.7570  1.0289
18323TIP3   OH276459   1.625   1.628  12.874  0.2426 -0.0794  0.3065
18323TIP3    H176460   1.530   1.633  12.879  0.2037 -1.5635  2.0875
18323TIP3    H276461   1.656   1.661  12.958  1.3050  0.2515 -0.1873
18324TIP3   OH276462   6.054   6.019  14.923 -0.4634  0.0975 -0.6553
18324TIP3    H176463   6.002   5.943  14.949 -0.9355  1.1310  1.7073
18324TIP3    H276464   6.130   6.016  14.981 -0.4625  1.3844 -0.5760
18325TIP3   OH276465   0.106   2.291  16.303  0.2869 -0.3368  0.0123
18325TIP3    H176466   0.135   2.321  16.217 -1.5649  1.3379 -0.0954
18325TIP3    H276467   0.035   2.229  16.285 -0.7096  0.6888  0.3010
18326TIP3   OH276468   3.600   4.888  12.959  0.2630  1.0664 -0.0786
18326TIP3    H176469   3.654   4.823  12.914 -0.0056  0.2716  0.7352
18326TIP3    H276470   3.524   4.900  12.902 -0.4963 -0.5715  0.5556
18327TIP3   OH276471   3.574   4.653   1.721 -0.2385 -0.0435  0.6431
18327TIP3    H176472   3.634   4.689   1.787  0.0036  1.2072 -0.2180
18327TIP3    H276473   3.564   4.561   1.746  2.0554 -0.3170  0.8208
18328TIP3   OH276474   1.450   0.615  10.814  0.4664  0.2789 -0.2716
18328TIP3    H176475   1.506   0.576  10.881 -1.2356  0.9957  1.6837
18328TIP3    H276476   1.498   0.691  10.782  0.9015  0.4937  0.8623
18329TIP3   OH276477   4.869   0.964   0.279  0.2176  0.0567  0.4988
18329TIP3    H176478   4.942   1.017   0.248  0.4592  0.0499  1.0437
18329TIP3    H276479   4.802   1.028   0.305 -0.7578  0.0425 -1.8139
18330TIP3   OH276480   6.474   3.084   2.126  0.6969  0.4532  0.3155
18330TIP3    H176481   6.414   3.045   2.063 -0.7744  0.8305  1.4248
18330TIP3    H276482   6.553   3.103   2.076  0.7057 -2.0090 -0.7077
18331TIP3   OH276483   5.149   1.006   1.276 -0.3843  0.0990  0.2135
18331TIP3    H176484   5.137   1.101   1.284 -2.0291 -0.0276 -0.4349
18331TIP3    H276485   5.244   0.995   1.275 -0.1110  1.9129 -1.4364
18332TIP3   OH276486   4.997   6.361  16.006 -0.0540 -0.0340 -0.2263
18332TIP3    H176487   4.950   6.342  15.925  0.4147  0.5053 -0.6301
18332TIP3    H276488   4.978   6.453  16.024  0.3628  0.0213 -0.0630
18333TIP3   OH276489   1.812   4.368  13.480  0.4212  0.1276 -0.3093
18333TIP3    H176490   1.870   4.389  13.553  0.2455  0.2190 -0.1941
18333TIP3    H276491   1.781   4.279  13.497 -2.0314  1.1879  1.3820
18334TIP3   OH276492   2.372   4.556   5.224  0.5823 -0.5034 -0.2352
18334TIP3    H176493   2.400   4.465   5.218 -1.8376 -1.3746  0.3111
18334TIP3    H276494   2.334   4.576   5.139  0.6457 -0.1910 -0.1914
18335TIP3   OH276495   6.272   6.339  16.709 -0.0475  0.1335 -0.3413
18335TIP3    H176496   6.198   6.279  16.708  0.7383 -0.8829  0.7065
18335TIP3    H276497   6.236   6.422  16.677 -1.5600 -0.4188 -0.1237
18336TIP3   OH276498   2.034   2.140  12.171 -0.0032 -0.3154 -0.0971
18336TIP3    H176499   2.002   2.116  12.258 -0.2281 -0.6821 -0.2782
18336TIP3    H276500   1.956   2.145  12.117  0.2407 -1.4624 -0.5953
18337TIP3   OH276501   0.146   4.991  13.949 -0.2950  0.4520 -0.1495
18337TIP3    H176502   0.189   5.038  14.020  1.4706 -0.0168 -0.8452
18337TIP3    H276503   0.203   5.007  13.873 -1.2210 -0.4394 -1.0491
18338TIP3   OH276504   0.360   4.203   5.039 -0.6474 -0.2976 -0.7354
18338TIP3    H176505   0.444   4.190   4.994 -0.0077 -0.2914  0.4277
18338TIP3    H276506   0.382   4.252   5.118 -1.5253 -1.5702  0.3535
18339TIP3   OH276507   3.174   5.451   3.253 -0.5439 -0.3906 -0.0887
18339TIP3    H176508   3.090   5.412   3.278  0.2451 -1.1289  1.6769
18339TIP3    H276509   3.204   5.398   3.179 -1.2129 -0.7292 -0.1256
18340TIP3   OH276510   6.621   3.487  15.453  0.4531 -0.3478 -0.3022
18340TIP3    H176511   6.575   3.477  15.536 -0.2837  2.2036 -0.3208
18340TIP3    H276512   6.554   3.521  15.393  1.1913 -1.3135 -1.7261
18341TIP3   OH276513   1.272   4.352  12.752  0.0451  0.1383 -0.0380
18341TIP3    H176514   1.303   4.330  12.664 -1.3052 -1.8304 -0.0935
18341TIP3    H276515   1.179   4.332  12.750 -0.6896  2.9744  0.9969
18342TIP3   OH276516   4.015   1.643  16.590 -0.1881  0.2959 -0.1166
18342TIP3    H176517   4.024   1.660  16.496  0.5432  0.8364  0.0464
18342TIP3    H276518   4.102   1.656  16.626 -0.6012  0.7653  0.7540
18343TIP3   OH276519   4.508   5.289  14.665  1.1317  0.0514 -0.0517
18343TIP3    H176520   4.420   5.301  14.629  1.0040  0.6753  0.4424
18343TIP3    H276521   4.524   5.368  14.717  1.2715 -0.8466  1.3347
18344TIP3   OH276522   1.019   5.745   1.462  0.1381  0.5036 -0.4930
18344TIP3    H176523   1.012   5.840   1.470  2.9030  0.6883  0.7834
18344TIP3    H276524   1.110   5.729   1.438 -0.1515 -1.8589 -0.2651
18345TIP3   OH276525   5.030   2.244  15.300 -0.5462 -0.5006  0.7720
18345TIP3    H176526   5.015   2.275  15.210 -0.2792 -0.9434  0.5703
18345TIP3    H276527   5.040   2.324  15.351 -1.6820 -0.2226  0.5836
18346TIP3   OH276528   1.296   5.620  12.207  0.1223  0.3255  0.0872
18346TIP3    H176529   1.249   5.588  12.284 -0.1506 -0.9904 -0.5978
18346TIP3    H276530   1.227   5.634  12.142  0.6670 -2.9589 -1.4059
18347TIP3   OH276531   0.676   3.585  12.414  0.7577  0.4677 -0.5462
18347TIP3    H176532   0.587   3.556  12.395  0.6713  0.4620 -0.1439
18347TIP3    H276533   0.706   3.626  12.333 -1.4118  4.9698  0.5939
18348TIP3   OH276534   5.602   2.450  11.736  0.2422  0.1456 -0.7563
18348TIP3    H176535   5.523   2.504  11.733 -0.4545 -0.8246 -0.3048
18348TIP3    H276536   5.644   2.474  11.819 -2.0429 -2.6177  1.4258
18349TIP3   OH276537   6.204   2.269   2.335 -0.2953 -0.9334  0.4102
18349TIP3    H176538   6.271   2.264   2.266 -0.4581  0.6696  0.0891
18349TIP3    H276539   6.122   2.253   2.289 -0.3313 -0.6603  0.3783
18350TIP3   OH276540   0.895   1.025  13.720 -0.6467 -0.5139  0.1820
18350TIP3    H176541   0.864   0.948  13.768 -0.1984 -0.8262 -0.0243
18350TIP3    H276542   0.977   1.049  13.763 -0.9403  0.0492  0.4496
18351TIP3   OH276543   5.385   1.991  13.435 -0.1908  0.1602  1.4917
18351TIP3    H176544   5.437   2.014  13.512  0.7316 -0.2567  1.0071
18351TIP3    H276545   5.440   2.017  13.360 -0.5913 -0.4679  0.9725
18352TIP3   OH276546   1.018   5.371   0.255 -0.0276 -0.2455  0.1696
18352TIP3    H176547   1.026   5.430   0.180  1.6580 -1.0435 -0.3195
18352TIP3    H276548   0.939   5.321   0.237  1.4659 -1.9486 -2.2647
18353TIP3   OH276549   2.683   0.047   5.161 -0.0847 -0.6389  0.6227
18353TIP3    H176550   2.657   0.055   5.070 -0.3323 -0.1960  0.7270
18353TIP3    H276551   2.629  -0.024   5.196 -0.4574 -0.3738  0.5886
18354TIP3   OH276552   2.622   2.657  11.444  0.5226  0.1886 -0.4714
18354TIP3    H176553   2.661   2.658  11.356  1.0006 -0.3097 -0.2696
18354TIP3    H276554   2.567   2.578  11.444  2.2926 -1.1130  0.4164
18355TIP3   OH276555   1.335   1.808   6.189 -0.0543 -0.4978 -0.0343
18355TIP3    H176556   1.418   1.763   6.205  1.0487  0.8574 -1.6198
18355TIP3    H276557   1.290   1.807   6.274  1.2626 -1.8581  0.6901
18356TIP3   OH276558   2.256   6.553   4.799  0.2951  0.0859  0.0297
18356TIP3    H176559   2.223   6.538   4.888  0.9847  0.7603  0.4131
18356TIP3    H276560   2.346   6.521   4.802  1.0896  2.1493  0.2522
18357TIP3   OH276561   5.287   2.640  15.872 -0.0938 -0.1284  0.4385
18357TIP3    H176562   5.253   2.553  15.896  0.1266 -0.4630 -0.4306
18357TIP3    H276563   5.209   2.696  15.871 -0.2375 -0.3072  1.0140
18358TIP3   OH276564   4.851   6.717  11.675 -0.1695 -0.3400  0.3642
18358TIP3    H176565   4.912   6.790  11.671  0.4491 -0.8936 -1.1021
18358TIP3    H276566   4.834   6.695  11.583 -0.2376 -2.0901  0.7573
18359TIP3   OH276567   4.067   4.178   0.755 -0.0534  0.0095  0.0802
18359TIP3    H176568   4.020   4.107   0.799 -0.7003  0.6058  0.3624
18359TIP3    H276569   4.036   4.174   0.664  1.7770 -1.6506 -0.5587
18360TIP3   OH276570   6.666   1.345  17.156  0.2096  0.3193  0.3940
18360TIP3    H176571   6.705   1.358  17.243  2.0979 -2.3524  0.0768
18360TIP3    H276572   6.572   1.343  17.172  0.2672  3.3967  1.7700
18361TIP3   OH276573   6.368   1.906  12.959  0.0606 -0.2518  0.0155
18361TIP3    H176574   6.295   1.849  12.938  0.0221 -0.7602  1.4736
18361TIP3    H276575   6.443   1.867  12.914 -0.5445  0.3323 -1.5713
18362TIP3   OH276576   0.805   5.961  14.613  0.0287 -0.1447 -0.3672
18362TIP3    H176577   0.859   5.997  14.683  0.6754 -1.1365 -0.3337
18362TIP3    H276578   0.756   5.891  14.654 -1.0204  0.4954 -0.4912
18363TIP3   OH276579   0.592   0.997   5.574  0.5137  0.0711 -0.6144
18363TIP3    H176580   0.562   1.007   5.483  0.7841  1.5701 -0.5710
18363TIP3    H276581   0.512   0.994   5.626  0.3727  0.9834 -0.7639
18364TIP3   OH276582   2.397   4.270  12.115 -0.1730 -0.0282  0.0476
18364TIP3    H176583   2.426   4.347  12.064 -1.9404  0.6728  0.0335
18364TIP3    H276584   2.414   4.294  12.206  0.9676 -0.3981 -0.0456
18365TIP3   OH276585   1.778   6.008   1.699  0.1083 -0.4717 -0.4112
18365TIP3    H176586   1.705   6.016   1.638 -0.1515 -2.5086 -0.4387
18365TIP3    H276587   1.740   6.025   1.785  0.0497  0.4223 -0.6017
18366TIP3   OH276588   3.783   4.158   6.566  0.6583 -0.0049 -0.3555
18366TIP3    H176589   3.719   4.125   6.504  0.9254  1.7129 -1.6342
18366TIP3    H276590   3.821   4.080   6.606 -1.9820 -1.0844  0.2634
18367TIP3   OH276591   3.272   5.460   3.542 -0.6863  0.8123  0.4408
18367TIP3    H176592   3.259   5.475   3.448  0.4307 -0.3392  0.0736
18367TIP3    H276593   3.300   5.369   3.548 -0.9701  0.8001  1.9291
18368TIP3   OH276594   0.647   0.548   3.986 -0.2008  0.3076  0.2969
18368TIP3    H176595   0.734   0.546   4.024 -0.4029 -1.5221  0.7324
18368TIP3    H276596   0.648   0.624   3.927  2.1233 -0.4590 -0.7492
18369TIP3   OH276597   6.391   6.002   0.438  0.2228  0.1505 -0.1600
18369TIP3    H176598   6.448   5.933   0.471  2.9230  2.9058  1.5123
18369TIP3    H276599   6.362   6.049   0.517 -2.0258  0.6026 -1.1836
18370TIP3   OH276600   1.175   1.789   6.419 -0.5215  0.1090 -0.2902
18370TIP3    H176601   1.090   1.756   6.389 -0.7036  0.5167 -0.2309
18370TIP3    H276602   1.155   1.871   6.463 -0.0135  0.6345 -0.9977
18371TIP3   OH276603   2.384   1.839  10.700 -0.0150  0.0710  0.1576
18371TIP3    H176604   2.462   1.784  10.697  0.8319  1.2017  0.6997
18371TIP3    H276605   2.405   1.907  10.764 -2.5531 -1.2177  2.5444
18372TIP3   OH276606   2.819   3.281   1.293 -0.3213  0.0476  0.4398
18372TIP3    H176607   2.812   3.357   1.350  2.1930  0.2507  0.5574
18372TIP3    H276608   2.896   3.234   1.324 -0.9984 -1.8028 -0.5212
18373TIP3   OH276609   5.084   2.488  15.999  0.1600 -0.5449  0.0047
18373TIP3    H176610   5.070   2.574  16.037 -1.6816 -1.1694  0.8598
18373TIP3    H276611   5.094   2.430  16.075  0.3684 -1.2426 -0.5424
18374TIP3   OH276612   0.325   1.731  12.145 -0.1013 -0.3063  0.4594
18374TIP3    H176613   0.233   1.750  12.162 -0.3658  0.1017 -1.2680
18374TIP3    H276614   0.333   1.637  12.159 -0.7514 -0.3303  0.6950
18375TIP3   OH276615   3.634   5.179  15.983  0.5574 -0.0190  0.0876
18375TIP3    H176616   3.629   5.144  16.072  0.2305 -0.9132 -0.2677
18375TIP3    H276617   3.594   5.111  15.929  2.6466 -0.4596 -1.0090
18376TIP3   OH276618   0.600   4.188   4.871  0.5797  0.0675 -0.2429
18376TIP3    H176619   0.597   4.142   4.787 -0.0479  0.7073 -0.5763
18376TIP3    H276620   0.669   4.254   4.860 -1.8787  2.6245 -1.5874
18377TIP3   OH276621   2.794   4.068   5.039 -0.4652 -0.4951  0.2924
18377TIP3    H176622   2.837   4.105   5.116 -0.5176  0.5327 -0.1496
18377TIP3    H276623   2.865   4.029   4.988 -0.2975 -0.3720  0.4304
18378TIP3   OH276624   5.341   3.013  17.048  0.4913 -0.4652  0.1711
18378TIP3    H176625   5.285   2.957  17.103 -0.4708 -0.1812 -0.4853
18378TIP3    H276626   5.284   3.039  16.975  1.7782 -0.9102 -1.0207
18379TIP3   OH276627   5.919   3.065   5.261  0.5508  0.0903 -0.6237
18379TIP3    H176628   6.011   3.065   5.285  0.4408 -1.7531 -0.0363
18379TIP3    H276629   5.882   3.140   5.307  1.5110  0.1045  0.1559
18380TIP3   OH276630   5.866   4.495   4.357 -0.4391  0.3836 -0.0365
18380TIP3    H176631   5.874   4.442   4.437 -0.7591  0.3677 -0.0132
18380TIP3    H276632   5.786   4.463   4.316 -0.0080  0.0413 -0.6293
18381TIP3   OH276633   4.718   5.649   2.048 -0.4947  0.3039  0.0519
18381TIP3    H176634   4.766   5.589   2.105  0.1798  0.8117  0.0292
18381TIP3    H276635   4.756   5.635   1.961 -0.2715  0.8266  0.0635
18382TIP3   OH276636   6.148   1.448  15.353 -0.6407 -0.4670  0.1422
18382TIP3    H176637   6.073   1.503  15.374  0.7928  1.8110 -0.3889
18382TIP3    H276638   6.181   1.420  15.439 -0.9365  0.1665  0.4736
18383TIP3   OH276639   2.508   0.953   4.497 -0.1615 -0.6690  0.9109
18383TIP3    H176640   2.545   0.896   4.429  0.3957 -0.0922  0.7121
18383TIP3    H276641   2.581   0.971   4.556  1.1282  3.4803 -1.4640
18384TIP3   OH276642   4.074   5.163  11.720 -0.3896 -0.1539  0.4831
18384TIP3    H176643   4.155   5.112  11.711  0.0818  0.3592  1.6512
18384TIP3    H276644   4.040   5.170  11.631  0.8223 -0.4273 -0.0194
18385TIP3   OH276645   5.800   2.890  13.620 -0.0073  0.0882  0.4295
18385TIP3    H176646   5.859   2.875  13.694  0.0718 -2.4587 -0.0588
18385TIP3    H276647   5.858   2.915  13.548  0.0954  0.9137  0.7918
18386TIP3   OH276648   3.946   0.334   1.223 -0.1569 -0.8112 -0.2678
18386TIP3    H176649   3.971   0.421   1.191  0.0057 -0.9640 -0.5550
18386TIP3    H276650   4.026   0.282   1.216 -0.6103 -1.3789 -1.4401
18387TIP3   OH276651   1.648   6.701  10.474 -0.1917 -0.3070  0.1113
18387TIP3    H176652   1.675   6.609  10.477 -0.4611 -0.4051 -0.3255
18387TIP3    H276653   1.710   6.746  10.531  0.1250 -0.7185  0.0985
18388TIP3   OH276654   5.481   5.976  14.585  0.3364 -0.3136 -0.4575
18388TIP3    H176655   5.504   5.966  14.493  2.0088 -0.6186 -0.0452
18388TIP3    H276656   5.553   5.933  14.632  1.0510  2.3600  1.0686
18389TIP3   OH276657   4.751   4.153  11.248  0.0389  0.4160  0.2865
18389TIP3    H176658   4.805   4.083  11.284  0.3687  1.2773  1.5705
18389TIP3    H276659   4.775   4.157  11.155 -0.2051 -1.3264  0.1221
18390TIP3   OH276660   4.928   0.202  12.908 -0.1751 -0.5913  0.1277
18390TIP3    H176661   4.888   0.208  12.821  0.4787  1.0713 -0.0898
18390TIP3    H276662   5.021   0.187  12.891 -0.0735 -0.4461  0.5415
18391TIP3   OH276663   3.158   3.012   4.450 -0.6161 -0.2811  0.3351
18391TIP3    H176664   3.068   3.024   4.422 -0.2800  3.0865  0.3251
18391TIP3    H276665   3.200   2.964   4.379 -1.6925  0.9062 -1.1569
18392TIP3   OH276666   2.809   3.085   2.634 -0.3152  0.2448 -0.4474
18392TIP3    H176667   2.714   3.075   2.623 -0.3337  1.2219 -1.2957
18392TIP3    H276668   2.818   3.149   2.704 -0.2891  0.5589 -0.7372
18393TIP3   OH276669   6.312   1.552   5.116 -0.6700 -0.1718 -0.0128
18393TIP3    H176670   6.347   1.639   5.136 -1.1151  0.8214 -3.1543
18393TIP3    H276671   6.259   1.529   5.193 -0.7210  2.4166  0.7974
18394TIP3   OH276672   4.008   5.546   5.775 -0.4828  0.5347 -0.0636
18394TIP3    H176673   4.067   5.490   5.826  1.3155  0.5753 -1.9577
18394TIP3    H276674   4.004   5.628   5.823 -1.1398 -0.3551  1.4534
18395TIP3   OH276675   4.411   4.446   1.039 -0.2320 -0.1706 -0.5539
18395TIP3    H176676   4.501   4.434   1.069  0.1573  2.6004 -0.3302
18395TIP3    H276677   4.357   4.421   1.114  0.5073  0.9880  0.4085
18396TIP3   OH276678   1.393   6.323   5.700  0.0477 -0.0849 -0.0545
18396TIP3    H176679   1.423   6.411   5.722  1.7049 -0.2517 -1.4125
18396TIP3    H276680   1.320   6.336   5.640 -0.4754  0.3453  0.6628
18397TIP3   OH276681   1.512   1.645  10.491 -0.4505  0.4425  0.1745
18397TIP3    H176682   1.485   1.556  10.512  0.3908  0.1351 -0.0265
18397TIP3    H276683   1.439   1.680  10.440  0.9640 -1.5995 -3.5894
18398TIP3   OH276684   3.256   1.201   5.404 -0.1182 -0.1006  0.1720
18398TIP3    H176685   3.295   1.250   5.332 -0.9034 -1.4053 -1.1963
18398TIP3    H276686   3.259   1.110   5.376  0.0031 -0.7116  2.0256
18399TIP3   OH276687   3.792   5.286   4.748  0.2193  0.2834 -0.6129
18399TIP3    H176688   3.789   5.362   4.691  2.0828  0.8298 -0.0653
18399TIP3    H276689   3.855   5.310   4.816 -0.6500 -0.9985  0.7023
18400TIP3   OH276690   3.352   6.473  15.703  0.3261  0.3981  0.4381
18400TIP3    H176691   3.331   6.552  15.653  0.4364 -0.4835 -1.0701
18400TIP3    H276692   3.299   6.480  15.782 -0.1939  1.6334  0.0068
18401TIP3   OH276693   3.602   5.761  14.816 -0.1668 -0.4286 -0.5732
18401TIP3    H176694   3.534   5.698  14.793  0.1055 -0.5409 -1.0950
18401TIP3    H276695   3.684   5.716  14.795  0.1140 -0.6408  0.8958
18402TIP3   OH276696   6.629   6.308   2.774  0.7553  0.2273  0.1770
18402TIP3    H176697   6.708   6.344   2.734  1.4109 -1.5805 -0.2668
18402TIP3    H276698   6.588   6.257   2.704 -0.1623  0.1882  0.7335
18403TIP3   OH276699   0.742   2.211  13.458 -0.3922  0.5351 -0.4176
18403TIP3    H176700   0.682   2.279  13.491 -1.1852  0.0377 -0.8232
18403TIP3    H276701   0.714   2.195  13.369 -1.3507 -1.5659  0.2034
18404TIP3   OH276702   0.900   1.372   2.175 -0.6933 -0.0958  0.1425
18404TIP3    H176703   0.862   1.307   2.117 -0.9272  1.0284 -1.0147
18404TIP3    H276704   0.851   1.364   2.256 -0.2959 -1.7671  0.2508
18405TIP3   OH276705   4.680   2.987  12.881  0.4480 -0.1544 -0.0722
18405TIP3    H176706   4.594   3.027  12.868  1.1761  1.8089  0.8864
18405TIP3    H276707   4.703   2.952  12.795 -1.2810 -0.7054 -0.3470
18406TIP3   OH276708   6.028   6.110   5.822 -0.0898 -0.0312 -0.2633
18406TIP3    H176709   5.987   6.155   5.896  1.0703  0.4731  0.1027
18406TIP3    H276710   6.122   6.128   5.832  0.2455 -1.2156 -1.0128
18407TIP3   OH276711   1.188   6.187  14.050  0.2503  0.2823 -0.2253
18407TIP3    H176712   1.100   6.157  14.073  0.8755 -1.3236  0.1514
18407TIP3    H276713   1.238   6.181  14.131  0.6102  1.6754 -0.3185
18408TIP3   OH276714   4.145   2.629   4.387 -0.0611 -0.0212 -0.2552
18408TIP3    H176715   4.058   2.670   4.386 -0.7602 -1.4256 -0.6044
18408TIP3    H276716   4.168   2.623   4.479 -1.2587 -1.4049 -0.0024
18409TIP3   OH276717   5.860   2.838   0.666 -0.8550 -0.2268 -0.2448
18409TIP3    H176718   5.775   2.796   0.670 -2.1780  1.9935 -2.1689
18409TIP3    H276719   5.881   2.840   0.573  1.7542 -1.4379  0.2324
18410TIP3   OH276720   2.158   2.850  11.985 -0.0145  0.8607  0.4546
18410TIP3    H176721   2.241   2.809  11.961  0.1702  0.7450  1.2419
18410TIP3    H276722   2.162   2.938  11.949 -0.5792  0.1082 -1.6179
18411TIP3   OH276723   3.431   6.808   6.345  0.3509 -0.4767 -0.0238
18411TIP3    H176724   3.426   6.888   6.293 -2.6727 -1.6219 -1.7364
18411TIP3    H276725   3.429   6.838   6.436 -0.8741  1.4290 -0.6206
18412TIP3   OH276726   6.810   5.130   4.854 -0.0139  0.4911 -0.1541
18412TIP3    H176727   6.789   5.205   4.909 -0.5684  0.5644 -0.4652
18412TIP3    H276728   6.736   5.122   4.793  0.4272  0.2051 -0.6670
18413TIP3   OH276729   3.689   1.669  16.452  0.3822 -0.3278 -0.4329
18413TIP3    H176730   3.629   1.742  16.459 -0.9043 -1.3364 -0.5471
18413TIP3    H276731   3.764   1.703  16.404 -1.0078  0.4194 -2.1531
18414TIP3   OH276732   5.872   3.657  12.501  0.4414  0.0915  0.5488
18414TIP3    H176733   5.959   3.680  12.468 -0.2543  0.3970 -1.1605
18414TIP3    H276734   5.847   3.579  12.453 -0.2824  0.0687  0.9444
18415TIP3   OH276735   2.411   1.326   1.094  0.0045  0.5661 -0.1817
18415TIP3    H176736   2.325   1.287   1.078 -0.2993  0.7303  0.9628
18415TIP3    H276737   2.458   1.261   1.146  0.4274  0.6484 -0.4590
18416TIP3   OH276738   6.352   2.447  13.804 -0.4767 -0.7022  0.1264
18416TIP3    H176739   6.391   2.528  13.771 -0.2191 -0.5888  0.6960
18416TIP3    H276740   6.353   2.388  13.729 -1.5818  0.1310 -0.5806
18417TIP3   OH276741   2.747   1.418   2.378  0.3794  0.0611  0.2817
18417TIP3    H176742   2.816   1.469   2.336  0.4865 -0.9467 -0.8035
18417TIP3    H276743   2.680   1.407   2.310 -0.7217  0.7289  1.2106
18418TIP3   OH276744   2.912   6.765  12.485 -0.1350 -0.5482 -0.1866
18418TIP3    H176745   2.949   6.678  12.497  0.2020 -0.6555 -1.7065
18418TIP3    H276746   2.979   6.824  12.519 -0.8358 -0.8645  1.9022
18419TIP3   OH276747   0.068   1.767   4.582 -0.3841 -0.4746 -0.3249
18419TIP3    H176748   0.148   1.730   4.545 -0.1720  0.3104 -0.6878
18419TIP3    H276749   0.058   1.852   4.537 -0.3571  0.3197  1.1115
18420TIP3   OH276750   6.729   1.137  16.997  0.1009 -0.0465 -0.3556
18420TIP3    H176751   6.706   1.226  17.026 -1.9602 -1.4707  3.0518
18420TIP3    H276752   6.813   1.119  17.040  0.4957  0.2381 -1.0072
18421TIP3   OH276753   0.506   3.157  12.344 -0.0646  0.0484  0.3997
18421TIP3    H176754   0.471   3.076  12.308 -0.4201 -0.1459  1.1601
18421TIP3    H276755   0.589   3.131  12.385 -0.0219  0.1276  0.3642
18422TIP3   OH276756   3.866   1.254   0.223  0.3949  0.2672 -0.1996
18422TIP3    H176757   3.876   1.343   0.190 -1.6373  0.8372  0.6166
18422TIP3    H276758   3.779   1.227   0.195 -0.3223 -0.2377  2.2771
18423TIP3   OH276759   0.449   0.439   5.288 -0.4581 -0.0041 -0.1739
18423TIP3    H176760   0.384   0.448   5.359  0.7446 -0.4967  1.0432
18423TIP3    H276761   0.475   0.529   5.268  0.3590  0.0926  1.1770
18424TIP3   OH276762   5.848   6.356   1.757  0.1136 -0.0139 -0.2752
18424TIP3    H176763   5.841   6.426   1.822  0.8607 -0.4789  0.3188
18424TIP3    H276764   5.788   6.383   1.687 -1.3446  0.0891  0.9518
18425TIP3   OH276765   0.354   1.009   5.005  0.7984  0.3516  0.0487
18425TIP3    H176766   0.266   0.985   5.036  0.2460 -1.2184 -2.4507
18425TIP3    H276767   0.366   1.099   5.034 -0.8852  0.0426  1.9644
18426TIP3   OH276768   0.617   1.791   1.185 -0.2492  0.6445 -0.3405
18426TIP3    H176769   0.631   1.750   1.271 -1.2241  0.9765 -0.0158
18426TIP3    H276770   0.594   1.882   1.205 -0.4065  0.7462 -0.9587
18427TIP3   OH276771   5.724   6.707   5.329 -0.5077  0.0059 -0.2615
18427TIP3    H176772   5.745   6.643   5.261  0.5273  0.8219 -0.7355
18427TIP3    H276773   5.691   6.783   5.282  0.2186  0.5832  0.1273
18428TIP3   OH276774   3.300   5.719   3.248  0.6700  0.0056 -0.2016
18428TIP3    H176775   3.277   5.626   3.242 -1.3252  0.5229 -1.1774
18428TIP3    H276776   3.396   5.720   3.243  0.6539 -1.8666 -2.4161
18429TIP3   OH276777   3.903   2.419  13.056  0.2561 -0.4726  0.4381
18429TIP3    H176778   3.969   2.487  13.040 -1.4851  1.2810  0.3906
18429TIP3    H276779   3.881   2.386  12.969 -0.1417  0.1353  0.3074
18430TIP3   OH276780   0.959   4.234  11.229 -0.3471  0.3072  0.0231
18430TIP3    H176781   0.937   4.322  11.201 -3.2816 -0.1472  0.6387
18430TIP3    H276782   0.925   4.177  11.161 -2.0503 -0.4925  1.4618
18431TIP3   OH276783   1.203   3.479  15.778  0.3196  0.5415  0.4982
18431TIP3    H176784   1.277   3.458  15.835 -0.8431  1.6656  2.5425
18431TIP3    H276785   1.164   3.394  15.757  1.9020 -0.0243 -0.2481
18432TIP3   OH276786   2.916   0.234  11.874  0.4081  0.1029 -0.1203
18432TIP3    H176787   2.850   0.286  11.920  0.6246 -0.6098  1.0581
18432TIP3    H276788   2.991   0.293  11.864  1.0811 -0.2445  2.2392
18433TIP3   OH276789   3.588   6.761   5.864 -0.2349  0.1697 -0.9536
18433TIP3    H176790   3.521   6.819   5.826 -0.0666 -0.4781 -2.3231
18433TIP3    H276791   3.669   6.786   5.819  0.0983 -0.2221 -0.5779
18434TIP3   OH276792   5.587   1.713   2.637 -0.0991  0.2250  0.5832
18434TIP3    H176793   5.508   1.760   2.662  0.6967  2.4739 -0.7678
18434TIP3    H276794   5.658   1.775   2.653  0.9635 -0.2282 -1.8148
18435TIP3   OH276795   1.325   3.826   3.551  0.3257  0.2270  0.0047
18435TIP3    H176796   1.297   3.784   3.632  0.4370  2.6830  1.4165
18435TIP3    H276797   1.416   3.799   3.541  0.5387  0.4835  1.1205
18436TIP3   OH276798   1.357   0.578   0.174 -0.1082 -0.0618 -0.0072
18436TIP3    H176799   1.444   0.590   0.136  0.3812 -1.4959  0.6092
18436TIP3    H276800   1.373   0.550   0.264 -1.2405  1.1672  0.6178
18437TIP3   OH276801   3.805   4.316  13.711 -0.0319 -0.6171 -0.0867
18437TIP3    H176802   3.803   4.409  13.688  0.8843 -0.9018 -1.4650
18437TIP3    H276803   3.878   4.281  13.660  0.3401 -1.8917  1.2538
18438TIP3   OH276804   0.024   2.104  12.308  0.0981 -0.1538 -0.1538
18438TIP3    H176805  -0.068   2.082  12.318  0.0088 -0.2690 -1.1394
18438TIP3    H276806   0.025   2.184  12.255  0.5648 -0.1352 -0.1289
18439TIP3   OH276807   5.789   2.346  11.369  0.0354  0.0079 -0.2451
18439TIP3    H176808   5.810   2.424  11.421  1.6431 -0.2564 -0.4449
18439TIP3    H276809   5.770   2.379  11.282 -1.0376  0.3124  0.0917
18440TIP3   OH276810   4.696   2.762   1.502  0.1064  0.2320  0.3026
18440TIP3    H176811   4.683   2.752   1.596  1.9019 -1.0511  0.4582
18440TIP3    H276812   4.790   2.755   1.489 -0.2086 -1.1479 -1.7409
18441TIP3   OH276813   5.510   3.053   0.603  0.7473 -0.0657  0.7498
18441TIP3    H176814   5.517   3.000   0.524 -1.7298  1.5828 -0.6977
18441TIP3    H276815   5.558   3.134   0.582  1.2500 -0.1640  1.4788
18442TIP3   OH276816   3.523   0.561  15.483  0.0349  0.5290 -0.4431
18442TIP3    H176817   3.539   0.618  15.408 -1.1649  1.6490  0.1075
18442TIP3    H276818   3.454   0.605  15.532 -0.2926 -0.9572  0.4990
18443TIP3   OH276819   0.925   3.731   2.637 -0.2659  0.1878 -0.9626
18443TIP3    H176820   0.982   3.807   2.625 -1.5984  1.4058 -0.0690
18443TIP3    H276821   0.933   3.709   2.730  0.1968 -0.8653 -1.2375
18444TIP3   OH276822   6.205   6.029   3.585 -0.1623  0.2471 -0.6999
18444TIP3    H176823   6.276   6.093   3.592  0.5658 -0.4780 -1.2341
18444TIP3    H276824   6.217   5.990   3.499 -0.4117 -0.8021 -0.2716
18445TIP3   OH276825   1.690   0.285  13.758 -0.3441  0.5218  0.3585
18445TIP3    H176826   1.618   0.347  13.774 -1.0838 -0.3177  0.3731
18445TIP3    H276827   1.658   0.229  13.687  0.4628  0.3722  0.1002
18446TIP3   OH276828   2.866   4.170  12.404  0.2239  0.2576 -0.5309
18446TIP3    H176829   2.899   4.260  12.397  1.5015  0.1179  2.2415
18446TIP3    H276830   2.800   4.174  12.473 -0.0049 -0.8595 -0.6694
18447TIP3   OH276831   6.514   4.447   0.105  0.1707  0.0229 -0.2612
18447TIP3    H176832   6.594   4.491   0.134  0.8822 -1.4360  0.0922
18447TIP3    H276833   6.508   4.370   0.162  0.1530 -1.5105 -2.2386
18448TIP3   OH276834   5.117   3.338  11.743  0.6130 -0.1511 -0.7071
18448TIP3    H176835   5.032   3.295  11.748  0.2845  0.6278  1.3565
18448TIP3    H276836   5.135   3.345  11.649 -0.8406 -1.7463 -1.1436
18449TIP3   OH276837   1.615   2.570  15.148  0.5930 -0.1455  0.1188
18449TIP3    H176838   1.583   2.660  15.154  1.9967  0.5941 -2.0408
18449TIP3    H276839   1.688   2.575  15.086 -0.6721 -3.0976 -1.8687
18450TIP3   OH276840   0.580   3.585   0.842 -0.0901 -0.0604 -0.3258
18450TIP3    H176841   0.509   3.544   0.792 -0.5912  0.0206  0.3005
18450TIP3    H276842   0.618   3.649   0.782 -1.0404  0.4253 -0.4261
18451TIP3   OH276843   5.108   1.071   0.085  0.1425 -0.0948  0.5007
18451TIP3    H176844   5.196   1.044   0.110  0.9852  1.2844 -0.7909
18451TIP3    H276845   5.088   1.019   0.007 -0.3282 -0.6245  0.9662
18452TIP3   OH276846   1.469   1.931  16.370 -0.7624  0.1601 -0.5132
18452TIP3    H176847   1.457   1.859  16.432  0.2286  0.6206  0.2483
18452TIP3    H276848   1.435   2.008  16.416 -1.8966  0.1836 -1.3539
18453TIP3   OH276849   0.681   2.993   5.858  0.0706  0.3640 -0.6140
18453TIP3    H176850   0.775   2.977   5.859  0.0150  0.0494 -0.5466
18453TIP3    H276851   0.651   2.956   5.775 -0.0089  0.3834 -0.5939
18454TIP3   OH276852   4.301   1.657   2.994  0.4775  0.3653 -0.3767
18454TIP3    H176853   4.393   1.681   3.004  0.8520 -1.4046  0.7873
18454TIP3    H276854   4.253   1.725   3.041  1.4352 -0.5701  2.0897
18455TIP3   OH276855   3.279   3.115  14.515  0.4313 -0.2857  0.0451
18455TIP3    H176856   3.189   3.083  14.510  0.2069 -0.3674  3.0273
18455TIP3    H276857   3.278   3.197  14.465 -1.5628  0.2518  0.8629
18456TIP3   OH276858   1.312   3.495  14.823 -0.8634 -0.9967 -0.4637
18456TIP3    H176859   1.276   3.412  14.855 -1.7449 -0.6617 -0.5824
18456TIP3    H276860   1.236   3.546  14.795 -0.6212  0.8762  1.9567
18457TIP3   OH276861   2.290   6.384  14.268 -0.0373  0.1135  0.2227
18457TIP3    H176862   2.371   6.388  14.320 -0.5631  2.2183  0.9759
18457TIP3    H276863   2.238   6.458  14.299 -2.1956 -1.0647 -0.3989
18458TIP3   OH276864   2.920   2.386   2.366  0.2608 -0.3748 -0.1075
18458TIP3    H176865   2.825   2.394   2.356  0.2080 -0.0914  0.5777
18458TIP3    H276866   2.951   2.476   2.372  0.4005 -0.4867  1.0872
18459TIP3   OH276867   6.779   4.266   1.149  0.4687  0.0937  0.0524
18459TIP3    H176868   6.802   4.208   1.076  1.2542 -0.3121  0.6176
18459TIP3    H276869   6.863   4.292   1.187  0.0612  0.3243  0.8056
18460TIP3   OH276870   2.165   0.898  14.185  0.0790  0.0901  0.1581
18460TIP3    H176871   2.099   0.883  14.253  1.1347  0.0022  1.2040
18460TIP3    H276872   2.168   0.815  14.137  0.7929 -0.5992  1.3511
18461TIP3   OH276873   3.084   3.310  16.799  0.1029  0.2965  0.2232
18461TIP3    H176874   3.079   3.398  16.838  1.8577  0.3687  0.3962
18461TIP3    H276875   3.020   3.311  16.729  0.3505  1.8772 -0.0232
18462TIP3   OH276876   0.428   4.704  14.541  0.2207  0.1255 -0.0783
18462TIP3    H176877   0.404   4.760  14.615 -1.6551 -0.0811 -0.4756
18462TIP3    H276878   0.492   4.643  14.578 -0.3792  0.2699  1.2831
18463TIP3   OH276879   0.851   3.265  15.369  0.0623 -0.3248 -0.4575
18463TIP3    H176880   0.869   3.316  15.448 -0.3639 -0.9222  0.0373
18463TIP3    H276881   0.885   3.318  15.297  1.5489 -0.3097  0.2250
18464TIP3   OH276882   4.793   5.076  12.281  0.0312 -0.4162 -0.0400
18464TIP3    H176883   4.801   5.137  12.354  0.2110 -2.1371  1.4508
18464TIP3    H276884   4.878   5.033  12.276 -0.0659 -0.5237 -1.1250
18465TIP3   OH276885   6.308   5.811  17.061 -0.3947 -0.2599  0.0575
18465TIP3    H176886   6.394   5.797  17.100  0.2269  0.0700 -1.1522
18465TIP3    H276887   6.301   5.906  17.052 -0.1439 -0.3705 -1.4338
18466TIP3   OH276888   2.843   5.789  15.036  0.0001 -0.1107  0.4346
18466TIP3    H176889   2.933   5.793  15.065  0.0641  1.8559  0.1332
18466TIP3    H276890   2.848   5.757  14.945  0.4154  0.1634  0.3590
18467TIP3   OH276891   3.788   0.035  14.621 -0.0852  0.4685  0.2807
18467TIP3    H176892   3.779   0.074  14.708  3.3286 -2.5940  2.2730
18467TIP3    H276893   3.710  -0.020  14.611  0.0597 -0.1254  2.0291
18468TIP3   OH276894   0.520   5.442  12.452 -0.1096 -0.3296  0.1975
18468TIP3    H176895   0.479   5.509  12.397 -1.9914 -0.4914  1.3135
18468TIP3    H276896   0.598   5.415  12.403 -0.7113  0.8193 -1.4898
18469TIP3   OH276897   2.487   3.353  15.545 -0.0488  0.1335 -0.2704
18469TIP3    H176898   2.488   3.436  15.497  2.9185  1.1362  1.2986
18469TIP3    H276899   2.425   3.368  15.617  0.5644  1.0908  0.0845
18470TIP3   OH276900   3.426   6.074   5.855 -0.6155  0.3911 -0.3471
18470TIP3    H176901   3.365   6.027   5.911  0.4013 -0.1880  0.3166
18470TIP3    H276902   3.457   6.147   5.908  0.8805 -0.5572  0.1479
18471TIP3   OH276903   5.816   1.134  13.568  0.4595 -0.1395  0.3192
18471TIP3    H176904   5.837   1.051  13.526  0.6158 -0.4307  0.9480
18471TIP3    H276905   5.757   1.178  13.508 -0.1757 -1.0134  0.2849
18472TIP3   OH276906   4.708   0.999  11.458 -0.2978 -0.2658 -0.4219
18472TIP3    H176907   4.691   0.935  11.527 -0.8849  1.5234  1.1975
18472TIP3    H276908   4.803   1.004  11.452 -0.2016  0.5048  1.2573
18473TIP3   OH276909   1.190   0.464   4.428 -0.1846 -0.4177  0.2252
18473TIP3    H176910   1.208   0.557   4.414  0.2114 -0.1110  2.3487
18473TIP3    H276911   1.117   0.464   4.490 -0.8405 -1.5573 -0.5260
18474TIP3   OH276912   0.059   1.230   3.108  0.4248 -0.5368 -0.3855
18474TIP3    H176913   0.029   1.140   3.093  0.4433 -0.8764  1.3903
18474TIP3    H276914   0.068   1.236   3.203 -1.8341  2.0697 -0.2484
18475TIP3   OH276915   1.571   6.418   2.051  0.0548  0.0621  0.6008
18475TIP3    H176916   1.522   6.479   2.106 -0.1610  0.1294  0.3332
18475TIP3    H276917   1.571   6.458   1.964 -1.3216 -0.9925  0.0872
18476TIP3   OH276918   2.973   1.934   6.298 -0.0476  0.5436 -0.1766
18476TIP3    H176919   3.015   1.933   6.384  1.0441 -0.7668 -0.7079
18476TIP3    H276920   3.016   1.865   6.249 -1.3482  0.6057 -1.4669
18477TIP3   OH276921   6.144   4.877  16.926  0.2725 -0.9184 -0.1332
18477TIP3    H176922   6.062   4.832  16.949 -0.5423  1.3533  1.8541
18477TIP3    H276923   6.139   4.888  16.831 -0.9592 -2.2154 -0.2568
18478TIP3   OH276924   0.842   2.381   5.597 -0.3971 -0.1628  0.3788
18478TIP3    H176925   0.784   2.408   5.668  0.4531  1.4065  0.5319
18478TIP3    H276926   0.798   2.410   5.517  0.0655  0.9235  0.4886
18479TIP3   OH276927   4.179   1.255   1.577  0.1392 -0.0297  0.0192
18479TIP3    H176928   4.140   1.184   1.526  0.0088 -0.0286  0.1140
18479TIP3    H276929   4.173   1.224   1.668  1.0500 -0.3603 -0.0187
18480TIP3   OH276930   3.002   3.288  12.709  0.2744 -0.0539  0.1779
18480TIP3    H176931   2.977   3.377  12.732  0.8788  0.2231 -0.2199
18480TIP3    H276932   2.924   3.235  12.728 -1.3224  1.0172 -2.6602
18481TIP3   OH276933   3.417   6.405   1.278  0.1202  0.3308 -0.0613
18481TIP3    H176934   3.428   6.311   1.291 -2.1881 -0.3761 -2.4443
18481TIP3    H276935   3.500   6.443   1.308  1.1441 -2.4387  0.9084
18482TIP3   OH276936   3.277   4.580  13.043  0.2035  0.3458  0.4029
18482TIP3    H176937   3.304   4.646  13.106 -0.4590  1.4793 -0.4647
18482TIP3    H276938   3.187   4.560  13.065  0.7389 -1.1702  1.3850
18483TIP3   OH276939   6.150   6.683  11.144  0.3336 -0.0569  0.2543
18483TIP3    H176940   6.188   6.770  11.139 -0.0652  0.1081 -0.0159
18483TIP3    H276941   6.195   6.641  11.217  1.0689  0.1037 -0.0975
18484TIP3   OH276942   1.509   1.811   1.808  0.7112 -0.1296 -0.0324
18484TIP3    H176943   1.524   1.900   1.775  0.8682 -0.3190 -0.4737
18484TIP3    H276944   1.418   1.792   1.784  0.6855 -0.0974  0.0397
18485TIP3   OH276945   2.836   6.033  14.208 -0.1067 -0.1077 -0.6780
18485TIP3    H176946   2.759   6.006  14.257 -1.5312 -1.1268 -3.2648
18485TIP3    H276947   2.847   5.966  14.141  1.9046  1.0168 -1.5771
18486TIP3   OH276948   6.432   0.445   0.903 -0.3259 -0.1980 -0.5725
18486TIP3    H176949   6.347   0.408   0.924 -0.6560 -0.3525 -2.0663
18486TIP3    H276950   6.495   0.386   0.943 -0.9106 -0.2626  0.2675
18487TIP3   OH276951   0.809   5.112  13.041  0.0074 -0.0252 -0.0838
18487TIP3    H176952   0.832   5.074  13.125 -1.5951 -2.7019 -0.7255
18487TIP3    H276953   0.834   5.204  13.048 -2.7782  0.7028  4.4794
18488TIP3   OH276954   3.639   0.547  14.903 -0.1148 -0.5850  0.3771
18488TIP3    H176955   3.664   0.613  14.967 -0.4293 -1.6137  1.5965
18488TIP3    H276956   3.544   0.538  14.913 -0.1096 -1.0520  0.0593
18489TIP3   OH276957   0.864   2.719   2.415 -0.2098  0.2188  0.0434
18489TIP3    H176958   0.891   2.810   2.426 -1.6720  1.0413 -2.3368
18489TIP3    H276959   0.930   2.682   2.356  1.6623 -1.0490  2.6990
18490TIP3   OH276960   3.873   1.337  11.493 -0.2794 -0.1670 -0.0348
18490TIP3    H176961   3.792   1.355  11.446 -0.1778 -1.1509 -0.5973
18490TIP3    H276962   3.851   1.267  11.554 -0.7205  1.8554  2.2872
18491TIP3   OH276963   3.064   2.271  13.248 -0.3103  0.3477 -0.6262
18491TIP3    H176964   3.058   2.231  13.335  2.6333  1.9089  0.4370
18491TIP3    H276965   3.000   2.342  13.249 -1.9185 -1.0434 -0.6540
18492TIP3   OH276966   6.318   0.368   2.963 -0.7992 -0.1981 -0.5631
18492TIP3    H176967   6.307   0.332   3.051  0.7396 -1.2656 -0.7525
18492TIP3    H276968   6.233   0.356   2.921 -1.7640  0.9734  0.9796
18493TIP3   OH276969   6.532   0.135   0.185  0.1857 -0.0555  0.2311
18493TIP3    H176970   6.458   0.118   0.242 -1.2366  2.3209 -0.7657
18493TIP3    H276971   6.494   0.175   0.107  2.4026  0.0433 -0.8773
18494TIP3   OH276972   2.220   5.213   5.208 -0.5382  0.4903 -0.2288
18494TIP3    H176973   2.242   5.265   5.131 -1.4605  0.7745 -0.3189
18494TIP3    H276974   2.251   5.265   5.282  1.7276 -0.4700 -0.4182
18495TIP3   OH276975   0.864   1.565  17.009 -0.2932  0.2166  0.2088
18495TIP3    H176976   0.923   1.625  16.962  0.0675 -0.0607  0.3054
18495TIP3    H276977   0.779   1.610  17.009 -0.2730  0.2691 -0.6104
18496TIP3   OH276978   0.008   0.609   0.771  0.2676 -0.3695  0.1864
18496TIP3    H176979  -0.030   0.640   0.689 -2.4759  1.1641  1.8722
18496TIP3    H276980   0.043   0.522   0.750 -0.5571 -0.1562 -2.5043
18497TIP3   OH276981   0.753   2.367  14.329  0.3207  0.2085 -0.5536
18497TIP3    H176982   0.681   2.324  14.376  0.0739 -0.0915 -1.2045
18497TIP3    H276983   0.710   2.422  14.264  0.6756 -0.1270 -1.0816
18498TIP3   OH276984   2.648   1.245  16.972 -0.0925 -0.0059  0.2861
18498TIP3    H176985   2.603   1.274  16.892  0.7975 -0.3287 -0.3470
18498TIP3    H276986   2.667   1.153  16.957  0.7744  0.1219  0.5351
18499TIP3   OH276987   6.404   5.269  11.055 -0.0478 -0.1809 -0.4899
18499TIP3    H176988   6.461   5.241  10.983 -0.3714 -0.0340 -0.8096
18499TIP3    H276989   6.318   5.279  11.015 -1.0993 -3.5316  0.6139
18500TIP3   OH276990   6.738   5.132   1.968 -0.9061  0.0326 -0.2131
18500TIP3    H176991   6.661   5.121   2.024 -2.8267  0.9259 -2.5159
18500TIP3    H276992   6.703   5.168   1.886  2.0509  0.9975 -1.1683
18501TIP3   OH276993   0.106   3.191   5.543  0.3185  0.2939 -0.6057
18501TIP3    H176994   0.059   3.142   5.475  1.3024 -0.0720 -1.0439
18501TIP3    H276995   0.081   3.282   5.528 -1.7834 -0.0646  0.4135
18502TIP3   OH276996   3.186   1.389  12.156  0.4340 -0.2716 -0.2775
18502TIP3    H176997   3.191   1.466  12.213  0.7311  0.2256 -0.9562
18502TIP3    H276998   3.146   1.422  12.075 -0.2145 -1.0200 -0.2735
18503TIP3   OH276999   0.888   2.455  14.556 -0.2496 -0.3365 -0.2664
18503TIP3    H177000   0.860   2.416  14.473 -0.9634 -1.5192  0.4938
18503TIP3    H277001   0.814   2.511  14.582  0.0823  0.2401 -0.5402
18504TIP3   OH277002   3.184   4.703   0.350  0.0247 -0.4982  0.3107
18504TIP3    H177003   3.208   4.741   0.265  0.7006  0.4292  0.8911
18504TIP3    H277004   3.199   4.774   0.412 -1.5272 -0.7986  1.0770
18505TIP3   OH277005   1.579   1.759   0.732 -0.0500 -0.2087 -0.4184
18505TIP3    H177006   1.542   1.671   0.727  0.0750 -0.1991 -2.1107
18505TIP3    H277007   1.541   1.805   0.657 -0.5214  1.3559  0.7281
18506TIP3   OH277008   2.462   2.421  11.410 -0.4832 -0.2175  0.6660
18506TIP3    H177009   2.371   2.440  11.387 -0.5823  0.2033  1.3738
18506TIP3    H277010   2.461   2.331  11.441 -0.5462 -0.4149  0.0997
18507TIP3   OH277011   1.064   1.568  14.606  0.3634  0.1730 -0.5385
18507TIP3    H177012   1.034   1.480  14.582 -0.4264  0.7099 -1.5636
18507TIP3    H277013   1.120   1.595  14.534  1.8292 -0.0598  0.4739
18508TIP3   OH277014   2.465   2.187   5.009  0.0292 -0.0773 -0.2816
18508TIP3    H177015   2.414   2.233   4.942  0.3598  1.1179  0.2461
18508TIP3    H277016   2.440   2.230   5.091 -0.6753 -1.7854  0.4269
18509TIP3   OH277017   6.386   4.678  12.951  0.2080  0.8282 -0.2163
18509TIP3    H177018   6.355   4.671  12.861 -1.2772  1.3312  0.2212
18509TIP3    H277019   6.420   4.767  12.958 -1.1177  1.3407  0.1058
18510TIP3   OH277020   2.053   2.605   1.920  0.3917  0.0951 -0.3465
18510TIP3    H177021   2.076   2.530   1.975 -0.4029  0.7999  1.0135
18510TIP3    H277022   2.121   2.608   1.854  0.2769 -2.0026 -0.6299
18511TIP3   OH277023   5.189   2.643   2.424 -0.2168  0.2336 -0.2290
18511TIP3    H177024   5.207   2.702   2.497 -1.5080  0.0579  0.2570
18511TIP3    H277025   5.275   2.624   2.387  0.3357  1.4125  0.3892
18512TIP3   OH277026   2.341   4.395   1.528  0.0683 -0.0550  0.4171
18512TIP3    H177027   2.357   4.478   1.483  2.2129  0.3643  1.8077
18512TIP3    H277028   2.276   4.417   1.595  0.2692  0.3760  0.4758
18513TIP3   OH277029   2.795   0.694   4.665 -0.0934  0.5577  0.2798
18513TIP3    H177030   2.726   0.726   4.724  0.2199  1.1812  0.3204
18513TIP3    H277031   2.874   0.691   4.720 -0.1850 -0.6610  0.3742
18514TIP3   OH277032   4.437   0.219   1.105 -0.1202  0.4494  0.3800
18514TIP3    H177033   4.524   0.240   1.073  0.1845  1.1684  1.6147
18514TIP3    H277034   4.395   0.173   1.032  1.3911 -0.2234 -0.1105
18515TIP3   OH277035   0.144   3.824   1.302 -0.0076 -0.5612 -0.3662
18515TIP3    H177036   0.190   3.838   1.385 -0.0629  0.7998 -0.5324
18515TIP3    H277037   0.180   3.891   1.244 -1.0030 -0.5622 -1.0061
18516TIP3   OH277038   0.869   6.448   1.587 -0.1711 -0.6711  0.2966
18516TIP3    H177039   0.833   6.362   1.566  0.2365 -0.8062  0.1337
18516TIP3    H277040   0.955   6.430   1.625  1.1793 -0.2641 -2.3195
18517TIP3   OH277041   1.690   4.007   4.213 -0.5218  0.1238 -0.5427
18517TIP3    H177042   1.615   4.047   4.257 -0.2910  1.1282 -1.0215
18517TIP3    H277043   1.766   4.053   4.249 -0.0347 -1.4442  0.5500
18518TIP3   OH277044   2.991   6.209   6.730 -0.1654  0.0401  0.0562
18518TIP3    H177045   3.001   6.270   6.803  0.8311 -0.7089  0.5583
18518TIP3    H277046   2.947   6.260   6.662  0.4587  1.2598  0.5435
18519TIP3   OH277047   2.327   3.623   2.979 -0.2018  0.2663 -0.1956
18519TIP3    H177048   2.309   3.697   2.920  2.3483  1.3192  0.1986
18519TIP3    H277049   2.360   3.554   2.922 -0.9644  0.0465 -0.3736
18520TIP3   OH277050   3.780   0.017   1.877 -0.2681 -0.6981 -0.8758
18520TIP3    H177051   3.777   0.056   1.789  0.9157  2.0366  0.1710
18520TIP3    H277052   3.834   0.078   1.928 -1.2258 -1.9890  1.8690
18521TIP3   OH277053   6.648   1.247   1.008  0.3990 -0.0791 -0.0345
18521TIP3    H177054   6.664   1.155   0.990  0.6009 -0.1573  0.5301
18521TIP3    H277055   6.613   1.249   1.097 -2.7037  0.1028 -1.1479
18522TIP3   OH277056   2.593   5.517   1.752 -0.9100  0.4229  0.4229
18522TIP3    H177057   2.623   5.450   1.690 -1.6743 -0.6998  1.2304
18522TIP3    H277058   2.622   5.485   1.837  2.3267  3.1347  0.5455
18523TIP3   OH277059   4.791   4.978  11.903  0.1596  0.6483 -0.1370
18523TIP3    H177060   4.836   4.897  11.926 -0.8974  0.0483 -0.0794
18523TIP3    H277061   4.858   5.032  11.861  0.8476 -0.3216 -0.3286
18524TIP3   OH277062   6.468   5.957  15.263  0.7899  0.2410  0.5418
18524TIP3    H177063   6.393   5.955  15.323  0.8811 -0.4976  0.6428
18524TIP3    H277064   6.472   5.869  15.227  1.5054  0.3259  0.4019
18525TIP3   OH277065   4.240   2.484  11.607  0.0548 -0.2106  0.1640
18525TIP3    H177066   4.271   2.394  11.615 -1.2671 -0.7243 -0.1997
18525TIP3    H277067   4.163   2.477  11.551 -0.6265  1.0315  0.9281
18526TIP3   OH277068   3.338   5.882  11.369 -0.5026 -0.4115  0.2554
18526TIP3    H177069   3.392   5.847  11.441  0.3198 -1.8844 -1.0111
18526TIP3    H277070   3.376   5.844  11.290 -1.2065  1.3781 -1.0238
18527TIP3   OH277071   1.678   4.321  14.963  0.1973  0.2105 -0.0201
18527TIP3    H177072   1.619   4.381  15.010 -0.5627 -1.1384  0.8309
18527TIP3    H277073   1.756   4.373  14.946 -1.3447  2.1937 -1.5311
18528TIP3   OH277074   2.449   2.465   4.968 -0.3408 -0.5712 -0.0055
18528TIP3    H177075   2.539   2.432   4.969 -0.2395 -0.4172 -1.5699
18528TIP3    H277076   2.406   2.416   4.898 -1.4501 -0.5499  0.6357
18529TIP3   OH277077   1.754   2.824  15.851  0.3695 -1.0237  0.3013
18529TIP3    H177078   1.848   2.840  15.841  0.4039 -0.5058  1.3784
18529TIP3    H277079   1.749   2.740  15.897  0.2232 -2.6956 -2.4917
18530TIP3   OH277080   4.699   0.730   3.164 -0.1064  0.1791  0.0290
18530TIP3    H177081   4.645   0.722   3.242  2.1236 -2.7233  1.4527
18530TIP3    H277082   4.778   0.774   3.194  0.6016 -0.5910 -0.6524
18531TIP3   OH277083   2.225   0.001   2.699  0.7820 -0.0951 -0.3387
18531TIP3    H177084   2.164   0.065   2.735 -0.6935 -1.2255 -0.7567
18531TIP3    H277085   2.269   0.048   2.628 -0.6559  0.3197 -0.9992
18532TIP3   OH277086   3.325   6.127   0.229 -0.3833 -0.0939 -0.4532
18532TIP3    H177087   3.257   6.084   0.280  0.1088 -0.4500 -0.0875
18532TIP3    H277088   3.345   6.207   0.276  0.6636 -0.8249  0.3985
18533TIP3   OH277089   0.748   1.861  13.627 -0.4065  0.7024 -0.0517
18533TIP3    H177090   0.658   1.876  13.655 -1.1773 -2.0202 -0.7276
18533TIP3    H277091   0.775   1.784  13.676  0.9428  0.4749 -1.1083
18534TIP3   OH277092   2.902   1.749  12.765  0.0588  0.9287  0.1120
18534TIP3    H177093   2.849   1.826  12.747 -1.4354 -0.1085 -0.1151
18534TIP3    H277094   2.954   1.773  12.842  1.5292  3.0263 -1.4362
18535TIP3   OH277095   0.650   5.318  14.762 -0.2861 -1.0094  0.4319
18535TIP3    H177096   0.613   5.367  14.689  0.7658 -1.3628 -0.3505
18535TIP3    H277097   0.661   5.229  14.729  2.4293 -0.6662  0.1592
18536TIP3   OH277098   4.197   3.689  16.843 -0.2855 -0.1549 -0.4317
18536TIP3    H177099   4.182   3.768  16.894 -1.3003 -0.3256 -0.4350
18536TIP3    H277100   4.250   3.633  16.899 -1.0602 -0.1832  0.2867
18537TIP3   OH277101   1.454   6.014   0.012 -0.1215  0.0042 -0.1375
18537TIP3    H177102   1.506   6.009  -0.069  0.4390 -0.7049  0.2499
18537TIP3    H277103   1.364   6.027  -0.019  0.1480  0.2361 -0.8580
18538TIP3   OH277104   6.072   0.178   0.274 -0.1148  0.2497  0.6387
18538TIP3    H177105   6.103   0.244   0.212 -0.3030 -1.4323 -1.3531
18538TIP3    H277106   6.131   0.104   0.261 -0.6248 -0.4094  1.9729
18539TIP3   OH277107   2.257   3.203  12.888 -0.3927  0.0127 -0.2582
18539TIP3    H177108   2.244   3.194  12.793  3.2375 -1.5370 -0.8030
18539TIP3    H277109   2.320   3.274  12.896 -0.4954 -0.0245  0.9732
18540TIP3   OH277110   1.341   5.852   5.207 -0.1209  0.4232  0.6342
18540TIP3    H177111   1.431   5.838   5.237 -0.7792 -1.9238  1.7830
18540TIP3    H277112   1.314   5.934   5.249  2.0103  2.2108 -1.2383
18541TIP3   OH277113   5.351   5.667   4.207 -0.3802 -0.5469 -0.3599
18541TIP3    H177114   5.393   5.700   4.128 -2.7954  0.0149 -1.4988
18541TIP3    H277115   5.424   5.636   4.262  1.4671  0.4283 -2.1279
18542TIP3   OH277116   5.346   5.491   3.161  0.2092 -0.6282  0.1580
18542TIP3    H177117   5.314   5.457   3.244  0.1004 -0.1399  0.3202
18542TIP3    H277118   5.277   5.552   3.132  0.6015 -0.2138  0.0936
18543TIP3   OH277119   0.006   4.974  14.554 -0.4603 -0.4564 -0.2236
18543TIP3    H177120   0.099   4.991  14.540 -0.6084  2.0855  1.2132
18543TIP3    H277121  -0.028   4.951  14.467  1.1800  0.2600 -1.0977
18544TIP3   OH277122   2.347   0.408  16.908 -0.1503 -0.1518  0.3393
18544TIP3    H177123   2.270   0.352  16.917  1.4907 -2.4813  0.8019
18544TIP3    H277124   2.417   0.359  16.950  1.6928  1.7187 -0.3823
18545TIP3   OH277125   0.671   5.380   4.954  0.1969  0.6545 -0.5519
18545TIP3    H177126   0.681   5.312   4.888  1.7052  0.2314  0.0715
18545TIP3    H277127   0.736   5.359   5.021 -1.2147  1.1091  1.0430
18546TIP3   OH277128   4.326   3.712   4.431 -0.4490 -0.0062  0.4204
18546TIP3    H177129   4.324   3.622   4.397  1.2150 -0.1664  0.6669
18546TIP3    H277130   4.373   3.761   4.364  0.0128  0.3468  0.9931
18547TIP3   OH277131   5.903   2.799  17.159 -0.5754 -0.5035 -0.3502
18547TIP3    H177132   5.947   2.885  17.160  0.3187 -0.9465  0.3142
18547TIP3    H277133   5.974   2.737  17.141 -1.2237 -1.1052 -0.8469
18548TIP3   OH277134   6.134   3.917  15.139 -0.1702 -0.5154  0.0965
18548TIP3    H177135   6.092   3.995  15.175 -0.8641  0.8960 -3.4203
18548TIP3    H277136   6.065   3.850  15.142 -0.3641 -0.2963  0.8461
18549TIP3   OH277137   5.606   5.530   3.297 -0.0606  0.3100  0.1673
18549TIP3    H177138   5.618   5.622   3.322  0.6483  1.2960 -3.1871
18549TIP3    H277139   5.526   5.530   3.246 -0.0242 -0.9370  0.0940
18550TIP3   OH277140   2.762   0.195   2.302 -0.0405  1.0735  0.1539
18550TIP3    H177141   2.722   0.181   2.388  0.4291  0.2923  0.2569
18550TIP3    H277142   2.835   0.255   2.319 -0.2477  1.3071  0.2190
18551TIP3   OH277143   1.125   5.994  15.924  0.6659 -0.2479 -0.6543
18551TIP3    H177144   1.066   5.922  15.949 -0.6121  1.1274  0.5213
18551TIP3    H277145   1.203   5.980  15.977  0.2519 -0.5457 -0.1042
18552TIP3   OH277146   4.134   1.872  16.806  0.6057 -0.6595 -0.1790
18552TIP3    H177147   4.150   1.841  16.717  1.2831 -0.0996 -0.2684
18552TIP3    H277148   4.214   1.849  16.854  1.4635  1.5298 -0.4328
18553TIP3   OH277149   3.368   6.551  16.328 -0.3555 -0.4985 -0.2065
18553TIP3    H177150   3.373   6.464  16.290  1.4504  0.0807 -1.4188
18553TIP3    H277151   3.392   6.539  16.420 -0.8425 -1.3521 -0.1770
18554TIP3   OH277152   1.047   6.102  12.770 -0.4939 -0.5315  0.4444
18554TIP3    H177153   1.009   6.139  12.850  0.0030 -1.5738  1.1804
18554TIP3    H277154   0.994   6.140  12.700  1.3914  3.4606  0.8692
18555TIP3   OH277155   5.609   1.204   2.921 -0.5481  0.3646  0.1241
18555TIP3    H177156   5.533   1.154   2.891 -1.0302  1.9418 -1.4765
18555TIP3    H277157   5.655   1.145   2.980 -2.4385 -1.0240  0.2997
18556TIP3   OH277158   3.397   2.530   0.356  0.3026  0.1027  0.4236
18556TIP3    H177159   3.472   2.588   0.370 -0.5449  1.1137  0.8838
18556TIP3    H277160   3.322   2.579   0.388 -0.1812 -2.1568  3.2317
18557TIP3   OH277161   5.370   2.655   4.368  0.6924 -0.5766  0.3407
18557TIP3    H177162   5.301   2.658   4.301  2.6584  0.0717 -1.8099
18557TIP3    H277163   5.350   2.577   4.420 -0.6361 -1.4448 -1.3516
18558TIP3   OH277164   3.927   0.686   4.002  0.2655 -0.1192 -0.1138
18558TIP3    H177165   3.915   0.776   3.971 -1.7522 -1.0905 -2.4434
18558TIP3    H277166   4.012   0.660   3.966  1.3275  1.0794  1.3783
18559TIP3   OH277167   6.439   2.595   1.487 -0.3660  0.0744 -0.1409
18559TIP3    H177168   6.515   2.538   1.505 -0.2990 -0.4223 -1.8362
18559TIP3    H277169   6.473   2.662   1.427 -1.5828 -1.1293 -2.2946
18560TIP3   OH277170   5.148   5.984   3.429 -0.2386  0.1989  0.2482
18560TIP3    H177171   5.223   5.988   3.488 -0.1780 -1.4791  0.3472
18560TIP3    H277172   5.084   5.930   3.476 -1.4177  1.3685  0.0451
18561TIP3   OH277173   0.254   2.859   1.917 -0.2122  0.0184 -0.0291
18561TIP3    H177174   0.247   2.930   1.854  0.9007 -0.4125 -0.6734
18561TIP3    H277175   0.239   2.900   2.002 -5.0341  0.0793 -0.6509
18562TIP3   OH277176   4.213   6.174  15.749  0.3140 -0.2541  0.7214
18562TIP3    H177177   4.118   6.177  15.733 -0.0588  4.5964  2.2574
18562TIP3    H277178   4.221   6.157  15.843  1.0941 -1.3996  0.4734
18563TIP3   OH277179   0.029   0.744  11.933  0.3742 -0.1141  0.4146
18563TIP3    H177180   0.028   0.659  11.888 -1.4219  1.0429 -1.9657
18563TIP3    H277181   0.094   0.796  11.885  1.8141 -0.2206  2.1594
18564TIP3   OH277182   0.448   4.646  12.298 -0.3348  0.1786 -0.6106
18564TIP3    H177183   0.406   4.569  12.260  0.8285 -0.3554 -0.8567
18564TIP3    H277184   0.445   4.711  12.228 -0.5474  0.0754 -0.6997
18565TIP3   OH277185   5.077   2.524  14.778  0.3581 -0.3620 -0.1606
18565TIP3    H177186   5.149   2.502  14.838  0.2165  1.5795  0.8049
18565TIP3    H277187   5.042   2.439  14.750  2.3034 -1.3415  0.2095
18566TIP3   OH277188   6.517   2.935  12.306  0.0100 -0.2783 -0.5135
18566TIP3    H177189   6.573   2.993  12.255  1.0626  1.0537  2.0080
18566TIP3    H277190   6.572   2.860  12.328  0.5059  0.5180  1.0505
18567TIP3   OH277191   3.822   3.812   3.367  0.2591  0.0674 -0.1276
18567TIP3    H177192   3.728   3.812   3.351  0.1257  0.1647  0.6189
18567TIP3    H277193   3.830   3.821   3.462  1.0052 -0.9706 -0.0815
18568TIP3   OH277194   0.090   0.265  15.719  0.2919  0.1149 -0.0575
18568TIP3    H177195   0.017   0.305  15.671  0.7866 -1.2375 -2.1098
18568TIP3    H277196   0.095   0.314  15.801 -0.6259  2.5924 -1.3677
18569TIP3   OH277197   1.733   1.770   0.124  0.0266 -0.2398 -0.1213
18569TIP3    H177198   1.684   1.814   0.055 -0.7880  1.4974  1.4541
18569TIP3    H277199   1.678   1.696   0.150 -0.4819  0.1259 -0.1578
18570TIP3   OH277200   6.103   0.091   4.434  0.1937 -0.1084 -0.4377
18570TIP3    H177201   6.054   0.174   4.424  0.4466 -0.0519 -1.2274
18570TIP3    H277202   6.155   0.104   4.513  0.7872  0.7729 -0.9634
18571TIP3   OH277203   1.507   1.390   1.906  0.2526  0.0700 -0.3764
18571TIP3    H177204   1.447   1.348   1.845 -1.4173  0.8884  0.6186
18571TIP3    H277205   1.497   1.484   1.889  0.0873  0.2884  0.8070
18572TIP3   OH277206   1.810   3.195  11.649 -0.0617 -0.6997  0.2420
18572TIP3    H177207   1.866   3.188  11.572  0.3317 -1.9559  0.6261
18572TIP3    H277208   1.837   3.122  11.705 -0.5518  0.0059  1.4320
18573TIP3   OH277209   1.527   3.355   2.350  0.1050  0.1303  0.2652
18573TIP3    H177210   1.488   3.288   2.294  1.3915 -0.6559  0.2780
18573TIP3    H277211   1.585   3.404   2.293 -1.0002  1.4372  0.1995
18574TIP3   OH277212   1.712   1.423  11.430  0.1999 -0.1611  0.1804
18574TIP3    H177213   1.681   1.475  11.355 -1.0928 -0.1232  0.7145
18574TIP3    H277214   1.781   1.477  11.469  1.4872 -0.5525 -1.4406
18575TIP3   OH277215   4.878   2.146  16.730 -0.5052 -0.0886 -0.8545
18575TIP3    H177216   4.817   2.113  16.796  2.0222 -3.1287  0.2355
18575TIP3    H277217   4.840   2.120  16.646 -1.4338 -0.5579 -0.2966
18576TIP3   OH277218   3.503   1.295   4.368 -0.0317  0.2102  0.2452
18576TIP3    H177219   3.532   1.333   4.285 -2.0099  2.0106  0.2877
18576TIP3    H277220   3.470   1.209   4.345 -1.3261  1.0062 -1.0168
18577TIP3   OH277221   4.551   0.164   5.192 -0.0049  0.2690 -0.0018
18577TIP3    H177222   4.465   0.163   5.232  0.4027  0.0888  0.8932
18577TIP3    H277223   4.576   0.072   5.185  0.6789  0.3682  1.0035
18578TIP3   OH277224   4.947   5.913  15.017 -0.1671  0.1019  0.0517
18578TIP3    H177225   4.967   5.853  15.090 -0.1001 -0.8178 -0.7014
18578TIP3    H277226   5.009   5.889  14.949  0.4810  1.6733  0.0470
18579TIP3   OH277227   0.947   2.673   2.699 -0.4586 -0.1086 -0.5594
18579TIP3    H177228   0.886   2.660   2.626 -1.4959 -1.6002  0.5049
18579TIP3    H277229   0.897   2.649   2.777  1.4157 -1.2141  0.3893
18580TIP3   OH277230   1.515   6.372   5.010 -0.0495 -0.1852  0.2215
18580TIP3    H177231   1.520   6.276   5.015 -1.0027 -0.2017  1.0388
18580TIP3    H277232   1.502   6.400   5.100  0.2033  0.7224 -0.0163
18581TIP3   OH277233   5.830   2.897   3.997  0.8276 -0.1826  0.6145
18581TIP3    H177234   5.795   2.983   3.975  0.2392 -0.4987  0.2831
18581TIP3    H277235   5.864   2.862   3.915  1.4571 -0.0983  0.8298
18582TIP3   OH277236   3.210   1.616   0.253  0.4718  0.1328  0.3311
18582TIP3    H177237   3.160   1.693   0.227  1.2907 -0.2280 -2.7140
18582TIP3    H277238   3.301   1.646   0.256  0.6501 -0.4093  0.4896
18583TIP3   OH277239   4.100   4.954  13.816 -0.1181  0.4860 -0.3509
18583TIP3    H177240   4.019   4.993  13.850  0.1590  0.5079  0.3062
18583TIP3    H277241   4.135   4.905  13.890  1.1032  1.4598 -0.2547
18584TIP3   OH277242   6.492   5.441  14.334 -0.1653  0.0922 -0.0882
18584TIP3    H177243   6.570   5.467  14.284 -0.6289 -0.7313 -1.2860
18584TIP3    H277244   6.451   5.372  14.281 -1.4679  0.1924  0.7386
18585TIP3   OH277245   3.639   5.160   4.265 -0.2450 -0.0119 -0.0106
18585TIP3    H177246   3.593   5.128   4.343  2.2879 -0.1831  1.5003
18585TIP3    H277247   3.682   5.241   4.293 -0.0331  0.4427 -1.5258
18586TIP3   OH277248   1.223   2.268   0.595  0.2287  0.0780  0.1895
18586TIP3    H177249   1.280   2.325   0.544 -1.5681  0.7699 -1.1683
18586TIP3    H277250   1.180   2.327   0.657  1.6095 -0.5884  1.8537
18587TIP3   OH277251   0.061   4.587   1.221  0.3927  0.4841  0.7701
18587TIP3    H177252   0.006   4.607   1.145  0.8255  2.0174  0.8320
18587TIP3    H277253   0.042   4.657   1.284  0.7577 -0.2199  1.6873
18588TIP3   OH277254   6.469   0.654   5.532 -0.8419 -0.2745 -0.3194
18588TIP3    H177255   6.487   0.655   5.626  2.1133 -0.6552 -0.7855
18588TIP3    H277256   6.394   0.712   5.521 -0.7546  0.4229  2.1647
18589TIP3   OH277257   0.767   3.149   2.342 -0.7939 -0.0569 -0.3974
18589TIP3    H177258   0.837   3.084   2.344 -0.1708  0.5833 -0.8087
18589TIP3    H277259   0.794   3.216   2.405 -1.2347 -0.0045 -0.2586
18590TIP3   OH277260   3.740   5.895  12.323 -0.0786  0.5767 -0.4495
18590TIP3    H177261   3.797   5.962  12.284 -0.4268  0.4685 -1.1636
18590TIP3    H277262   3.763   5.895  12.416  1.2575  0.3592 -0.7656
18591TIP3   OH277263   6.771   2.748  11.338  0.1187 -0.0831  0.2769
18591TIP3    H177264   6.704   2.814  11.324  1.6900  2.0344  1.9427
18591TIP3    H277265   6.797   2.760  11.430  1.6897 -1.8310  0.1196
18592TIP3   OH277266   4.200   0.503   2.997 -0.2266  0.4854  0.6509
18592TIP3    H177267   4.206   0.423   3.049 -2.7421 -0.3857 -0.2816
18592TIP3    H277268   4.232   0.572   3.056  3.4425 -1.2868  0.9596
18593TIP3   OH277269   5.658   5.437   4.847  0.0160  0.0309 -0.3491
18593TIP3    H177270   5.630   5.468   4.761  1.3742  2.5471  0.0251
18593TIP3    H277271   5.749   5.465   4.855  0.3476 -1.3309  1.4133
18594TIP3   OH277272   3.929   0.260   2.292 -0.4979 -0.0368  0.7269
18594TIP3    H177273   3.973   0.223   2.215 -1.2862  0.2082  0.1360
18594TIP3    H277274   3.836   0.250   2.273 -0.7037 -0.1279  1.7419
18595TIP3   OH277275   6.569   0.692  16.189  0.4414  0.2004 -0.4747
18595TIP3    H177276   6.559   0.764  16.251  0.7043  0.5106 -0.7904
18595TIP3    H277277   6.485   0.690  16.142  0.7013  0.7989 -0.9868
18596TIP3   OH277278   1.074   0.304  17.120  0.3949 -0.0194  0.1047
18596TIP3    H177279   0.997   0.253  17.092 -0.7008  0.8116  1.4589
18596TIP3    H277280   1.149   0.251  17.093 -0.6893 -2.0735  0.8894
18597TIP3   OH277281   3.744   1.519  14.471  0.0989  0.0496  0.6084
18597TIP3    H177282   3.723   1.451  14.408  0.8362  0.5092 -0.1483
18597TIP3    H277283   3.760   1.597  14.418  0.5850  0.4805  1.3679
18598TIP3   OH277284   3.670   2.520   1.544 -0.4575 -0.1669  0.0854
18598TIP3    H177285   3.625   2.437   1.554  0.1699 -0.7993 -1.8142
18598TIP3    H277286   3.728   2.507   1.468 -1.4400  2.4437 -1.2547
18599TIP3   OH277287   2.732   5.996   4.551 -0.2768  0.6510 -0.0825
18599TIP3    H177288   2.783   5.915   4.551 -0.2615  0.6488 -0.9048
18599TIP3    H277289   2.665   5.982   4.484 -0.1704  1.3736 -0.3557
18600TIP3   OH277290   2.942   4.796  12.529  0.2136 -0.1578 -1.0149
18600TIP3    H177291   2.951   4.863  12.462 -1.0929  0.9511 -0.1191
18600TIP3    H277292   3.021   4.742  12.519  1.0630  1.2047 -2.0632
18601TIP3   OH277293   6.392   4.504   6.623  0.4609  0.4292  0.2737
18601TIP3    H177294   6.344   4.547   6.552 -0.0099 -0.6154 -0.0682
18601TIP3    H277295   6.325   4.481   6.688  0.2711 -1.8572 -0.6224
18602TIP3   OH277296   3.214   0.893   0.848 -0.2679 -0.1593 -0.0315
18602TIP3    H177297   3.155   0.850   0.910 -0.8452  0.4050 -0.1759
18602TIP3    H277298   3.300   0.890   0.889 -0.4329 -0.8289  0.2692
18603TIP3   OH277299   4.251   5.489   0.429  0.0569  0.0731 -0.3524
18603TIP3    H177300   4.177   5.460   0.483 -0.0254  0.8513 -0.0297
18603TIP3    H277301   4.290   5.408   0.397 -0.1118 -0.3977  0.5853
18604TIP3   OH277302   3.180   2.348  15.440 -0.6600 -0.7013  0.4140
18604TIP3    H177303   3.170   2.319  15.349 -0.8184 -1.8099  0.7762
18604TIP3    H277304   3.093   2.338  15.478 -0.7677  0.4321  0.5197
18605TIP3   OH277305   0.042   5.489   0.262  0.1511  0.0479  0.0510
18605TIP3    H177306   0.104   5.560   0.276  2.1129 -1.2329 -1.4965
18605TIP3    H277307   0.081   5.438   0.191 -2.0684 -1.5682 -0.0940
18606TIP3   OH277308   4.164   4.485  15.509 -0.3126 -0.6559  0.2206
18606TIP3    H177309   4.256   4.461  15.513 -0.3726 -0.8159  0.7947
18606TIP3    H277310   4.141   4.505  15.600 -0.7271 -0.1831  0.0165
18607TIP3   OH277311   3.744   2.761  13.903  0.3879 -0.7992 -0.3253
18607TIP3    H177312   3.810   2.705  13.863  0.6120 -1.6537  1.1653
18607TIP3    H277313   3.755   2.747  13.998  0.4709  1.7965  0.1179
18608TIP3   OH277314   5.495   6.794  15.961  0.3868  0.2488  0.4523
18608TIP3    H177315   5.427   6.828  15.903  1.3142 -0.4822 -1.1473
18608TIP3    H277316   5.471   6.702  15.975  1.4768 -0.2934 -0.9147
18609TIP3   OH277317   5.427   3.059   6.687  0.6298 -0.1558 -0.2535
18609TIP3    H177318   5.434   3.150   6.717  2.1161 -0.1956 -0.3814
18609TIP3    H277319   5.509   3.043   6.641 -0.6909 -0.7813 -2.5126
18610TIP3   OH277320   2.152   6.730   5.619 -0.1840  0.0200  0.3231
18610TIP3    H177321   2.088   6.767   5.558  0.5691 -1.0572 -1.1740
18610TIP3    H277322   2.152   6.791   5.693 -0.8240  1.6138 -0.9280
18611TIP3   OH277323   4.151   1.203  12.268  0.2496 -0.0116 -0.5374
18611TIP3    H177324   4.062   1.186  12.299  0.8694 -2.1288  0.3039
18611TIP3    H277325   4.207   1.167  12.337  1.7181 -1.4096 -2.3460
18612TIP3   OH277326   6.729   2.101   3.378  0.1796  0.1789 -0.0203
18612TIP3    H177327   6.665   2.040   3.341 -0.9505  1.1407  0.2919
18612TIP3    H277328   6.780   2.047   3.439  2.0471 -1.4275 -2.7864
18613TIP3   OH277329   6.740   5.065  16.207  0.0503 -0.2035  0.1055
18613TIP3    H177330   6.821   5.099  16.246  0.1951  0.6358 -0.8675
18613TIP3    H277331   6.748   4.970  16.214  0.6231 -0.1004  0.9863
18614TIP3   OH277332   4.267   0.149   5.268  0.1544 -0.0859 -0.3126
18614TIP3    H177333   4.229   0.061   5.264 -1.0445  0.3563  0.7297
18614TIP3    H277334   4.230   0.194   5.191 -0.0686 -0.1853 -0.2646
18615TIP3   OH277335   2.612   5.911   0.554  0.5755 -0.6061  0.3169
18615TIP3    H177336   2.579   5.903   0.644  2.5040  1.7305  1.3405
18615TIP3    H277337   2.673   5.839   0.545 -1.4778 -2.4032 -0.1130
18616TIP3   OH277338   1.403   0.785   4.451 -0.3505  0.1821  0.7882
18616TIP3    H177339   1.317   0.752   4.476 -0.0135 -2.3666 -1.1026
18616TIP3    H277340   1.386   0.844   4.377 -0.4130 -2.5002 -1.5119
18617TIP3   OH277341   2.399   6.058   3.362 -0.0253  0.1519  0.2477
18617TIP3    H177342   2.456   6.132   3.342  1.6670 -0.3865  2.5818
18617TIP3    H277343   2.333   6.094   3.423 -1.3652  0.4371 -1.2948
18618TIP3   OH277344   2.605   5.211   3.309  0.0874  0.4275 -0.1293
18618TIP3    H177345   2.624   5.228   3.217  1.0856 -0.3965 -0.0902
18618TIP3    H277346   2.515   5.242   3.321 -0.2344  0.0955 -1.5014
18619TIP3   OH277347   2.165   2.984   5.758 -0.6016 -0.6733 -0.1571
18619TIP3    H177348   2.158   2.908   5.701 -3.1826 -2.4486  2.2247
18619TIP3    H277349   2.244   2.969   5.809 -0.5906 -1.2829 -0.3475
18620TIP3   OH277350   1.473   2.586   5.410 -0.3808  0.0690  0.0970
18620TIP3    H177351   1.451   2.573   5.318 -0.6334 -1.6000  0.3762
18620TIP3    H277352   1.546   2.526   5.427 -1.2121 -0.6302  1.3146
18621TIP3   OH277353   4.768   3.497   1.260  0.0999 -0.1080  0.1224
18621TIP3    H177354   4.697   3.560   1.247 -0.8789 -1.1253  0.3280
18621TIP3    H277355   4.755   3.433   1.190  0.7912 -0.3380  0.1999
18622TIP3   OH277356   4.575   3.654   3.992  0.3422 -0.0500  0.7102
18622TIP3    H177357   4.652   3.707   3.973 -0.3369  0.5262 -0.5474
18622TIP3    H277358   4.611   3.571   4.025  1.4711  0.4177  0.7047
18623TIP3   OH277359   0.590   4.181  14.623 -0.3168  0.0209  0.1719
18623TIP3    H177360   0.585   4.117  14.694  3.3392 -0.6547  0.0110
18623TIP3    H277361   0.614   4.130  14.546 -1.3916  1.1108 -0.9295
18624TIP3   OH277362   3.935   6.773   2.444 -0.1276 -0.1189 -0.4692
18624TIP3    H177363   4.002   6.707   2.461  1.7405  1.7423 -0.1390
18624TIP3    H277364   3.947   6.797   2.352 -2.6748 -2.1203 -1.4497
18625TIP3   OH277365   3.550   1.266  15.522 -0.1222  0.0027 -1.1675
18625TIP3    H177366   3.483   1.290  15.459  0.0595  3.1880 -0.3083
18625TIP3    H277367   3.507   1.274  15.608  0.6559 -0.4537 -0.7226
18626TIP3   OH277368   3.307   5.742   1.554 -0.2046 -0.1385  0.5506
18626TIP3    H177369   3.393   5.783   1.547 -1.3111  2.0996 -1.4696
18626TIP3    H277370   3.304   5.678   1.483 -0.9347  1.4423 -0.9259
18627TIP3   OH277371   5.082   4.337   2.764 -0.5663 -0.0745  0.7338
18627TIP3    H177372   5.126   4.285   2.697 -0.8406  1.7462 -0.9379
18627TIP3    H277373   5.153   4.378   2.813 -0.2597  2.3544 -1.5559
18628TIP3   OH277374   0.247   4.329   2.424 -0.1001 -0.9684  0.4209
18628TIP3    H177375   0.303   4.395   2.383  0.4934 -2.0923 -0.6544
18628TIP3    H277376   0.251   4.348   2.518 -0.3231  0.7886  0.1058
18629TIP3   OH277377   4.661   2.698   1.776 -0.2204 -0.3627 -0.4986
18629TIP3    H177378   4.699   2.622   1.820  0.1687 -1.1352 -2.0828
18629TIP3    H277379   4.592   2.662   1.720 -0.4532  0.5167 -0.7941
18630TIP3   OH277380   4.777   3.055   2.932  0.2207 -0.1430  1.1156
18630TIP3    H177381   4.771   3.140   2.890  0.7039 -1.0618 -0.9721
18630TIP3    H277382   4.870   3.033   2.929 -0.1934 -2.0414 -1.3371
18631TIP3   OH277383   6.132   0.531   4.162  0.5096 -0.8047 -0.0566
18631TIP3    H177384   6.161   0.574   4.081 -0.2760 -3.3759 -1.8322
18631TIP3    H277385   6.159   0.440   4.152 -0.9518 -1.5222  1.8989
18632TIP3   OH277386   6.748   4.243   5.267  0.6157 -0.5142  0.1425
18632TIP3    H177387   6.799   4.321   5.284  1.1373 -0.6274 -0.8347
18632TIP3    H277388   6.689   4.236   5.342 -1.3637  2.3231 -0.9803
18633TIP3   OH277389   0.047   3.633  14.394 -0.0244  0.0562  0.1279
18633TIP3    H177390   0.069   3.714  14.349 -0.2210  0.6445  1.0686
18633TIP3    H277391  -0.033   3.652  14.442  0.4005 -0.4163  1.0621
18634TIP3   OH277392   4.935   6.042   3.748 -0.0960 -0.0104 -0.1519
18634TIP3    H177393   5.020   6.031   3.793  0.4572  0.9179 -0.9420
18634TIP3    H277394   4.874   6.064   3.818  0.7350  1.3056  0.1946
18635TIP3   OH277395   0.179   2.589   5.119 -0.4487 -0.2920 -0.7279
18635TIP3    H177396   0.265   2.631   5.127  0.0558 -1.0240 -2.0009
18635TIP3    H277397   0.187   2.509   5.171 -1.4791  1.1600  1.8754
18636TIP3   OH277398   2.789   1.684  11.692 -0.7111 -0.7768  0.7343
18636TIP3    H177399   2.716   1.732  11.654  1.0883  1.3510 -0.3113
18636TIP3    H277400   2.844   1.660  11.618  0.6982 -0.4257  1.6084
18637TIP3   OH277401   4.654   3.907   2.178 -0.1054 -0.2272 -0.5360
18637TIP3    H177402   4.652   4.002   2.171 -0.9466 -0.3694 -2.7153
18637TIP3    H277403   4.733   3.889   2.229  0.0388  1.6172 -0.0353
18638TIP3   OH277404   5.696   2.186  14.613 -0.0963 -0.7057  0.4450
18638TIP3    H177405   5.703   2.183  14.518  0.0452 -0.6369  0.4533
18638TIP3    H277406   5.640   2.111  14.635 -3.0605  1.2239  0.0263
18639TIP3   OH277407   1.301   2.873  14.811 -0.0051  0.3028 -0.0855
18639TIP3    H177408   1.364   2.937  14.778 -1.4443  0.8202 -2.0253
18639TIP3    H277409   1.351   2.793  14.822  0.9538  0.6087 -1.8730
18640TIP3   OH277410   5.494   4.970  14.497 -0.3982 -0.3379 -0.3690
18640TIP3    H177411   5.515   4.882  14.464 -0.4590 -0.9586  1.1669
18640TIP3    H277412   5.549   4.980  14.574 -0.9692  0.6697 -0.0789
18641TIP3   OH277413   0.130   2.671  16.867 -0.1994 -0.3787 -0.5826
18641TIP3    H177414   0.111   2.738  16.802  0.0955  1.0485  0.7672
18641TIP3    H277415   0.117   2.588  16.820 -0.5454  0.5969 -2.2810
18642TIP3   OH277416   5.625   3.282   0.537  0.4786  0.2144 -0.0388
18642TIP3    H177417   5.572   3.322   0.606  0.7871 -0.3265  0.5299
18642TIP3    H277418   5.689   3.349   0.513  2.0070 -0.4232  2.0094
18643TIP3   OH277419   1.077   1.113  16.237 -0.2025  0.7518 -0.0328
18643TIP3    H177420   1.063   1.187  16.178  0.4563  0.7370 -0.2222
18643TIP3    H277421   1.169   1.088  16.223 -0.0670  0.6689  0.9053
18644TIP3   OH277422   3.401   6.600   3.446  0.0958  0.7253  0.0757
18644TIP3    H177423   3.320   6.557   3.419  0.0270  0.2814  0.9463
18644TIP3    H277424   3.406   6.585   3.541  0.5599  1.8307  0.2462
18645TIP3   OH277425   2.583   6.378  11.132  0.7218 -0.1054  0.4010
18645TIP3    H177426   2.566   6.332  11.049 -0.0979  1.2562 -0.2166
18645TIP3    H277427   2.646   6.322  11.177 -1.6159 -2.8423  0.5519
18646TIP3   OH277428   6.061   1.414  10.368  0.2554  0.0393 -0.2531
18646TIP3    H177429   5.984   1.362  10.386  0.5343  0.1010  1.2247
18646TIP3    H277430   6.118   1.401  10.444  0.6541  1.8807 -0.1727
18647TIP3   OH277431   3.126   1.766  16.302  0.2265 -0.7431 -0.1621
18647TIP3    H177432   3.131   1.671  16.295  2.9289 -0.8036  1.3441
18647TIP3    H277433   3.074   1.781  16.381 -0.3182 -0.9312 -0.4751
18648TIP3   OH277434   2.666   0.118  12.694  0.3359 -0.1945 -0.2110
18648TIP3    H177435   2.712   0.035  12.688 -0.7749 -0.7290 -2.1757
18648TIP3    H277436   2.634   0.121  12.785  2.3915 -0.7415  0.5803
18649TIP3   OH277437   5.754   5.972  14.123  0.3642  0.6068  0.2224
18649TIP3    H177438   5.734   5.925  14.042 -1.2510  1.2050  0.2525
18649TIP3    H277439   5.795   6.054  14.093 -2.0928  1.7865 -0.1710
18650TIP3   OH277440   3.767   5.102  14.439 -0.5804 -0.2421 -0.3220
18650TIP3    H177441   3.752   5.156  14.516 -0.4797 -0.2956 -0.2653
18650TIP3    H277442   3.708   5.027  14.449  1.6636 -1.9302  1.3033
18651TIP3   OH277443   6.009   4.977   0.731 -0.3463 -0.1735 -0.1272
18651TIP3    H177444   5.992   5.054   0.785 -0.8296 -0.1499 -0.3100
18651TIP3    H277445   6.089   4.939   0.768 -0.8973 -0.3993  0.8789
18652TIP3   OH277446   3.407   0.683   5.700  0.0334 -0.2910 -0.4912
18652TIP3    H177447   3.460   0.676   5.779 -0.6562  2.5290  0.3167
18652TIP3    H277448   3.335   0.621   5.713 -0.0627  0.1351  1.1073
18653TIP3   OH277449   5.604   0.494   3.197  0.2572  0.4355 -0.0223
18653TIP3    H177450   5.661   0.421   3.218 -0.2560  0.2943  0.9522
18653TIP3    H277451   5.554   0.465   3.121  0.1041 -0.2038  0.3171
18654TIP3   OH277452   2.300   0.087  15.986  0.1597 -0.2144  0.1227
18654TIP3    H177453   2.222   0.118  16.033  1.6846  0.8649  2.0776
18654TIP3    H277454   2.265   0.037  15.912 -2.3888  1.2621  0.2181
18655TIP3   OH277455   6.102   1.890   4.816  0.7443  0.2387 -0.1799
18655TIP3    H177456   6.045   1.929   4.881 -0.6852 -2.0990  0.0779
18655TIP3    H277457   6.062   1.806   4.795  2.9642 -0.5821 -1.5950
18656TIP3   OH277458   3.079   2.856   3.886 -0.0762  0.0952 -0.3830
18656TIP3    H177459   3.103   2.899   3.804  0.2915 -0.9824 -0.8565
18656TIP3    H277460   3.028   2.780   3.859 -4.2676  2.2722  0.5408
18657TIP3   OH277461   3.811   0.149  11.008  0.5276 -0.2177  0.0863
18657TIP3    H177462   3.846   0.064  10.984  1.1828  0.4697 -1.5568
18657TIP3    H277463   3.886   0.198  11.043  0.4702  0.1348 -0.2715
18658TIP3   OH277464   5.959   6.052   0.730 -0.2420 -0.3564 -0.2241
18658TIP3    H177465   5.983   5.964   0.759  0.0350 -0.3128 -0.3078
18658TIP3    H277466   5.999   6.110   0.794  0.5257 -0.2536 -0.7738
18659TIP3   OH277467   5.515   5.570   5.546 -0.1536 -0.2639  0.1673
18659TIP3    H177468   5.497   5.566   5.640 -0.7895 -0.6228  0.0375
18659TIP3    H277469   5.532   5.480   5.521  1.0973 -0.0354  0.1281
18660TIP3   OH277470   1.149   2.672  11.360  0.1294  0.5457 -0.3028
18660TIP3    H177471   1.109   2.611  11.421 -4.0104  0.6761 -2.5405
18660TIP3    H277472   1.121   2.759  11.390  1.4299  0.9659 -0.2162
18661TIP3   OH277473   4.432   6.493   2.632  0.8659  0.1855 -0.4630
18661TIP3    H177474   4.404   6.402   2.630  0.6791  0.2371 -0.1954
18661TIP3    H277475   4.420   6.521   2.723 -1.8192  1.3196 -1.0613
18662TIP3   OH277476   1.230   5.031  16.715 -0.1271 -0.0947  0.0364
18662TIP3    H177477   1.261   5.084  16.641 -1.3660 -0.0091 -0.4470
18662TIP3    H277478   1.242   5.087  16.792  0.1818  0.2322 -0.2476
18663TIP3   OH277479   3.303   2.768  15.184 -0.0806 -0.5163  0.2659
18663TIP3    H177480   3.274   2.700  15.123  0.3982 -0.9930  0.5649
18663TIP3    H277481   3.324   2.843  15.128 -2.4068  0.0742  0.0570
18664TIP3   OH277482   1.032   3.911  15.126  0.0686 -0.1409 -0.5886
18664TIP3    H177483   0.989   3.997  15.122  1.1628  0.4792  0.3670
18664TIP3    H277484   1.097   3.920  15.196  2.1397 -0.8401 -2.3119
18665TIP3   OH277485   5.942   5.110   2.132 -0.6727 -0.0717  0.8001
18665TIP3    H177486   6.011   5.095   2.197 -0.9152 -0.8334  0.8878
18665TIP3    H277487   5.929   5.025   2.091 -1.6257  0.0442  0.8500
18666TIP3   OH277488   3.641   0.007   2.694 -0.7740 -0.0141  0.0775
18666TIP3    H177489   3.662   0.084   2.747 -2.8478  1.0326 -0.4863
18666TIP3    H277490   3.699  -0.062   2.727 -0.1292  1.3044  1.8681
18667TIP3   OH277491   6.603   1.540  16.873 -0.1520 -0.1985 -0.5882
18667TIP3    H177492   6.648   1.474  16.820  1.2364 -1.9512  2.5168
18667TIP3    H277493   6.511   1.513  16.872  0.1126 -1.1282 -0.8057
18668TIP3   OH277494   1.804   5.553  13.779  0.5661  0.1093 -0.1423
18668TIP3    H177495   1.796   5.472  13.728 -1.6991  0.8860 -1.1559
18668TIP3    H277496   1.716   5.569  13.813  1.2889  1.4046  1.2448
18669TIP3   OH277497   5.073   6.540  13.199  0.2892  0.5449  0.2270
18669TIP3    H177498   5.012   6.492  13.255  1.5316 -0.4318  0.8107
18669TIP3    H277499   5.023   6.614  13.166 -1.8568 -1.2988 -0.9904
18670TIP3   OH277500   5.576   3.489   1.284  0.0528 -0.3226 -0.2557
18670TIP3    H177501   5.584   3.504   1.378 -0.9820  0.5936 -0.3003
18670TIP3    H277502   5.654   3.438   1.261 -0.4530 -1.9193  1.3598
18671TIP3   OH277503   5.128   2.647  15.508  0.5419 -0.1372  0.4354
18671TIP3    H177504   5.189   2.709  15.470 -0.0944 -1.0952 -2.3890
18671TIP3    H277505   5.070   2.700  15.563 -1.0182  2.2149 -3.1091
18672TIP3   OH277506   3.834   2.686   2.259  0.5186  0.3531 -0.3205
18672TIP3    H177507   3.790   2.602   2.266 -1.6233  1.3842 -0.6488
18672TIP3    H277508   3.807   2.734   2.337  0.3520  1.3272 -0.9564
18673TIP3   OH277509   2.299   5.582   2.673  0.2364 -0.9916  0.2198
18673TIP3    H177510   2.381   5.548   2.710 -0.1341 -0.9883  1.0870
18673TIP3    H277511   2.246   5.602   2.750 -0.1618  0.0572 -0.3154
18674TIP3   OH277512   6.366   4.381   5.578 -0.8056  0.1140  0.0877
18674TIP3    H177513   6.413   4.463   5.566  1.6630 -1.1847  0.1876
18674TIP3    H277514   6.366   4.366   5.673 -1.0346 -0.1246  0.0528
18675TIP3   OH277515   3.305   0.170   2.361  0.2293  0.3400 -0.1405
18675TIP3    H177516   3.389   0.136   2.392  0.8180  0.8009 -1.2017
18675TIP3    H277517   3.301   0.145   2.269 -1.4627 -0.9461  0.2296
18676TIP3   OH277518   5.434   3.607   0.546  0.5162  0.4326 -0.1892
18676TIP3    H177519   5.528   3.627   0.541  0.6896 -0.0584  0.8347
18676TIP3    H277520   5.422   3.571   0.634 -0.9718  2.2186  0.3976
18677TIP3   OH277521   2.563   3.819   1.799  0.4073  0.4490  0.5585
18677TIP3    H177522   2.506   3.795   1.872 -0.1366  1.0123  0.3238
18677TIP3    H277523   2.516   3.789   1.721  0.1894  1.3579  0.3313
18678TIP3   OH277524   1.195   5.788   4.907 -0.4595 -0.3086  0.6807
18678TIP3    H177525   1.280   5.769   4.946 -0.3910  0.3729  0.8852
18678TIP3    H277526   1.194   5.740   4.824  1.1746  1.6874 -0.5931
18679TIP3   OH277527   3.045   5.683   3.403 -0.2573 -0.6011  0.3626
18679TIP3    H177528   3.138   5.664   3.392 -0.1676 -1.1264  1.8617
18679TIP3    H277529   3.002   5.602   3.375 -0.0564 -1.6932  2.9161
18680TIP3   OH277530   6.380   1.517  11.894  0.1807 -0.5728 -0.3672
18680TIP3    H177531   6.423   1.544  11.975 -1.1422  0.7279 -0.0427
18680TIP3    H277532   6.364   1.423  11.906 -2.2557 -0.0071  2.0858
18681TIP3   OH277533   2.979   5.317   3.649  0.3454 -0.2451  0.2850
18681TIP3    H177534   3.069   5.286   3.662  1.8250  3.5825  0.6995
18681TIP3    H277535   2.980   5.407   3.683 -3.7623 -0.0975  0.4961
18682TIP3   OH277536   5.580   3.806   6.290  0.0519  0.1237  0.1645
18682TIP3    H177537   5.616   3.729   6.335 -1.3060 -0.4427  0.3120
18682TIP3    H277538   5.501   3.828   6.339  0.0333  1.1890 -0.3148
18683TIP3   OH277539   6.813   3.107  15.135 -0.3715 -0.0515  0.0647
18683TIP3    H177540   6.859   3.152  15.064 -0.6794  1.2475  0.6752
18683TIP3    H277541   6.814   3.015  15.108  0.7138  0.2272 -0.9589
18684TIP3   OH277542   5.056   1.795  15.269 -0.3808 -0.3221 -0.6929
18684TIP3    H177543   5.084   1.766  15.356  1.8028  0.5058 -1.0397
18684TIP3    H277544   4.976   1.844  15.284  0.9925  1.5335  1.2033
18685TIP3   OH277545   1.943   3.503  16.322 -0.7824 -0.4092  0.0291
18685TIP3    H177546   2.037   3.497  16.305 -0.6171 -1.2498  1.0837
18685TIP3    H277547   1.908   3.418  16.295 -1.4315  0.2845 -1.3670
18686TIP3   OH277548   4.856   4.173   5.113 -0.4510  0.0604 -0.0803
18686TIP3    H177549   4.818   4.174   5.025  0.8203 -0.2963 -0.6405
18686TIP3    H277550   4.903   4.256   5.120  0.5544 -0.4870 -0.2352
18687TIP3   OH277551   0.806   0.058   2.390  0.0946 -0.1785 -0.1015
18687TIP3    H177552   0.779  -0.003   2.322 -0.1437 -0.1521 -0.0337
18687TIP3    H277553   0.796   0.145   2.351 -1.3223 -0.0965  0.3932
18688TIP3   OH277554   0.575   6.681   1.194 -0.2433  0.3855  0.2251
18688TIP3    H177555   0.592   6.618   1.124 -0.5406 -0.0976  0.5841
18688TIP3    H277556   0.635   6.655   1.264  1.0268  1.6831 -0.3282
18689TIP3   OH277557   1.993   3.088   1.281 -0.2635  0.0365 -0.0280
18689TIP3    H177558   1.920   3.131   1.325 -1.2048 -0.2019 -1.2964
18689TIP3    H277559   1.953   3.012   1.238  1.0206 -1.0211  0.5703
18690TIP3   OH277560   4.220   3.020  13.876 -0.6686 -0.0373 -0.3365
18690TIP3    H177561   4.305   3.023  13.832 -0.0391  1.6393  0.8958
18690TIP3    H277562   4.175   3.099  13.845 -1.4429 -0.4781 -0.3346
18691TIP3   OH277563   4.467   4.211  14.014 -0.8579 -0.0155 -0.1765
18691TIP3    H177564   4.504   4.275  14.075  0.0215 -0.4812 -0.2105
18691TIP3    H277565   4.429   4.144  14.070  0.6898 -0.8759 -0.0950
18692TIP3   OH277566   5.642   0.181  13.871  0.1666 -0.2807  0.6824
18692TIP3    H177567   5.707   0.118  13.839  1.3868  0.7892  0.9849
18692TIP3    H277568   5.610   0.143  13.952 -1.2008 -1.8487 -0.5079
18693TIP3   OH277569   5.582   1.212   1.044 -0.0462  0.2948 -0.4514
18693TIP3    H177570   5.502   1.176   1.082 -0.8830  1.5598 -0.9460
18693TIP3    H277571   5.587   1.173   0.956 -0.3010  0.4487 -0.5363
18694TIP3   OH277572   3.033   3.129  14.813 -0.1552  0.2314 -0.0718
18694TIP3    H177573   3.014   3.185  14.738 -0.8505  0.5617  0.3382
18694TIP3    H277574   2.972   3.057  14.806 -0.2509  0.2835  0.1926
18695TIP3   OH277575   5.672   6.385  16.052 -0.2158 -0.1749  0.2075
18695TIP3    H177576   5.700   6.371  16.143  0.5293  1.5779  0.2943
18695TIP3    H277577   5.749   6.422  16.009 -0.5603 -0.9898 -1.1700
18696TIP3   OH277578   0.413   2.338   5.119 -0.1123  0.2023  0.1711
18696TIP3    H177579   0.460   2.339   5.036  0.8720  0.1246  0.7116
18696TIP3    H277580   0.465   2.280   5.175  0.4043  1.8711  1.5011
18697TIP3   OH277581   3.509   5.817   1.077 -0.0482 -0.0504  0.6036
18697TIP3    H177582   3.521   5.901   1.122 -0.5140 -1.3210  3.2772
18697TIP3    H277583   3.564   5.756   1.126  0.2731 -1.3490 -1.2781
18698TIP3   OH277584   1.348   4.702  15.569  0.2345  0.1031  0.2162
18698TIP3    H177585   1.329   4.638  15.500  0.4996  2.0538 -1.7986
18698TIP3    H277586   1.267   4.709  15.619 -1.0215  0.7601 -1.7855
18699TIP3   OH277587   4.240   5.632   5.514  0.1984 -0.1750  0.5588
18699TIP3    H177588   4.209   5.669   5.597 -0.6679 -0.6259  0.4413
18699TIP3    H277589   4.291   5.702   5.474  1.5475 -0.2885  1.9648
18700TIP3   OH277590   1.904   2.774  12.040 -0.4690  0.3951 -0.5553
18700TIP3    H177591   1.991   2.776  12.000 -0.4052 -0.6936 -0.4858
18700TIP3    H277592   1.878   2.867  12.045  1.0299  0.7926  0.1937
18701TIP3   OH277593   2.229   5.203  16.508 -0.1777  0.4419 -0.1070
18701TIP3    H177594   2.298   5.266  16.492 -0.3349  0.2279 -1.7659
18701TIP3    H277595   2.164   5.251  16.559 -0.1269  1.5323 -1.0300
18702TIP3   OH277596   3.768   1.145  11.276 -0.4412 -0.3762 -0.1796
18702TIP3    H177597   3.840   1.161  11.216 -0.5844 -0.9996 -0.5278
18702TIP3    H277598   3.799   1.073  11.332 -0.5250 -0.1757  0.1309
18703TIP3   OH277599   3.038   2.698  13.805  0.2742 -0.4927  0.6642
18703TIP3    H177600   3.101   2.627  13.792  0.1885 -0.5195  0.3904
18703TIP3    H277601   3.009   2.720  13.717  1.0759  0.5836  0.6475
18704TIP3   OH277602   2.840   0.689   2.785  0.5066  0.2539  0.2622
18704TIP3    H177603   2.886   0.771   2.766 -0.1074  0.2798 -1.2785
18704TIP3    H277604   2.851   0.637   2.705 -0.9776 -0.2701  0.3756
18705TIP3   OH277605   1.876   1.748   5.703 -0.1028  0.0604  0.2256
18705TIP3    H177606   1.826   1.828   5.716  2.5800  1.7320  0.9846
18705TIP3    H277607   1.879   1.707   5.790 -0.5163 -0.2722  0.0846
18706TIP3   OH277608   2.168   5.248   5.970  0.5697 -0.0148  0.7707
18706TIP3    H177609   2.100   5.212   5.913 -0.6523  2.7249  0.3460
18706TIP3    H277610   2.128   5.248   6.057  0.4159  0.5816  0.7063
18707TIP3   OH277611   4.345   2.624   4.875 -0.1243  0.0238  0.0385
18707TIP3    H177612   4.429   2.578   4.873  0.0768  0.3986 -0.8681
18707TIP3    H277613   4.363   2.706   4.921  0.0685  0.2171 -0.3810
18708TIP3   OH277614   2.123   2.029  13.695 -0.6215  0.2392  0.3802
18708TIP3    H177615   2.108   1.960  13.630 -2.2902 -1.2336  2.2208
18708TIP3    H277616   2.035   2.060  13.717  0.0066  1.6593  0.9580
18709TIP3   OH277617   3.703   6.231   3.197 -0.4800  0.4166 -0.6282
18709TIP3    H177618   3.697   6.267   3.285  0.0501  0.3138 -0.5421
18709TIP3    H277619   3.633   6.274   3.148 -1.1775  0.0059 -0.0006
18710TIP3   OH277620   0.511   6.291  13.265 -0.4304 -0.1036 -0.0731
18710TIP3    H177621   0.486   6.201  13.246 -1.0997  0.6948 -3.8723
18710TIP3    H277622   0.606   6.289  13.272 -0.2764 -0.9347 -1.8265
18711TIP3   OH277623   1.990   2.679   3.359 -0.4199  0.4623 -0.0784
18711TIP3    H177624   1.957   2.769   3.354 -0.0723  0.6764  1.1199
18711TIP3    H277625   1.912   2.627   3.378 -0.5860  0.5382 -0.5385
18712TIP3   OH277626   0.043   1.869   5.538 -0.0231  0.1052  0.6180
18712TIP3    H177627  -0.009   1.947   5.559  0.8129  0.1130  2.9651
18712TIP3    H277628   0.133   1.893   5.560  0.6583 -0.7146 -1.0726
18713TIP3   OH277629   1.815   4.677  11.822  0.3759  0.1011 -0.0523
18713TIP3    H177630   1.783   4.677  11.912  0.0575  0.2149 -0.1627
18713TIP3    H277631   1.898   4.630  11.826  0.7335  0.7469  0.4306
18714TIP3   OH277632   6.554   4.477  15.895  0.7042 -0.5366 -0.1893
18714TIP3    H177633   6.473   4.430  15.872  0.0619  0.6023 -0.3386
18714TIP3    H277634   6.607   4.474  15.815 -0.8516  2.0284 -1.4720
18715TIP3   OH277635   5.885   4.837   5.008  0.0285 -0.2627 -0.4220
18715TIP3    H177636   5.966   4.812   4.964 -1.1525  0.0842 -2.9558
18715TIP3    H277637   5.859   4.758   5.056  0.3026 -1.4207 -2.1042
18716TIP3   OH277638   3.511   3.750   4.857  0.2659  0.1183  0.1071
18716TIP3    H177639   3.566   3.820   4.824  0.8515 -0.9796 -1.4054
18716TIP3    H277640   3.552   3.722   4.938  1.3675  0.0187 -0.4663
18717TIP3   OH277641   2.397   5.875   0.094  0.3099  0.4908  0.0073
18717TIP3    H177642   2.390   5.788   0.134 -2.1019  0.6723  0.1699
18717TIP3    H277643   2.421   5.932   0.167  1.7131  0.0237 -0.0578
18718TIP3   OH277644   3.660   3.168  14.575 -0.0555 -0.4548 -0.1265
18718TIP3    H177645   3.704   3.250  14.556 -0.1566 -0.2164  0.6496
18718TIP3    H277646   3.731   3.105  14.590  0.0290 -0.6484 -1.2191
18719TIP3   OH277647   1.533   3.290   3.077 -0.3793 -0.2648 -0.0056
18719TIP3    H177648   1.553   3.358   3.141  0.0960 -2.5474  2.4769
18719TIP3    H277649   1.617   3.271   3.035 -0.7061  1.2918 -1.4382
18720TIP3   OH277650   3.789   5.507  15.628  0.2602  0.5423 -0.7458
18720TIP3    H177651   3.821   5.418  15.646 -0.9696 -0.2341 -2.1544
18720TIP3    H277652   3.723   5.523  15.695 -0.0744  0.0629 -0.9523
18721TIP3   OH277653   5.199   1.291   6.344  0.2263  0.2061 -0.0354
18721TIP3    H177654   5.248   1.272   6.264 -0.6186 -1.0361 -0.2871
18721TIP3    H277655   5.266   1.294   6.412  0.9052  0.8475 -0.7064
18722TIP3   OH277656   2.183   3.882  16.072 -0.4982  0.0629  0.2533
18722TIP3    H177657   2.252   3.944  16.094  1.5410 -1.7728 -0.6087
18722TIP3    H277658   2.131   3.874  16.152  0.3379  1.4003  0.9682
18723TIP3   OH277659   3.806   6.187   1.268 -0.1950 -0.1454 -0.1769
18723TIP3    H177660   3.769   6.269   1.299 -1.1975 -0.6601  0.0367
18723TIP3    H277661   3.731   6.126   1.265  0.3223 -0.7721 -1.3005
18724TIP3   OH277662   6.390   6.367  12.991 -0.0216 -0.2524  0.0646
18724TIP3    H177663   6.343   6.420  12.927 -0.0030 -0.3860 -0.0591
18724TIP3    H277664   6.466   6.333  12.944 -0.5661 -1.2174 -0.1539
18725TIP3   OH277665   0.841   3.337   2.512 -0.3179 -0.0191 -0.0994
18725TIP3    H177666   0.760   3.369   2.553 -0.9849 -1.7060 -0.0473
18725TIP3    H277667   0.911   3.385   2.557 -1.2742  2.1737 -0.7774
18726TIP3   OH277668   5.942   0.645   4.339  0.0853  0.5096  0.2688
18726TIP3    H177669   5.995   0.723   4.355  2.4863 -0.8849 -0.2808
18726TIP3    H277670   5.994   0.593   4.277 -0.5246 -2.3538  1.9798
18727TIP3   OH277671   3.875   5.775  14.575 -0.0071  0.1029 -0.2458
18727TIP3    H177672   3.788   5.802  14.545  0.1637  1.6198  0.5347
18727TIP3    H277673   3.931   5.781  14.497 -0.2082  1.0074 -0.3316
18728TIP3   OH277674   5.308   6.470   5.912 -0.9352 -0.3742 -0.5660
18728TIP3    H177675   5.389   6.420   5.901 -1.7596 -1.5537 -1.4538
18728TIP3    H277676   5.337   6.561   5.912  0.4126 -0.7700 -0.6819
18729TIP3   OH277677   4.976   3.358   5.719  0.2787 -0.5164  0.2924
18729TIP3    H177678   5.059   3.320   5.691  1.5146  0.6023  2.2520
18729TIP3    H277679   4.983   3.451   5.694 -0.7793 -0.5757 -0.3011
18730TIP3   OH277680   0.936   1.361   5.468  0.1601 -0.3192  0.4497
18730TIP3    H177681   0.977   1.427   5.412  0.7423  1.2691  2.6131
18730TIP3    H277682   0.865   1.326   5.415  0.8515  0.9015 -1.3729
18731TIP3   OH277683   4.602   5.144  11.654  0.2620  0.1828  0.2287
18731TIP3    H177684   4.679   5.090  11.636 -0.6788 -0.4196 -2.6330
18731TIP3    H277685   4.628   5.232  11.627 -0.2197 -0.1845 -1.6385
18732TIP3   OH277686   3.802   1.325  14.730 -0.0857 -0.7201 -0.0541
18732TIP3    H177687   3.744   1.343  14.655  1.0071  1.0386 -0.5428
18732TIP3    H277688   3.743   1.296  14.799 -1.2121 -1.6617 -1.3626
18733TIP3   OH277689   5.918   3.443  13.176 -0.2172  0.0028 -0.0748
18733TIP3    H177690   5.855   3.374  13.195 -0.1071 -0.4563 -1.3062
18733TIP3    H277691   5.896   3.513  13.238 -1.5962 -0.3473 -0.1292
18734TIP3   OH277692   2.275   0.616  14.785 -0.0411  0.4395  0.5468
18734TIP3    H177693   2.347   0.677  14.799  0.7120 -0.2725 -0.1157
18734TIP3    H277694   2.284   0.551  14.854 -0.2860  0.5729  0.7033
18735TIP3   OH277695   3.576   2.298  14.587  0.0826  0.6826 -0.2523
18735TIP3    H177696   3.569   2.212  14.546  1.6677  0.1064  0.6013
18735TIP3    H277697   3.566   2.281  14.680  1.6738  1.2133  0.0415
18736TIP3   OH277698   2.372   3.199  14.205 -0.1881 -0.2094  0.0033
18736TIP3    H177699   2.310   3.215  14.276 -0.7299  0.3528 -0.5817
18736TIP3    H277700   2.322   3.148  14.141  0.0123  0.0742 -0.3818
18737TIP3   OH277701   2.064   0.467  13.149  0.5783 -0.1574 -0.1005
18737TIP3    H177702   2.015   0.511  13.218  0.7833  0.9370 -0.6292
18737TIP3    H277703   2.036   0.375  13.153  1.5065 -0.4002  2.2388
18738TIP3   OH277704   2.033   3.235  12.096 -0.1945  0.1356 -0.4468
18738TIP3    H177705   2.095   3.284  12.151  0.2181 -0.5345 -0.2961
18738TIP3    H277706   2.034   3.280  12.012 -0.4166  0.8477 -0.0780
18739TIP3   OH277707   4.209   3.752   4.896 -0.3932 -0.2289 -0.0428
18739TIP3    H177708   4.179   3.711   4.814 -0.0914  0.7431 -0.6615
18739TIP3    H277709   4.155   3.831   4.904  0.0462  0.0376  0.3432
18740TIP3   OH277710   1.388   4.247  16.603 -0.1755 -0.5381  0.4582
18740TIP3    H177711   1.388   4.297  16.685  0.0153  0.3819 -0.0812
18740TIP3    H277712   1.299   4.212  16.595 -0.9347  1.3708 -0.0978
18741TIP3   OH277713   6.478   5.389   1.472 -0.5487 -0.2830  0.3552
18741TIP3    H177714   6.425   5.409   1.549 -2.6471  3.0974 -1.6878
18741TIP3    H277715   6.564   5.428   1.490 -0.2128 -1.6182  1.8268
18742TIP3   OH277716   2.436   1.773   4.601  0.1322  0.6227 -0.7596
18742TIP3    H177717   2.464   1.864   4.594 -1.2823  0.9864 -2.4402
18742TIP3    H277718   2.341   1.776   4.596 -0.0066 -0.8778  0.3206
18743TIP3   OH277719   4.889   0.508  17.040 -0.3674 -0.0553 -0.0140
18743TIP3    H177720   4.973   0.519  17.083 -0.7620  0.9092  0.5472
18743TIP3    H277721   4.825   0.504  17.111 -0.7731 -1.0727 -0.4187
18744TIP3   OH277722   4.320   6.307  10.864 -0.0393  0.3165  0.0744
18744TIP3    H177723   4.297   6.222  10.827  3.8300 -0.9237  0.0737
18744TIP3    H277724   4.295   6.370  10.798  0.4095 -1.2083 -1.6256
18745TIP3   OH277725   0.599   3.411   4.319  0.5611  0.2100 -0.1141
18745TIP3    H177726   0.545   3.473   4.368  1.3777  0.9861 -0.1721
18745TIP3    H277727   0.548   3.330   4.319 -0.6952  0.9689 -0.3544
18746TIP3   OH277728   6.193   1.030   2.949  0.0642 -0.4384 -1.0903
18746TIP3    H177729   6.180   0.942   2.984 -0.6333  0.1326  0.1454
18746TIP3    H277730   6.192   1.087   3.025 -0.4442  0.7468 -1.9489
18747TIP3   OH277731   0.620   4.719   5.177  0.0589  0.0776 -0.9232
18747TIP3    H177732   0.616   4.645   5.238 -1.2893  1.7340  1.0994
18747TIP3    H277733   0.662   4.682   5.099 -0.6838 -2.8471 -0.0684
18748TIP3   OH277734   6.163   5.589   5.768  0.0088  0.1606  0.1800
18748TIP3    H177735   6.145   5.683   5.774 -0.5622  0.0701 -0.0829
18748TIP3    H277736   6.233   5.574   5.832 -0.9981  0.4825  1.3889
18749TIP3   OH277737   5.805   6.536   3.908  0.1098  0.0765 -0.1234
18749TIP3    H177738   5.743   6.471   3.941  1.0190 -1.2579 -0.9305
18749TIP3    H277739   5.865   6.486   3.852  0.8824  1.6104 -0.7378
18750TIP3   OH277740   2.760   3.649   3.707  0.2199 -0.4831 -0.2841
18750TIP3    H177741   2.762   3.725   3.648  0.0768 -0.1748  0.1064
18750TIP3    H277742   2.852   3.622   3.713  0.2849 -0.2825 -0.3522
18751TIP3   OH277743   0.632   0.601  10.402  0.3433 -0.4096  0.0443
18751TIP3    H177744   0.629   0.539  10.475  0.7610  0.3412  0.7055
18751TIP3    H277745   0.541   0.609  10.374  0.1634 -0.6269  0.5554
18752TIP3   OH277746   3.835   4.023   4.618 -0.4100 -0.2396  0.4126
18752TIP3    H177747   3.775   4.015   4.543  0.0182 -1.2449  0.1684
18752TIP3    H277748   3.810   3.953   4.677  1.1785 -1.3536 -0.1713
18753TIP3   OH277749   4.224   5.047   0.717 -0.2129  0.0168  0.3653
18753TIP3    H177750   4.292   5.059   0.784 -0.0542 -0.8231  0.3656
18753TIP3    H277751   4.157   4.995   0.761  0.9411 -2.6312 -0.7503
18754TIP3   OH277752   0.488   1.289  13.363  0.0015 -0.7242  0.1806
18754TIP3    H177753   0.508   1.298  13.456 -1.4558 -3.1227  0.8189
18754TIP3    H277754   0.513   1.199  13.342 -0.4513 -0.4760 -1.5620
18755TIP3   OH277755   5.561   2.518  16.479  0.1946 -0.9894 -0.1982
18755TIP3    H177756   5.468   2.531  16.460  0.2790  0.4429  0.2730
18755TIP3    H277757   5.572   2.548  16.569  1.1900 -0.7475 -0.3836
18756TIP3   OH277758   1.426   5.669   3.822  0.0319 -0.8176  0.0741
18756TIP3    H177759   1.343   5.625   3.839  0.2665 -1.4013 -0.2716
18756TIP3    H277760   1.491   5.619   3.871  0.1102 -0.0533  0.7605
18757TIP3   OH277761   4.319   4.427  11.399  0.3819 -0.1368  0.3142
18757TIP3    H177762   4.307   4.520  11.419  0.9956  0.2222 -0.8373
18757TIP3    H277763   4.400   4.425  11.348 -0.8443 -0.9676 -1.7338
18758TIP3   OH277764   5.941   2.552   3.102 -0.0083  0.3606  0.1957
18758TIP3    H177765   5.964   2.628   3.155 -0.3835 -0.2617  1.2846
18758TIP3    H277766   5.968   2.477   3.155 -0.0156 -0.2739 -0.6802
18759TIP3   OH277767   4.318   6.522   5.481  0.7745  0.3269  0.5521
18759TIP3    H177768   4.338   6.438   5.523  1.7058  0.4149  0.3089
18759TIP3    H277769   4.393   6.538   5.423 -0.6897 -0.0495 -1.5598
18760TIP3   OH277770   5.038   1.232  16.254 -0.3166 -0.0847  0.0976
18760TIP3    H177771   5.057   1.274  16.338  0.0832 -1.6459  0.8273
18760TIP3    H277772   5.117   1.184  16.233 -1.4949 -2.3358  0.4757
18761TIP3   OH277773   5.577   2.041   5.007  0.2984 -0.3998  0.1386
18761TIP3    H177774   5.562   2.109   5.072  1.5466  0.0692 -0.0285
18761TIP3    H277775   5.637   2.081   4.944 -0.2192 -1.1258 -0.8369
18762TIP3   OH277776   3.227   5.594  13.853  0.2023 -0.1959 -0.8686
18762TIP3    H177777   3.202   5.549  13.772 -2.3792 -2.6050  1.0612
18762TIP3    H277778   3.222   5.527  13.920  2.1859  1.7246  1.3884
18763TIP3   OH277779   4.111   3.591  15.895  0.3498  0.4328  0.7982
18763TIP3    H177780   4.037   3.649  15.913  0.0515 -0.3124  2.1748
18763TIP3    H277781   4.113   3.582  15.800 -1.0928  0.7747  0.7189
18764TIP3   OH277782   4.325   0.666  12.631  0.3276  0.3287 -0.2953
18764TIP3    H177783   4.310   0.724  12.557 -0.3341  2.0210  1.1123
18764TIP3    H277784   4.308   0.719  12.708 -1.8858 -2.1114  1.0824
18765TIP3   OH277785   0.998   1.134   0.157 -0.1042 -0.6217  0.2648
18765TIP3    H177786   1.041   1.205   0.110 -0.6925  2.4203  3.9024
18765TIP3    H277787   1.067   1.099   0.215 -1.1284  1.1088  2.7029
18766TIP3   OH277788   2.130   0.648  15.501 -0.2375  0.1420  0.1998
18766TIP3    H177789   2.034   0.648  15.507 -0.1986  1.5276  1.7953
18766TIP3    H277790   2.159   0.605  15.582  0.4819  1.1051  0.4728
18767TIP3   OH277791   4.131   4.469  10.701  0.1304 -0.3958  0.1565
18767TIP3    H177792   4.151   4.398  10.640  0.3554 -0.9474  0.8587
18767TIP3    H277793   4.176   4.444  10.782  0.1763  0.5284  0.4214
18768TIP3   OH277794   3.541   3.716  13.133 -0.3710  0.3338  0.5732
18768TIP3    H177795   3.507   3.626  13.129 -0.6857  0.4182  1.3374
18768TIP3    H277796   3.475   3.769  13.088 -1.4004  0.5322  2.2566
18769TIP3   OH277797   6.777   2.020   3.649 -0.0721  0.1715 -0.5515
18769TIP3    H177798   6.735   2.105   3.640  1.4397  0.9622 -0.4798
18769TIP3    H277799   6.755   1.991   3.737  0.5172  1.1439 -0.0650
18770TIP3   OH277800   1.797   4.929   3.206  0.0397  0.3652  0.2259
18770TIP3    H177801   1.858   4.914   3.135  0.7962 -0.7920  1.0848
18770TIP3    H277802   1.778   4.842   3.241 -0.6105  0.8696  1.2019
18771TIP3   OH277803   6.499   3.366  13.380  0.4264 -0.5623 -0.3737
18771TIP3    H177804   6.530   3.333  13.295  0.9271  1.1931 -0.9081
18771TIP3    H277805   6.441   3.297  13.412  0.7784 -1.5818 -1.8140
18772TIP3   OH277806   1.243   3.664  13.202  0.3932 -0.2440 -0.0002
18772TIP3    H177807   1.268   3.705  13.285  1.4034  0.0427 -0.4324
18772TIP3    H277808   1.159   3.621  13.221  0.3701  0.2202  1.0324
18773TIP3   OH277809   4.722   3.072   2.543  0.0665 -0.3687 -0.2194
18773TIP3    H177810   4.736   3.061   2.449  2.3311 -2.7740  0.2891
18773TIP3    H277811   4.662   3.001   2.567  1.6402 -1.5169  0.5070
18774TIP3   OH277812   1.372   5.372   4.659 -0.3180  0.4206  0.3475
18774TIP3    H177813   1.413   5.427   4.725 -1.3936  0.7144  0.7958
18774TIP3    H277814   1.440   5.310   4.633  0.4818  1.0809  0.8439
18775TIP3   OH277815   3.064   0.598   4.207  0.0552  0.5236 -0.2873
18775TIP3    H177816   3.146   0.615   4.159 -0.6221  0.4971 -1.5019
18775TIP3    H277817   3.002   0.662   4.172 -0.8540 -0.4512 -0.5252
18776TIP3   OH277818   2.566   1.850  16.879  0.7334  0.0006  0.2412
18776TIP3    H177819   2.631   1.839  16.949  2.4701  1.5896 -1.0184
18776TIP3    H277820   2.496   1.901  16.919  1.4233  0.3810  1.0033
18777TIP3   OH277821   3.874   3.922   2.212  0.0815  0.0812 -0.1961
18777TIP3    H177822   3.847   3.995   2.156 -0.2266 -0.9138 -1.3892
18777TIP3    H277823   3.969   3.922   2.207  0.0165 -1.1690 -2.3274
18778TIP3   OH277824   3.175   2.918  16.501  0.1592  0.2543 -0.2205
18778TIP3    H177825   3.212   2.968  16.574 -0.3152  1.9670 -1.0977
18778TIP3    H277826   3.082   2.939  16.503 -0.2230 -1.3945 -0.0370
18779TIP3   OH277827   5.392   3.777  14.372 -0.2090 -0.0739 -0.1396
18779TIP3    H177828   5.438   3.771  14.288  0.4806  1.3736  0.1103
18779TIP3    H277829   5.319   3.715  14.364  1.6658 -2.3548 -0.6050
18780TIP3   OH277830   2.933   3.956  12.649 -0.0490  0.6360 -0.0522
18780TIP3    H177831   2.877   3.887  12.683 -0.6443  2.3311  2.6529
18780TIP3    H277832   2.872   4.017  12.607  0.4232 -0.1312 -1.9694
18781TIP3   OH277833   3.441   2.094  17.250  0.0368  0.3643 -0.0036
18781TIP3    H177834   3.513   2.037  17.278 -0.3317  0.2041  0.6596
18781TIP3    H277835   3.454   2.175  17.299 -0.5078  0.1514  0.5190
18782TIP3   OH277836   2.714   5.346  12.526  0.4101  0.0022 -0.4625
18782TIP3    H177837   2.788   5.405  12.536  0.6833 -0.0725 -1.8453
18782TIP3    H277838   2.702   5.338  12.431 -1.0117 -0.4305 -0.2656
18783TIP3   OH277839   0.234   0.092   4.555  0.1433 -0.3255  1.0571
18783TIP3    H177840   0.250   0.185   4.569  1.7648 -0.4796  0.3793
18783TIP3    H277841   0.232   0.054   4.643 -0.6886  0.3426  1.3463
18784TIP3   OH277842   1.073   4.230   0.713 -0.1123  0.0882  0.2632
18784TIP3    H177843   1.055   4.243   0.620 -1.1179 -1.2942  0.2258
18784TIP3    H277844   1.168   4.218   0.718 -0.0003  0.5865 -0.5208
18785TIP3   OH277845   5.861   5.211   0.265  0.1013  0.5369  0.3369
18785TIP3    H177846   5.818   5.127   0.282  0.8911  0.1717  0.5872
18785TIP3    H277847   5.943   5.206   0.314  1.0166  0.7040 -1.1256
18786TIP3   OH277848   2.246   6.210  16.465 -0.0850  0.2690  0.3472
18786TIP3    H177849   2.306   6.265  16.413  1.0501 -0.8722  0.4088
18786TIP3    H277850   2.246   6.126  16.420 -1.3046  0.0958  0.6271
18787TIP3   OH277851   2.369   2.461   3.930  0.5398 -0.0504  0.0361
18787TIP3    H177852   2.299   2.526   3.937  1.4913  0.9294  0.6623
18787TIP3    H277853   2.323   2.377   3.922 -0.7031  0.6123  0.0401
18788TIP3   OH277854   3.416   2.959  15.371  0.3867 -0.3402 -0.5291
18788TIP3    H177855   3.376   2.893  15.314 -1.7140  0.6177 -0.2329
18788TIP3    H277856   3.399   3.042  15.327  0.4051  0.2458  0.5492
18789TIP3   OH277857   2.535   6.186  12.082  0.3639  0.4404  0.3753
18789TIP3    H177858   2.573   6.100  12.101  1.7536  1.5834  3.4431
18789TIP3    H277859   2.577   6.245  12.145 -2.1558  2.9801 -0.1230
18790TIP3   OH277860   2.828   2.805   2.162  0.4173 -0.0515 -0.6697
18790TIP3    H177861   2.762   2.741   2.190 -0.0316 -0.9206 -3.4008
18790TIP3    H277862   2.821   2.876   2.226 -1.3374 -1.2929  0.6216
18791TIP3   OH277863   5.726   1.662  13.438 -0.0272  0.0859 -0.3115
18791TIP3    H177864   5.730   1.628  13.527  0.4738  1.4756  0.2291
18791TIP3    H277865   5.808   1.711  13.428 -1.1142  1.8944 -0.7006
18792TIP3   OH277866   0.860   0.175   4.690 -0.1234 -0.0420  0.7229
18792TIP3    H177867   0.779   0.123   4.691 -0.3749  0.3058 -0.3378
18792TIP3    H277868   0.888   0.177   4.782 -0.7292 -1.0782  0.9530
18793TIP3   OH277869   4.684   3.852  10.640  0.3790 -0.3061 -0.1517
18793TIP3    H177870   4.757   3.868  10.580  1.2802 -2.0641  0.4329
18793TIP3    H277871   4.711   3.893  10.722 -0.3104  0.9986 -0.5414
18794TIP3   OH277872   3.654   3.316   5.352 -0.1010  0.2826 -0.0230
18794TIP3    H177873   3.580   3.343   5.298 -1.4930 -1.6104  0.7828
18794TIP3    H277874   3.726   3.301   5.290 -1.2880 -0.6660 -1.2255
18795TIP3   OH277875   5.919   4.864   1.766  0.2921  0.0716  0.4701
18795TIP3    H177876   5.995   4.809   1.747 -0.1261 -0.1712 -0.5694
18795TIP3    H277877   5.891   4.897   1.680 -0.2288  0.8908  0.9410
18796TIP3   OH277878   1.837   0.469   4.620  0.2088 -0.9571 -0.1859
18796TIP3    H177879   1.858   0.497   4.531 -0.1788  3.2042  0.7997
18796TIP3    H277880   1.920   0.475   4.668 -0.1107 -0.1667  0.3065
18797TIP3   OH277881   1.604   0.920  10.478  0.1606  0.0224  0.3030
18797TIP3    H177882   1.589   1.006  10.517  1.4248  0.5819 -0.4260
18797TIP3    H277883   1.540   0.915  10.407  1.4352  1.2524 -0.9969
18798TIP3   OH277884   3.894   4.031   0.862  0.5426 -0.1604 -0.5310
18798TIP3    H177885   3.962   3.980   0.905 -0.9144 -1.5089  0.2901
18798TIP3    H277886   3.851   3.970   0.803 -1.2514  0.0505  0.4790
18799TIP3   OH277887   1.898   5.275   3.098 -0.7323 -0.3127 -0.6695
18799TIP3    H177888   1.896   5.225   3.180  2.3110  2.1391  1.1444
18799TIP3    H277889   1.807   5.301   3.084 -1.5720 -2.0365  1.1079
18800TIP3   OH277890   0.944   2.250   0.519 -0.0393 -0.1467  0.0301
18800TIP3    H177891   0.962   2.271   0.427  2.1997 -1.7625  0.0056
18800TIP3    H277892   1.030   2.246   0.560 -0.9240 -0.5560  1.9604
18801TIP3   OH277893   6.570   2.808   5.353 -0.2856 -0.4990 -0.2954
18801TIP3    H177894   6.530   2.740   5.407 -0.9073 -0.8847 -1.2226
18801TIP3    H277895   6.507   2.880   5.356 -0.1768 -0.4040 -0.2710
18802TIP3   OH277896   3.865   1.884   0.122  0.2158 -0.2633 -0.3156
18802TIP3    H177897   3.802   1.921   0.060  1.2118  1.2865 -0.4394
18802TIP3    H277898   3.904   1.810   0.075 -1.2378 -1.0527 -0.3520
18803TIP3   OH277899   0.357   3.285  16.188 -0.0689  0.8900 -0.0583
18803TIP3    H177900   0.407   3.361  16.160 -0.3557  1.4939  1.0151
18803TIP3    H277901   0.284   3.321  16.239 -0.7619 -0.0494 -0.3555
18804TIP3   OH277902   2.401   5.979  16.432  0.5975  0.2517 -0.1859
18804TIP3    H177903   2.468   5.995  16.498  0.9275 -1.1726 -0.1439
18804TIP3    H277904   2.399   5.884  16.422  1.8785  0.4514 -3.5519
18805TIP3   OH277905   2.283   2.345   0.019  0.1889  0.2820 -0.7002
18805TIP3    H177906   2.327   2.380   0.096 -0.2374  0.2117 -0.4182
18805TIP3    H277907   2.316   2.398  -0.053  1.0879 -0.0876 -0.5657
18806TIP3   OH277908   6.716   5.881   4.890 -0.1865 -0.2473 -0.3063
18806TIP3    H177909   6.760   5.951   4.842  1.3320  0.7759  2.3293
18806TIP3    H277910   6.642   5.856   4.835  1.9895 -0.0280 -3.6519
18807TIP3   OH277911   2.763   4.707  14.688  0.2480 -0.0874 -0.2931
18807TIP3    H177912   2.741   4.774  14.622  2.6890 -0.2046 -1.3399
18807TIP3    H277913   2.726   4.741  14.769  0.8817  2.2503 -0.9095
18808TIP3   OH277914   3.554   5.578  16.105  0.3795  0.0366  0.5232
18808TIP3    H177915   3.497   5.502  16.107  0.1493  0.1039 -1.2271
18808TIP3    H277916   3.550   5.615  16.193 -0.6121 -1.1629  1.0020
18809TIP3   OH277917   6.607   4.787   1.059 -0.5082 -0.4688 -0.2351
18809TIP3    H177918   6.636   4.857   1.000  0.4255 -0.9775 -0.4071
18809TIP3    H277919   6.639   4.706   1.018 -0.8306 -0.9237  0.3943
18810TIP3   OH277920   4.308   2.258   1.712  0.0092 -0.3082 -0.4690
18810TIP3    H177921   4.393   2.235   1.750  0.1315  0.1628 -0.4543
18810TIP3    H277922   4.244   2.230   1.777  0.2712  1.8612  0.8067
18811TIP3   OH277923   0.606   3.767  11.659  0.2481 -0.2518 -0.8559
18811TIP3    H177924   0.553   3.820  11.600 -0.5995 -1.4660 -1.2416
18811TIP3    H277925   0.549   3.754  11.736 -0.0014 -1.4738 -1.2245
18812TIP3   OH277926   6.605   5.219  15.318 -0.1515 -0.5582  0.9865
18812TIP3    H177927   6.635   5.131  15.341  0.0100 -1.3343 -1.8832
18812TIP3    H277928   6.684   5.273  15.323  0.0059 -0.8289  1.5145
18813TIP3   OH277929   1.460   1.642   4.915  0.2254 -0.6504  0.0559
18813TIP3    H177930   1.548   1.609   4.897  0.1858 -0.6744 -0.0984
18813TIP3    H277931   1.413   1.630   4.832  0.0736 -0.6520  0.1418
18814TIP3   OH277932   0.479   6.293   4.633  0.1990 -0.4598  0.1313
18814TIP3    H177933   0.499   6.202   4.657  1.0507 -1.0188 -2.3682
18814TIP3    H277934   0.421   6.324   4.702  0.9123 -2.4778  1.7451
18815TIP3   OH277935   4.977   3.878   2.511 -0.3417 -0.0273  0.0740
18815TIP3    H177936   4.930   3.820   2.451  0.2185  0.6746 -1.0491
18815TIP3    H277937   5.031   3.934   2.455 -0.2844  1.0719  1.1822
18816TIP3   OH277938   5.475   2.081  15.848  0.2554  0.2311 -0.0015
18816TIP3    H177939   5.391   2.064  15.889  0.7388 -0.1511  0.8576
18816TIP3    H277940   5.460   2.159  15.794 -0.4963  0.5215  0.6040
18817TIP3   OH277941   0.668   5.601   2.604 -0.4970 -0.1279 -0.5903
18817TIP3    H177942   0.658   5.585   2.510 -0.6529  0.3338 -0.6558
18817TIP3    H277943   0.746   5.551   2.628 -1.8454 -2.2529 -0.4466
18818TIP3   OH277944   2.633   2.172   1.865 -0.4639 -0.4164 -0.9073
18818TIP3    H177945   2.633   2.142   1.956 -0.5151 -0.5304 -0.9451
18818TIP3    H277946   2.726   2.185   1.844 -0.5181  1.1031 -0.3434
18819TIP3   OH277947   6.753   2.582  14.033  0.1436  0.3321 -0.2160
18819TIP3    H177948   6.795   2.530  13.964 -1.2102  0.2383 -1.0086
18819TIP3    H277949   6.821   2.642  14.062  0.7084  0.5029 -1.7824
18820TIP3   OH277950   5.517   2.850  13.792  0.0847 -0.6677  0.8247
18820TIP3    H177951   5.610   2.827  13.791  0.7913  1.5227 -2.4093
18820TIP3    H277952   5.480   2.802  13.718 -0.5325  1.0045 -0.0066
18821TIP3   OH277953   0.873   3.278   0.995  0.2275 -0.1508  0.4144
18821TIP3    H177954   0.932   3.245   1.063  0.9779  0.8071  0.2521
18821TIP3    H277955   0.926   3.341   0.946 -0.2413 -0.9370 -1.1820
18822TIP3   OH277956   6.510   2.309  17.175 -0.1140 -0.5376  0.8499
18822TIP3    H177957   6.474   2.273  17.256 -0.0140  0.6733  1.4566
18822TIP3    H277958   6.519   2.402  17.192 -2.5848  0.2545 -1.4330
18823TIP3   OH277959   6.350   3.573  12.914  0.4380  0.1057 -0.0967
18823TIP3    H177960   6.279   3.538  12.969  0.6151  0.2404  0.2244
18823TIP3    H277961   6.311   3.584  12.828  0.7609 -2.1997 -0.5837
18824TIP3   OH277962   1.417   4.109  16.917 -0.0897  0.0210  0.2112
18824TIP3    H177963   1.404   4.058  16.837 -1.8830  3.0702 -1.6369
18824TIP3    H277964   1.339   4.092  16.970  0.6012 -1.1728  0.8912
18825TIP3   OH277965   0.152   6.063   0.370 -0.2167 -0.2660  0.0036
18825TIP3    H177966   0.147   6.136   0.309 -1.4561  2.0780  2.6728
18825TIP3    H277967   0.201   6.098   0.445  1.1670 -2.9530  0.4738
18826TIP3   OH277968   5.762   1.670  11.426 -0.4430  0.2548  0.2126
18826TIP3    H177969   5.747   1.605  11.358  1.5477 -1.2611  1.1312
18826TIP3    H277970   5.833   1.724  11.392 -0.9527  0.9147  0.1733
18827TIP3   OH277971   1.486   0.638   5.443  0.2746 -0.3418 -0.8703
18827TIP3    H177972   1.489   0.684   5.359 -0.7514 -0.1096 -0.7934
18827TIP3    H277973   1.497   0.707   5.508 -0.6045 -0.2873 -0.7729
18828TIP3   OH277974   2.014   2.885   2.458  0.4395  0.2020 -0.2283
18828TIP3    H177975   2.053   2.842   2.382  3.3140 -0.5819  1.5413
18828TIP3    H277976   2.048   2.975   2.454  0.4814  0.1987  0.0345
18829TIP3   OH277977   5.733   3.272   2.446  0.4736  0.3099  0.3119
18829TIP3    H177978   5.639   3.278   2.431  0.7372  1.7178 -0.9806
18829TIP3    H277979   5.744   3.192   2.497 -1.2409 -0.7966 -0.9654
18830TIP3   OH277980   3.658   6.707   2.150 -0.5094  0.6065  0.2037
18830TIP3    H177981   3.604   6.737   2.077  0.2481  1.2068 -0.1184
18830TIP3    H277982   3.605   6.725   2.228 -0.7627  1.2130 -0.1005
18831TIP3   OH277983   3.368   3.196   5.648 -0.8110 -0.0149  0.5320
18831TIP3    H177984   3.318   3.120   5.680 -0.8128 -0.1233  0.2734
18831TIP3    H277985   3.460   3.170   5.659 -0.8113  0.1118  0.8360
18832TIP3   OH277986   5.877   3.711  16.122 -0.4402  0.1078  0.4610
18832TIP3    H177987   5.815   3.712  16.195 -0.2085 -0.8736  0.6956
18832TIP3    H277988   5.856   3.630  16.074 -0.0948  0.3520 -0.1171
18833TIP3   OH277989   1.547   6.135   5.791 -0.0494  0.1461  0.0007
18833TIP3    H177990   1.620   6.178   5.836  0.4289 -0.5925 -0.0397
18833TIP3    H277991   1.502   6.205   5.745  0.3229  0.6964  0.4593
18834TIP3   OH277992   4.466   5.999   3.062  0.4823  0.0812 -0.5525
18834TIP3    H177993   4.540   6.051   3.094  1.0272 -1.1848  0.3177
18834TIP3    H277994   4.464   5.922   3.119 -0.6043 -0.6220 -1.4903
18835TIP3   OH277995   6.355   6.576  16.935 -0.1288 -0.2482  0.2773
18835TIP3    H177996   6.415   6.504  16.954 -1.0525 -1.6198 -1.6606
18835TIP3    H277997   6.268   6.537  16.940 -0.5876  0.2601 -2.3862
18836TIP3   OH277998   4.576   1.320   5.419 -0.2853  0.4400  0.4466
18836TIP3    H177999   4.495   1.281   5.451  1.1848 -2.3637  1.1289
18836TIP3    H278000   4.610   1.257   5.355  1.1048  1.7795 -0.1995
18837TIP3   OH278001   4.866   3.216  16.545 -0.2535 -0.4205  0.5285
18837TIP3    H178002   4.831   3.279  16.482 -0.5687 -0.6059  0.5167
18837TIP3    H278003   4.837   3.131  16.513  0.9161 -0.6617  0.0543
18838TIP3   OH278004   4.767   5.644   2.996 -0.2762 -0.1239  1.0128
18838TIP3    H178005   4.796   5.703   3.066 -1.8491  0.6984  1.0170
18838TIP3    H278006   4.845   5.593   2.974  0.7126  0.8344  2.1319
18839TIP3   OH278007   1.893   5.365  11.985  0.9149 -0.4811  0.3315
18839TIP3    H178008   1.919   5.429  11.919 -1.1863 -0.9076 -1.0109
18839TIP3    H278009   1.925   5.402  12.068  1.6299  1.2196 -0.6466
18840TIP3   OH278010   1.961   5.620   2.931  0.2557 -0.3732  0.0741
18840TIP3    H178011   2.027   5.610   3.000  0.3428 -1.1568 -0.1260
18840TIP3    H278012   2.009   5.657   2.857 -0.2654  2.8798  1.1523
18841TIP3   OH278013   3.524   2.984  14.024 -0.0034 -0.0965 -0.0256
18841TIP3    H178014   3.475   2.924  14.081 -1.6800 -0.2177 -1.5067
18841TIP3    H278015   3.475   3.066  14.029 -1.1708 -0.5529 -2.4463
18842TIP3   OH278016   3.417   4.174   3.720  0.4218  0.5682 -0.4139
18842TIP3    H178017   3.373   4.090   3.729  0.2945  0.4629 -1.7819
18842TIP3    H278018   3.510   4.152   3.726  0.3680  0.4051 -0.1827
18843TIP3   OH278019   5.381   5.315   5.858  0.0886  0.0947 -0.0712
18843TIP3    H178020   5.389   5.249   5.790 -1.1628  1.2620 -1.4240
18843TIP3    H278021   5.447   5.292   5.923 -0.0957 -2.2635 -0.6477
18844TIP3   OH278022   1.534   3.075  14.440 -0.5389 -0.2652  0.5965
18844TIP3    H178023   1.461   3.135  14.425 -0.3409  0.3169  1.8541
18844TIP3    H278024   1.571   3.060  14.353 -2.4150 -0.9480 -0.1465
18845TIP3   OH278025   1.673   2.950   3.257 -0.2307  0.2188  0.2455
18845TIP3    H178026   1.591   2.901   3.263 -0.4201  0.5407  0.3121
18845TIP3    H278027   1.646   3.040   3.242  0.1465  0.0508 -1.7535
18846TIP3   OH278028   2.275   5.287  15.753 -0.4485 -0.2768  0.4023
18846TIP3    H178029   2.336   5.322  15.818  1.2989 -0.9138 -0.8146
18846TIP3    H278030   2.289   5.341  15.675 -1.2634 -0.5987  0.0219
18847TIP3   OH278031   4.147   1.864   4.826  0.1056  0.5998  0.4871
18847TIP3    H178032   4.074   1.878   4.766  0.5430  0.7527 -0.0067
18847TIP3    H278033   4.105   1.852   4.911 -0.5280  0.1484  0.1199
18848TIP3   OH278034   2.622   0.288  16.712  0.0924 -0.4077 -0.0737
18848TIP3    H178035   2.597   0.312  16.801 -1.9692  1.2507 -1.0202
18848TIP3    H278036   2.543   0.252  16.673  0.6409 -0.0854 -1.5689
18849TIP3   OH278037   0.662   5.003   6.173  0.3909  0.0648 -0.3133
18849TIP3    H178038   0.670   5.094   6.145  0.9785 -0.6348 -2.7076
18849TIP3    H278039   0.578   4.974   6.138  0.1916 -0.3049  0.4541
18850TIP3   OH278040   4.993   4.139   1.072  0.0931 -0.2717  0.1180
18850TIP3    H178041   4.920   4.188   1.035  1.0006 -0.3796 -1.9295
18850TIP3    H278042   4.969   4.047   1.059  0.8025 -0.3070 -1.0753
18851TIP3   OH278043   3.433   6.333   4.144  0.3892 -0.4083 -0.0843
18851TIP3    H178044   3.502   6.340   4.211 -0.5579 -1.3694  1.0225
18851TIP3    H278045   3.429   6.421   4.106  1.4743 -0.0366  0.5955
18852TIP3   OH278046   2.246   6.545   3.748  0.4138 -0.2326  0.4423
18852TIP3    H178047   2.253   6.530   3.654  0.1078 -0.5960  0.4758
18852TIP3    H278048   2.297   6.474   3.787 -0.5385 -0.8547  0.5849
18853TIP3   OH278049   5.584   4.369  12.503 -0.0078  0.6472 -0.4927
18853TIP3    H178050   5.543   4.418  12.574  0.4289  0.4686 -0.1130
18853TIP3    H278051   5.518   4.305  12.477  0.1255  0.1712  0.3071
18854TIP3   OH278052   0.276   5.126   3.545 -0.3989 -0.2248 -0.4645
18854TIP3    H178053   0.193   5.157   3.582  0.0235  0.5561 -0.1726
18854TIP3    H278054   0.337   5.198   3.557  0.1791 -0.5712 -1.2221
18855TIP3   OH278055   5.667   6.467  11.664 -0.4058  0.0580 -0.0389
18855TIP3    H178056   5.613   6.392  11.689 -1.1010  0.3895 -0.5301
18855TIP3    H278057   5.609   6.543  11.673  0.2513  0.5266  0.3258
18856TIP3   OH278058   6.633   2.739  16.509  0.3998 -0.4948 -0.0843
18856TIP3    H178059   6.671   2.742  16.422  0.8397  2.5892  0.1321
18856TIP3    H278060   6.703   2.767  16.567 -1.0118  1.5631  0.7508
18857TIP3   OH278061   5.721   5.084  13.713 -0.4587  0.2005 -0.4586
18857TIP3    H178062   5.708   5.120  13.625  0.4935  2.0273  0.0899
18857TIP3    H278063   5.638   5.098  13.758 -0.6568  0.1007 -0.7912
18858TIP3   OH278064   0.201   3.618   3.556 -0.1069 -0.1327  0.0710
18858TIP3    H178065   0.107   3.633   3.555 -0.0257  0.5215  1.1224
18858TIP3    H278066   0.211   3.525   3.533 -1.1336 -0.7062  1.7807
18859TIP3   OH278067   6.442   3.737   1.474 -0.1302 -0.2021 -0.2276
18859TIP3    H178068   6.379   3.685   1.424 -0.3958  0.4050 -0.5425
18859TIP3    H278069   6.521   3.738   1.420 -0.7236  1.2598 -1.1463
18860TIP3   OH278070   3.129   0.176   0.350  0.1521 -0.1033 -0.1461
18860TIP3    H178071   3.129   0.207   0.260 -1.9617 -1.1473 -0.5666
18860TIP3    H278072   3.216   0.136   0.362  0.8926  1.0918 -1.3019
18861TIP3   OH278073   0.478   0.568   1.763  0.3839  0.0545 -0.6485
18861TIP3    H178074   0.403   0.602   1.714  0.3789 -1.4599 -1.7473
18861TIP3    H278075   0.439   0.519   1.835  0.3743  1.1723  0.1278
18862TIP3   OH278076   2.231   6.768  16.353 -0.4224  0.0621 -0.2242
18862TIP3    H178077   2.156   6.747  16.408 -0.5829 -0.8709 -0.7883
18862TIP3    H278078   2.202   6.842  16.299 -0.1743  1.1712  1.1024
18863TIP3   OH278079   1.930   1.032  13.778 -0.3858 -0.4781 -0.2025
18863TIP3    H178080   1.959   0.965  13.841 -0.1933 -0.8539 -0.6871
18863TIP3    H278081   1.904   0.982  13.701 -2.2413 -0.1582  0.1594
18864TIP3   OH278082   3.341   6.637  11.085 -0.6936  0.1409 -0.1735
18864TIP3    H178083   3.259   6.685  11.075 -0.7225 -0.1314 -1.4564
18864TIP3    H278084   3.378   6.669  11.168 -3.1108 -1.2695  1.5943
18865TIP3   OH278085   4.271   1.605  16.742  0.2173  0.1964 -0.5493
18865TIP3    H178086   4.297   1.547  16.670  0.0693 -0.3257 -0.1909
18865TIP3    H278087   4.242   1.545  16.811  3.5483  0.4291  1.2996
18866TIP3   OH278088   1.998   0.957  12.194  0.2616 -0.2125  0.3943
18866TIP3    H178089   2.076   0.908  12.169 -0.9431 -2.0115 -0.0255
18866TIP3    H278090   1.926   0.909  12.155 -0.9497  2.9276 -1.5922
18867TIP3   OH278091   2.707   1.820  13.956  0.5643 -0.1628 -0.3974
18867TIP3    H178092   2.659   1.822  13.873  2.3060  0.7446 -1.4330
18867TIP3    H278093   2.663   1.886  14.010 -0.2197 -0.3450 -0.7975
18868TIP3   OH278094   0.377   0.965  15.073 -0.1544 -0.1175 -0.2356
18868TIP3    H178095   0.312   1.027  15.040 -0.7614 -0.5774  0.0755
18868TIP3    H278096   0.326   0.895  15.114  0.5414  0.7738  2.3451
18869TIP3   OH278097   6.676   4.152  12.704  0.0796 -0.6206 -0.2453
18869TIP3    H178098   6.731   4.088  12.749 -0.3118 -0.5691  0.3106
18869TIP3    H278099   6.627   4.195  12.774  1.7657  1.6899 -0.3334
18870TIP3   OH278100   2.187   3.516   4.452 -0.1418 -0.0901 -0.0273
18870TIP3    H178101   2.111   3.535   4.398  0.8576  1.2824 -1.0354
18870TIP3    H278102   2.172   3.564   4.534 -1.3115 -1.5602  0.6511
18871TIP3   OH278103   5.278   4.359  12.706 -0.0285 -0.4289  0.1667
18871TIP3    H178104   5.360   4.407  12.700  0.0728 -0.7597 -1.7960
18871TIP3    H278105   5.223   4.412  12.765  0.1413  2.0535 -1.7555
18872TIP3   OH278106   5.971   3.421  17.226 -0.2398 -0.6112 -0.1658
18872TIP3    H178107   5.922   3.439  17.306 -1.0768 -1.3252 -0.5082
18872TIP3    H278108   6.061   3.447  17.246 -0.3854 -1.0578  1.1039
18873TIP3   OH278109   1.380   3.996  16.395 -0.6777  0.2716 -0.1879
18873TIP3    H178110   1.409   4.080  16.432 -1.1302  0.4504 -0.2200
18873TIP3    H278111   1.287   3.991  16.420 -0.0532 -1.4562  2.1005
18874TIP3   OH278112   4.311   0.839  15.811 -0.5206  0.4947  0.1642
18874TIP3    H178113   4.330   0.898  15.739 -0.4065 -0.6492 -0.7833
18874TIP3    H278114   4.336   0.752  15.778  0.4283  0.0492  1.9117
18875TIP3   OH278115   4.299   0.320  16.305  0.1777 -0.0125 -0.0661
18875TIP3    H178116   4.276   0.227  16.311  0.4288 -0.0534  0.3079
18875TIP3    H278117   4.224   0.366  16.342  0.1298 -0.0745 -0.0871
18876TIP3   OH278118   3.920   5.611  15.023  0.5805  0.1977 -0.6298
18876TIP3    H178119   3.940   5.678  14.958  1.0121  1.2354  0.5279
18876TIP3    H278120   3.979   5.630  15.096  0.7167 -1.4558 -0.2671
18877TIP3   OH278121   4.158   3.469   3.015 -0.4076  0.6051 -0.1492
18877TIP3    H178122   4.160   3.472   2.920  2.0366 -0.8832 -0.2205
18877TIP3    H278123   4.184   3.380   3.037  1.0728  1.4539  1.8967
18878TIP3   OH278124   6.021   6.477   5.792 -0.5056  0.0185  0.0766
18878TIP3    H178125   6.069   6.468   5.874 -1.5951 -0.6558  0.6579
18878TIP3    H278126   6.086   6.511   5.730  0.6311 -0.5900  0.9042
18879TIP3   OH278127   2.791   0.463   4.484  0.1769 -0.5696 -0.0164
18879TIP3    H178128   2.785   0.536   4.545  0.7852 -0.0451 -0.5794
18879TIP3    H278129   2.850   0.401   4.527 -0.3789 -0.7670  0.4846
18880TIP3   OH278130   5.380   0.550   0.530  0.5439  0.1307 -0.0431
18880TIP3    H178131   5.377   0.643   0.551 -2.9934  0.3818 -1.1271
18880TIP3    H278132   5.363   0.545   0.436 -1.3847 -1.6505  0.3288
18881TIP3   OH278133   5.337   5.222   3.333  0.4532  0.9439 -0.5648
18881TIP3    H178134   5.261   5.278   3.348 -0.2636 -0.1230 -0.0792
18881TIP3    H278135   5.360   5.189   3.420 -0.4736 -1.1571 -1.0387
18882TIP3   OH278136   1.811   3.907   2.236  0.3053 -0.1898  0.5011
18882TIP3    H178137   1.858   3.886   2.316 -2.0010  2.0915  2.6796
18882TIP3    H278138   1.844   3.993   2.210 -0.5121  0.0885  0.3296
18883TIP3   OH278139   2.988   3.151  13.594 -0.4888  0.0984 -0.2487
18883TIP3    H178140   3.028   3.210  13.657  0.6278 -0.7784 -0.0998
18883TIP3    H278141   2.972   3.205  13.517  2.3469  0.2229 -0.8491
18884TIP3   OH278142   6.594   2.239   1.606 -0.3081  0.5209 -0.4197
18884TIP3    H178143   6.679   2.274   1.579  1.1135 -0.4959  2.2943
18884TIP3    H278144   6.597   2.147   1.579  0.3515 -0.0175  1.3126
18885TIP3   OH278145   2.347   1.305   3.774 -0.2156 -0.2479 -0.0756
18885TIP3    H178146   2.306   1.293   3.860 -0.8753  0.0199 -0.3463
18885TIP3    H278147   2.294   1.253   3.714  1.2917 -1.8909 -0.0577
18886TIP3   OH278148   6.795   5.223  11.940  0.1258 -0.0020  0.0853
18886TIP3    H178149   6.718   5.217  11.997 -0.7980 -0.5613 -1.1690
18886TIP3    H278150   6.762   5.264  11.860  1.2010  0.0018 -0.3735
18887TIP3   OH278151   4.802   5.585  15.780 -0.2506  0.0515  0.0168
18887TIP3    H178152   4.739   5.576  15.709 -0.4151 -1.7274  0.3441
18887TIP3    H278153   4.887   5.566  15.739 -0.3839 -1.3288  0.3226
18888TIP3   OH278154   2.531   1.997   0.818 -1.0047  0.3297  0.5719
18888TIP3    H178155   2.523   1.950   0.901 -0.2916  3.0902  2.3186
18888TIP3    H278156   2.443   1.994   0.780 -1.2301 -1.3636  1.1481
18889TIP3   OH278157   1.962   2.419   1.097 -0.8049 -0.0694 -0.2443
18889TIP3    H178158   1.875   2.416   1.059 -0.4406  0.1863 -1.1381
18889TIP3    H278159   1.970   2.507   1.134 -1.3326 -0.4762  0.8751
18890TIP3   OH278160   5.897   3.318   1.724 -0.0210 -0.1136 -0.6157
18890TIP3    H178161   5.963   3.359   1.780 -1.0631 -2.0610  2.3342
18890TIP3    H278162   5.846   3.263   1.784 -0.8837 -2.9613 -3.6405
18891TIP3   OH278163   5.436   6.519  15.893 -0.0734 -0.5043 -0.0606
18891TIP3    H178164   5.528   6.532  15.873 -0.4231  1.0295 -0.8194
18891TIP3    H278165   5.434   6.441  15.948  1.4398 -1.8254 -1.7969
18892TIP3   OH278166   2.394   2.276   2.452 -0.3455 -0.0750 -0.3527
18892TIP3    H178167   2.404   2.213   2.380 -0.7768 -3.1904  2.0818
18892TIP3    H278168   2.307   2.314   2.440 -1.5745 -2.6077 -0.0783
18893TIP3   OH278169   1.203   1.221   0.543  0.1441  0.7151  0.3565
18893TIP3    H178170   1.156   1.209   0.625 -1.7597 -0.7144 -0.8424
18893TIP3    H278171   1.141   1.268   0.487  0.5835 -0.1090 -0.8759
18894TIP3   OH278172   6.076   4.933   4.778 -0.3646 -0.3180  0.3358
18894TIP3    H178173   6.074   4.838   4.779  1.6901 -0.4962 -2.1145
18894TIP3    H278174   5.987   4.958   4.750 -0.4086 -1.6500 -0.8344
18895TIP3   OH278175   5.581   4.503   1.246 -0.5936  0.1860  0.4565
18895TIP3    H178176   5.640   4.436   1.212  1.9806  1.8155  1.4116
18895TIP3    H278177   5.588   4.575   1.184 -0.8212  0.7599  1.0777
18896TIP3   OH278178   1.564   2.006  12.159  0.3280  0.0519  0.0655
18896TIP3    H178179   1.514   2.012  12.241  2.9459  0.1357  1.7510
18896TIP3    H278180   1.625   2.079  12.162  0.5203  0.0335 -1.9951
18897TIP3   OH278181   4.517   0.881   0.117 -0.0539 -0.4990 -0.3811
18897TIP3    H178182   4.548   0.839   0.037 -0.1314  0.4909 -0.9530
18897TIP3    H278183   4.547   0.972   0.109  1.5260 -0.7894  1.5802
18898TIP3   OH278184   0.142   2.575   4.370 -0.0352  0.3143 -0.4140
18898TIP3    H178185   0.126   2.661   4.409 -1.4751 -0.2875  0.4277
18898TIP3    H278186   0.162   2.518   4.444 -1.4602 -0.5581 -0.6434
18899TIP3   OH278187   5.421   2.680  14.930  0.2696  0.2246  0.0410
18899TIP3    H178188   5.505   2.641  14.955 -0.2618 -0.6308  0.5600
18899TIP3    H278189   5.356   2.630  14.979 -0.3445  3.5363  3.0508
18900TIP3   OH278190   3.710   5.121  15.137  0.3163  0.1337 -0.4656
18900TIP3    H178191   3.783   5.093  15.083  0.0424 -0.0676 -0.7334
18900TIP3    H278192   3.700   5.052  15.203  1.1737  0.7711  0.3622
18901TIP3   OH278193   1.621   1.091   5.133  0.4881  0.6591 -0.0521
18901TIP3    H178194   1.561   1.166   5.135 -2.6343 -1.6820  2.0590
18901TIP3    H278195   1.651   1.088   5.042  0.1222  3.9162 -0.4149
18902TIP3   OH278196   1.096   5.860  11.823  0.8947 -0.2011  0.3398
18902TIP3    H178197   1.070   5.790  11.762  1.4184 -1.4880  1.5222
18902TIP3    H278198   1.014   5.901  11.849  0.3510 -1.6868  1.1067
18903TIP3   OH278199   4.871   0.487  10.281  0.0348  0.7153 -1.3859
18903TIP3    H178200   4.779   0.462  10.281  0.4351 -1.2196  1.3246
18903TIP3    H278201   4.871   0.579  10.305 -1.2151  0.0306  1.7515
18904TIP3   OH278202   5.155   4.083   0.031  0.4126 -0.2707  0.0212
18904TIP3    H178203   5.234   4.126  -0.004  0.1181 -0.3718 -0.7876
18904TIP3    H278204   5.156   3.996  -0.007 -0.6923  0.1079 -0.9440
18905TIP3   OH278205   3.480   2.518  13.852 -0.5505 -0.0817  0.1989
18905TIP3    H178206   3.516   2.465  13.923 -1.5088 -0.6848  0.2401
18905TIP3    H278207   3.453   2.600  13.895  1.0646  0.5482  0.1080
18906TIP3   OH278208   1.986   4.164  14.339 -0.5395  0.5904 -0.0844
18906TIP3    H178209   1.925   4.184  14.267 -0.0457  2.2429 -0.0783
18906TIP3    H278210   2.018   4.250  14.368  0.5313 -0.1534  1.0186
18907TIP3   OH278211   2.388   2.096  13.729 -0.3095 -0.2912 -0.0606
18907TIP3    H178212   2.392   2.164  13.662  0.8422  0.9854  1.2305
18907TIP3    H278213   2.301   2.058  13.720  0.4025 -1.4355 -3.4269
18908TIP3   OH278214   4.427   5.822  16.189  0.2458 -0.5060  0.1202
18908TIP3    H178215   4.423   5.852  16.099 -0.5499 -2.8524 -0.7006
18908TIP3    H278216   4.503   5.867  16.226  1.1635 -0.1992 -1.9978
18909TIP3   OH278217   4.108   1.382   2.996 -0.2010  0.5117 -0.2943
18909TIP3    H178218   4.181   1.385   2.934 -1.6487  0.7178 -2.0838
18909TIP3    H278219   4.046   1.447   2.963 -1.6069 -0.3003  0.6431
18910TIP3   OH278220   6.485   5.911  13.380  0.1148  0.1411 -0.1633
18910TIP3    H178221   6.540   5.983  13.349  1.6826 -1.3293 -0.9349
18910TIP3    H278222   6.469   5.857  13.303  1.0347 -1.6358  0.8237
18911TIP3   OH278223   6.187   3.629  16.985 -0.3216  0.1055 -0.0437
18911TIP3    H178224   6.162   3.664  17.070  0.3419  1.6985 -0.4784
18911TIP3    H278225   6.283   3.623  16.989 -0.3051 -0.0573 -0.5873
18912TIP3   OH278226   2.543   0.424  11.649 -0.1751 -0.6462 -0.0702
18912TIP3    H178227   2.524   0.495  11.588  1.1959 -1.1270 -1.1272
18912TIP3    H278228   2.585   0.356  11.595  0.2772 -1.4641  1.2379
18913TIP3   OH278229   0.219   6.020  14.240 -0.5427 -0.2323  0.0557
18913TIP3    H178230   0.215   6.112  14.215 -0.9519 -0.4920 -0.8583
18913TIP3    H278231   0.216   6.021  14.336  0.8858  0.7673  0.1073
18914TIP3   OH278232   4.160   6.320   2.039 -0.5339  0.0350  0.4191
18914TIP3    H178233   4.161   6.415   2.030  1.5311  0.1424  1.1433
18914TIP3    H278234   4.231   6.301   2.101  0.3179 -2.0839 -1.0803
18915TIP3   OH278235   0.999   2.668   4.940  0.0960 -0.1472 -0.1963
18915TIP3    H178236   0.998   2.613   5.018  0.4847 -1.7806 -1.3014
18915TIP3    H278237   1.078   2.721   4.948  1.0528 -1.5175 -0.2560
18916TIP3   OH278238   3.162   3.417  13.316  0.5990 -0.7139 -0.3469
18916TIP3    H178239   3.209   3.471  13.253 -0.6276  0.3694 -0.3707
18916TIP3    H278240   3.176   3.327  13.286 -0.7547 -0.1876 -2.7619
18917TIP3   OH278241   1.097   1.516   3.095 -0.0034 -0.2005 -0.2243
18917TIP3    H178242   1.133   1.555   3.015 -0.4541  0.1682 -0.2514
18917TIP3    H278243   1.091   1.422   3.075  0.9312 -0.2656 -0.2162
18918TIP3   OH278244   6.119   4.145  14.357 -0.1240  0.0097  0.0571
18918TIP3    H178245   6.146   4.220  14.303 -0.7481 -0.6162 -1.1636
18918TIP3    H278246   6.183   4.077  14.335 -0.0137 -0.0623  0.5921
18919TIP3   OH278247   6.260   4.064   0.993  0.9663  0.4145  0.3695
18919TIP3    H178248   6.286   4.146   0.951 -0.7971  0.0656 -1.5374
18919TIP3    H278249   6.235   4.089   1.082 -0.6433  2.1916 -0.5157
18920TIP3   OH278250   6.699   5.634  10.794  0.6532 -0.3714 -0.2862
18920TIP3    H178251   6.784   5.632  10.750  1.5036  0.7823  1.1968
18920TIP3    H278252   6.711   5.697  10.866 -2.0587  1.5077 -1.3006
18921TIP3   OH278253   2.798   2.886   1.906  0.6024  0.0205  0.3687
18921TIP3    H178254   2.881   2.873   1.860  0.8107 -1.8307  1.1786
18921TIP3    H278255   2.816   2.856   1.995 -1.1207 -1.1142  0.3686
18922TIP3   OH278256   4.797   5.228   6.012  0.2904  0.1284  0.0111
18922TIP3    H178257   4.705   5.206   5.997 -0.1302  2.0332 -0.4506
18922TIP3    H278258   4.797   5.279   6.093  1.0471 -0.4682  0.3983
18923TIP3   OH278259   6.141   1.651  16.413 -0.1726  0.2893 -0.6907
18923TIP3    H178260   6.134   1.720  16.480 -0.8027  1.0055 -1.4786
18923TIP3    H278261   6.235   1.633  16.407  0.1329  1.8863 -1.2623
18924TIP3   OH278262   3.467   2.538  12.381  0.4574  0.1040  0.0673
18924TIP3    H178263   3.443   2.554  12.290  0.6195  0.3445  0.0660
18924TIP3    H278264   3.393   2.573  12.432  0.6167  0.4796  0.0475
18925TIP3   OH278265   1.463   1.975   3.928 -0.3421 -0.0847  0.2956
18925TIP3    H178266   1.459   2.069   3.909 -1.0273 -0.0857  0.3925
18925TIP3    H278267   1.435   1.933   3.847 -0.0952 -0.2014  0.2713
18926TIP3   OH278268   4.698   0.128   4.383 -0.2294  0.1844  0.0388
18926TIP3    H178269   4.681   0.182   4.460 -0.3995 -1.5010  1.2607
18926TIP3    H278270   4.770   0.070   4.410  0.9751  0.7769 -1.7292
18927TIP3   OH278271   3.810   2.797   1.785  0.2463 -0.0786  0.3803
18927TIP3    H178272   3.896   2.798   1.827  0.5000  0.9256 -0.1320
18927TIP3    H278273   3.772   2.712   1.809  1.8511 -1.0293 -0.3353
18928TIP3   OH278274   4.953   4.673   0.985  0.1388  0.2237 -0.3768
18928TIP3    H178275   4.954   4.707   1.075  0.2887  1.5304 -0.8386
18928TIP3    H278276   4.864   4.641   0.972  0.1200  0.0202  0.2456
18929TIP3   OH278277   1.809   1.125  13.180  0.2573  0.0981 -0.2201
18929TIP3    H178278   1.855   1.207  13.198  0.1812  0.3766 -1.2003
18929TIP3    H278279   1.871   1.057  13.206  0.0973  0.4578  1.1419
18930TIP3   OH278280   1.253   2.617  13.800  0.7562 -0.0734  0.2638
18930TIP3    H178281   1.306   2.549  13.841 -1.8880 -1.8325  1.0431
18930TIP3    H278282   1.245   2.589  13.708 -0.4705 -0.9966  0.6214
18931TIP3   OH278283   6.400   2.876  14.223  0.0480  0.3065 -0.5583
18931TIP3    H178284   6.341   2.928  14.278  0.0066  0.0123 -0.3230
18931TIP3    H278285   6.403   2.790  14.265 -0.6608 -0.1940 -1.4956
18932TIP3   OH278286   6.328   5.812   2.297  0.1338  0.1083  0.0703
18932TIP3    H178287   6.357   5.895   2.259 -0.0758  0.5731  0.9208
18932TIP3    H278288   6.347   5.747   2.229  1.3697  0.6775 -0.1457
18933TIP3   OH278289   2.316   5.304   3.908  0.3645  0.4250 -0.0750
18933TIP3    H178290   2.400   5.340   3.939  1.4007 -1.4862 -0.5467
18933TIP3    H278291   2.272   5.275   3.988 -0.9009  3.3498  0.4354
18934TIP3   OH278292   0.783   4.577   5.354  0.3331  0.0617  0.7459
18934TIP3    H178293   0.831   4.657   5.335  0.8550  0.0857  2.0549
18934TIP3    H278294   0.836   4.507   5.315  1.0575  0.1614  1.5133
18935TIP3   OH278295   5.155   3.916  13.625 -0.2755  0.2822 -0.3552
18935TIP3    H178296   5.240   3.948  13.654 -0.2622  0.5961 -0.7362
18935TIP3    H278297   5.174   3.836  13.577 -0.3736 -0.7720  1.2662
18936TIP3   OH278298   0.139   2.224   1.813  0.0441 -0.1001  0.2427
18936TIP3    H178299   0.194   2.275   1.753 -1.1462  0.9454 -0.0051
18936TIP3    H278300   0.151   2.267   1.898  0.8591 -0.8917  0.5479
18937TIP3   OH278301   5.795   2.446   5.787 -0.3016  0.0052  0.4641
18937TIP3    H178302   5.810   2.528   5.741  1.2766 -0.1148  0.6943
18937TIP3    H278303   5.815   2.465   5.878 -2.0942 -0.0997  0.9069
18938TIP3   OH278304   0.076   5.247  14.349  0.2317 -0.0213 -0.6721
18938TIP3    H178305  -0.002   5.200  14.320 -0.6144  0.0877  1.3163
18938TIP3    H278306   0.115   5.280  14.268 -0.6148 -1.8493 -1.8915
18939TIP3   OH278307   3.680   1.598  15.115  0.2837  0.0106 -0.0373
18939TIP3    H178308   3.686   1.525  15.176  0.1171 -0.2495 -0.3319
18939TIP3    H278309   3.757   1.589  15.060 -1.3295 -1.8384 -2.1634
18940TIP3   OH278310   0.071   4.456  16.927  0.0200 -0.5836  0.1794
18940TIP3    H178311  -0.021   4.461  16.951 -0.2007  0.8552 -0.8503
18940TIP3    H278312   0.117   4.504  16.996 -0.1956  0.1620 -0.1865
18941TIP3   OH278313   4.130   4.010  14.372 -0.0430 -0.0387 -0.3342
18941TIP3    H178314   4.115   4.098  14.338  1.9198  0.5972  0.3193
18941TIP3    H278315   4.181   4.023  14.452  1.1629 -1.8002 -0.7536
18942TIP3   OH278316   6.051   0.874   4.378 -0.0274  0.1653  0.9614
18942TIP3    H178317   6.122   0.933   4.403 -1.2411  0.5476  3.8350
18942TIP3    H278318   5.972   0.925   4.389 -1.0261 -1.5301  2.1198
18943TIP3   OH278319   4.196   3.796  13.993 -0.4427  0.0730  0.0856
18943TIP3    H178320   4.159   3.816  13.907  0.0504 -1.2096 -0.4465
18943TIP3    H278321   4.254   3.721  13.978  0.9343  0.8402  1.2242
18944TIP3   OH278322   2.536   0.320   3.731  0.1773 -0.2476  0.2536
18944TIP3    H178323   2.478   0.277   3.794  0.5543 -2.8379 -1.0314
18944TIP3    H278324   2.482   0.329   3.652  1.1707 -1.9696 -0.7019
18945TIP3   OH278325   5.677   6.666  14.544  0.0195  0.6408  0.0630
18945TIP3    H178326   5.664   6.713  14.626 -0.0755 -0.8236  0.9326
18945TIP3    H278327   5.613   6.594  14.548  1.5128 -0.7681 -0.2382
18946TIP3   OH278328   2.005   1.779   4.311  0.1249 -0.4234  0.0448
18946TIP3    H178329   1.962   1.698   4.339 -0.0574  0.0328  1.1351
18946TIP3    H278330   1.934   1.843   4.306  0.4557 -0.0316  0.3875
18947TIP3   OH278331   4.709   0.732   4.922 -0.2277  0.1201  0.4306
18947TIP3    H178332   4.792   0.689   4.940  0.0580  0.2581 -0.5108
18947TIP3    H278333   4.643   0.664   4.938  0.1843 -0.5377 -0.5761
18948TIP3   OH278334   1.390   0.003   6.183  0.4366 -0.6012  0.0276
18948TIP3    H178335   1.302  -0.032   6.169  0.9938 -2.3548  0.6107
18948TIP3    H278336   1.404  -0.004   6.277  0.6738  1.0657  0.1442
18949TIP3   OH278337   4.926   0.824  16.761  0.4165  0.6053 -0.1347
18949TIP3    H178338   4.931   0.851  16.669  1.1270  1.5937  0.1817
18949TIP3    H278339   4.832   0.827  16.781  0.3746  1.9795 -0.3912
18950TIP3   OH278340   0.955   2.509  15.903  0.0655 -0.3481  0.4446
18950TIP3    H178341   0.902   2.476  15.831  1.3345 -0.8217 -0.3088
18950TIP3    H278342   1.044   2.478  15.884  1.1364  2.4258  0.3143
18951TIP3   OH278343   5.953   5.581   1.528  0.0348  0.5477  0.1491
18951TIP3    H178344   5.951   5.619   1.616 -0.4830 -0.0838  0.4193
18951TIP3    H278345   5.862   5.586   1.498  0.1562  0.4865 -0.2277
18952TIP3   OH278346   5.670   2.192   3.565  0.2239 -0.0648  0.2864
18952TIP3    H178347   5.714   2.110   3.585 -0.8616 -1.2464 -1.8572
18952TIP3    H278348   5.685   2.206   3.472 -0.9813  1.3349  0.2558
18953TIP3   OH278349   2.152   6.442  13.433 -0.7891 -0.1043  0.1418
18953TIP3    H178350   2.086   6.458  13.500 -1.2821 -1.5847  0.0548
18953TIP3    H278351   2.205   6.370  13.468 -0.3688 -0.1573 -0.5781
18954TIP3   OH278352   1.792   6.036   5.567  0.0200 -0.2690 -0.5355
18954TIP3    H178353   1.877   6.035   5.611 -0.3060  0.4067  0.1308
18954TIP3    H278354   1.732   5.995   5.629 -0.4570  0.7599 -0.2992
18955TIP3   OH278355   3.518   1.708   3.500  0.5358 -0.0948  0.4283
18955TIP3    H178356   3.532   1.702   3.594  0.0675  1.0434  0.5895
18955TIP3    H278357   3.545   1.797   3.477  1.9856 -0.7940 -0.7727
18956TIP3   OH278358   2.396   6.691  11.551 -0.1364 -0.1772  0.4530
18956TIP3    H178359   2.428   6.601  11.550  0.6444  0.0932 -0.6311
18956TIP3    H278360   2.467   6.742  11.590 -0.4748  0.0102  0.8340
18957TIP3   OH278361   1.463   6.461   0.623  0.1821 -0.2695  0.4730
18957TIP3    H178362   1.529   6.408   0.580  0.0078  0.5429 -0.8423
18957TIP3    H278363   1.379   6.429   0.589  0.0406  0.3447  0.2189
18958TIP3   OH278364   3.379   0.338   0.797  0.4179 -0.3054 -0.0248
18958TIP3    H178365   3.464   0.321   0.756  0.9366 -1.5128  1.4469
18958TIP3    H278366   3.317   0.289   0.743  0.5114  1.1662 -1.5375
18959TIP3   OH278367   4.071   2.918  10.936  0.2441  0.4778 -1.0290
18959TIP3    H178368   4.131   2.871  10.994 -1.2056  0.3017  0.3940
18959TIP3    H278369   4.042   2.852  10.874 -2.2560 -0.8439  1.3216
18960TIP3   OH278370   0.137   5.484   0.982  0.4946  0.2823  0.3467
18960TIP3    H178371   0.170   5.569   0.955  0.2144 -0.3311 -2.1952
18960TIP3    H278372   0.045   5.484   0.955  0.9089 -1.3686 -1.3066
18961TIP3   OH278373   0.813   0.125  10.505  0.2599 -0.4838 -0.3295
18961TIP3    H178374   0.902   0.134  10.540  0.6291 -0.5514 -1.2323
18961TIP3    H278375   0.756   0.144  10.580  1.0229  1.1585 -0.1350
18962TIP3   OH278376   3.938   1.803  15.243  0.2850 -0.3013 -0.5664
18962TIP3    H178377   4.006   1.742  15.271 -0.2137 -0.2417  0.8292
18962TIP3    H278378   3.937   1.794  15.148  0.6878 -1.9758 -0.4535
18963TIP3   OH278379   3.698   2.220   1.669  0.2506 -0.1560 -0.0763
18963TIP3    H178380   3.766   2.161   1.702  2.0338  1.4506 -0.6460
18963TIP3    H278381   3.685   2.193   1.578  0.6105 -0.0667 -0.1551
18964TIP3   OH278382   4.792   4.709   2.111 -0.4425 -0.5175 -0.0512
18964TIP3    H178383   4.776   4.741   2.200 -2.2572 -0.6279 -0.2932
18964TIP3    H278384   4.857   4.769   2.075 -0.3824  0.0974  1.0292
18965TIP3   OH278385   2.145   0.309   3.357  0.0076 -0.1612 -0.1967
18965TIP3    H178386   2.185   0.235   3.313  0.8234 -2.7227  4.2887
18965TIP3    H278387   2.053   0.307   3.330  0.7947 -0.0808 -3.2813
18966TIP3   OH278388   3.368   0.657  10.900  0.0761  0.1672  0.3151
18966TIP3    H178389   3.286   0.652  10.949 -0.0666  2.6025  0.4081
18966TIP3    H278390   3.348   0.613  10.817 -1.7794  1.8429 -0.2033
18967TIP3   OH278391   5.998   6.498   1.120 -0.0956  0.1907 -0.0553
18967TIP3    H178392   5.992   6.513   1.025  3.1096  0.9179 -0.2277
18967TIP3    H278393   6.005   6.403   1.128 -3.8389 -0.2571 -0.1596
18968TIP3   OH278394   4.252   3.531   4.688 -0.2247 -0.1761 -0.5903
18968TIP3    H178395   4.230   3.438   4.682 -0.3696 -0.1444 -0.5380
18968TIP3    H278396   4.294   3.551   4.604 -0.4963 -0.2059 -0.7323
18969TIP3   OH278397   3.390   2.838  12.142 -0.7461 -0.1728  0.4285
18969TIP3    H178398   3.313   2.848  12.086 -0.3688  1.2154  0.1307
18969TIP3    H278399   3.370   2.889  12.221 -0.9202 -1.4140  1.2126
18970TIP3   OH278400   6.050   4.499  12.383 -0.6949  0.9866 -0.1138
18970TIP3    H178401   6.102   4.427  12.418 -0.2729  1.4932  0.3200
18970TIP3    H278402   6.039   4.559  12.456  1.1704  2.6261 -1.0952
18971TIP3   OH278403   3.966   1.098   1.015  0.1667 -0.1132 -0.0762
18971TIP3    H178404   4.034   1.064   0.957 -0.0789 -0.2934 -0.2615
18971TIP3    H278405   3.986   1.191   1.024  0.8261 -0.2982  0.4064
18972TIP3   OH278406   4.534   2.258  10.810  0.4719  0.5264 -0.5557
18972TIP3    H178407   4.502   2.296  10.892  1.3626 -2.6057  1.3895
18972TIP3    H278408   4.461   2.206  10.778  1.3679 -1.4869  0.4923
18973TIP3   OH278409   0.406   4.572   3.891  0.5573 -0.4112 -0.2626
18973TIP3    H178410   0.330   4.629   3.882  0.6599 -0.5762 -2.8820
18973TIP3    H278411   0.381   4.492   3.845  2.0267 -0.7760 -0.4553
18974TIP3   OH278412   3.358   5.355  14.633 -0.4111  0.3659  0.6122
18974TIP3    H178413   3.323   5.330  14.718 -2.0999  1.1764  0.2073
18974TIP3    H278414   3.287   5.335  14.571  0.8304 -0.3504 -0.6275
18975TIP3   OH278415   1.401   4.606   0.833 -0.7363  1.0058  0.4069
18975TIP3    H178416   1.483   4.637   0.871 -0.3586 -0.2942  0.7152
18975TIP3    H278417   1.340   4.679   0.842  0.5297  2.1856 -0.3143
18976TIP3   OH278418   4.476   2.324   2.381  0.2331  0.0248  0.0445
18976TIP3    H178419   4.565   2.352   2.362  1.0012 -2.5680 -0.5460
18976TIP3    H278420   4.480   2.288   2.469 -0.2466 -0.0851  0.0241
18977TIP3   OH278421   4.011   1.870   1.218 -0.1720  0.3969  0.3319
18977TIP3    H178422   4.002   1.955   1.261 -2.0533  0.0785  0.6396
18977TIP3    H278423   4.019   1.807   1.289 -0.0755  0.1786  0.1302
18978TIP3   OH278424   5.996   0.967  15.552  0.2165 -0.0592  0.2001
18978TIP3    H178425   6.051   1.022  15.607 -1.9727  1.5582  0.8884
18978TIP3    H278426   5.960   0.901  15.611  0.7706 -0.6439 -0.0968
18979TIP3   OH278427   4.739   1.889   5.397  0.1741  0.0560 -0.3659
18979TIP3    H178428   4.777   1.821   5.452 -0.5852 -0.6397 -0.6899
18979TIP3    H278429   4.656   1.910   5.439 -0.2565 -0.2426 -1.0597
18980TIP3   OH278430   5.287   2.641  13.958 -0.6471 -0.1771  0.2114
18980TIP3    H178431   5.379   2.629  13.933 -0.2503 -0.5609  1.7365
18980TIP3    H278432   5.288   2.718  14.015 -1.2450 -0.2571  0.3320
18981TIP3   OH278433   2.173   1.460   0.244 -0.1413  0.0758  0.0333
18981TIP3    H178434   2.119   1.534   0.272 -0.2390 -0.4000  1.1368
18981TIP3    H278435   2.261   1.496   0.237 -0.6384  1.0226 -2.4091
18982TIP3   OH278436   0.050   6.593   2.012  0.5009 -0.1936 -0.2785
18982TIP3    H178437   0.017   6.514   2.056  0.0163  0.3869  0.4267
18982TIP3    H278438   0.143   6.597   2.037  0.4365 -0.3346 -0.0150
18983TIP3   OH278439   2.880   0.834   4.942 -0.1092  0.2348 -0.3163
18983TIP3    H178440   2.946   0.790   4.888  0.0965  0.9298 -0.6429
18983TIP3    H278441   2.928   0.902   4.988 -0.4257  0.1200  0.1925
18984TIP3   OH278442   2.477   0.271   5.949 -0.1692  0.3139 -0.0692
18984TIP3    H178443   2.477   0.333   5.877 -2.0192 -1.7425 -1.9826
18984TIP3    H278444   2.443   0.320   6.024 -0.2029  1.9420 -1.1103
18985TIP3   OH278445   4.071   5.819   0.370 -0.9020  0.3836  0.2469
18985TIP3    H178446   3.993   5.874   0.375 -0.4002  1.2991 -1.1411
18985TIP3    H278447   4.092   5.817   0.276  1.7890  1.7273  0.7287
18986TIP3   OH278448   1.306   0.969  10.643  0.2934  0.5392 -0.0875
18986TIP3    H178449   1.304   1.065  10.643 -0.5917  0.5479 -1.5801
18986TIP3    H278450   1.248   0.944  10.572  1.5408 -1.0794 -0.5989
18987TIP3   OH278451   0.952   5.590  13.530 -0.3187 -0.0252  0.5284
18987TIP3    H178452   0.930   5.637  13.449 -1.5179 -1.8462 -0.2510
18987TIP3    H278453   0.915   5.503  13.518  0.0708 -0.5491  2.7893
18988TIP3   OH278454   4.873   3.792  11.621  0.1457  0.3697 -0.2543
18988TIP3    H178455   4.784   3.811  11.650 -0.1384  1.5579 -1.7799
18988TIP3    H278456   4.879   3.696  11.623 -1.9860  0.0986 -2.3079
18989TIP3   OH278457   3.537   3.270  11.089  0.3080 -0.2267  0.1522
18989TIP3    H178458   3.533   3.354  11.043 -1.5771 -0.2193  0.2226
18989TIP3    H278459   3.622   3.269  11.132  0.1344  1.9328  0.6533
18990TIP3   OH278460   2.100   4.209   0.200 -0.2407 -0.7768  0.2524
18990TIP3    H178461   2.104   4.126   0.153 -3.0934  0.9972 -3.7046
18990TIP3    H278462   2.014   4.208   0.243  0.0386 -0.1460  0.8489
18991TIP3   OH278463   5.825   1.598  11.687 -0.1453  0.6784  0.2667
18991TIP3    H178464   5.795   1.508  11.693 -2.2688  1.3385  0.2864
18991TIP3    H278465   5.815   1.621  11.595 -2.4432  1.7386  0.7094
18992TIP3   OH278466   0.111   2.605  10.736  0.1660  0.1829 -0.4516
18992TIP3    H178467   0.061   2.671  10.783  0.7760  1.0465 -0.9982
18992TIP3    H278468   0.052   2.574  10.668 -0.0659  0.2746 -0.2938
18993TIP3   OH278469   6.453   2.988  16.480  0.6009 -0.7970 -0.0279
18993TIP3    H178470   6.543   2.956  16.485 -0.0236 -2.7311 -0.0295
18993TIP3    H278471   6.419   2.949  16.400  0.0311  0.7419 -0.5699
18994TIP3   OH278472   3.573   4.138  16.087 -0.1016 -0.2184 -0.0991
18994TIP3    H178473   3.565   4.050  16.051  1.1883  0.2608 -1.6726
18994TIP3    H278474   3.521   4.136  16.167  0.5279 -2.6101  0.3127
18995TIP3   OH278475   3.653   4.261   2.254  0.2568  0.0551 -0.4872
18995TIP3    H178476   3.725   4.286   2.312  1.3844  1.4012 -2.3287
18995TIP3    H278477   3.575   4.268   2.308  1.2656  0.9749  0.9388
18996TIP3   OH278478   6.733   3.302   3.884 -0.5193 -0.5903  0.0617
18996TIP3    H178479   6.724   3.327   3.792 -1.0057 -2.0269 -0.3049
18996TIP3    H278480   6.659   3.345   3.927 -1.8052 -1.9664 -0.6936
18997TIP3   OH278481   2.367   0.687   1.742 -0.1371 -0.5529 -0.5534
18997TIP3    H178482   2.460   0.665   1.749  1.0175  3.8138  0.9184
18997TIP3    H278483   2.332   0.671   1.829  0.0415  0.5661 -0.2564
18998TIP3   OH278484   1.763   3.449   6.681  0.2687  0.6984 -0.3125
18998TIP3    H178485   1.829   3.392   6.642  2.1372  1.8759  0.9833
18998TIP3    H278486   1.696   3.389   6.714  0.2425 -0.4871 -2.3320
18999TIP3   OH278487   5.187   3.603   0.382  0.4106 -0.1877 -0.4055
18999TIP3    H178488   5.273   3.593   0.423  0.4717 -0.1665 -0.5251
18999TIP3    H278489   5.201   3.669   0.314 -0.5465  2.6220  1.9486
19000TIP3   OH278490   1.049   0.846  10.400  0.2138  0.5834  0.3007
19000TIP3    H178491   0.983   0.777  10.388  1.1086 -0.1371 -0.6846
19000TIP3    H278492   0.998   0.926  10.414 -0.8630 -0.0125 -0.1150
19001TIP3   OH278493   1.076   1.183  12.675  0.9250  0.1420 -0.2745
19001TIP3    H178494   1.106   1.104  12.721 -0.9941 -0.7246 -0.4021
19001TIP3    H278495   1.100   1.255  12.734  2.0052 -0.5917  0.2233
19002TIP3   OH278496   1.161   2.740   6.453  0.2885  0.4096 -0.0506
19002TIP3    H178497   1.239   2.686   6.445  1.2107  0.7858  4.0113
19002TIP3    H278498   1.088   2.680   6.436  1.3144 -1.9821  3.0318
19003TIP3   OH278499   1.862   2.199  14.502  0.2648  0.2991 -0.0348
19003TIP3    H178500   1.939   2.200  14.445 -0.2058  1.5174 -0.6876
19003TIP3    H278501   1.797   2.148  14.454  0.6761 -0.8405  0.5738
19004TIP3   OH278502   1.627   1.172   6.509 -0.3608 -0.1790 -0.3751
19004TIP3    H178503   1.646   1.152   6.417  0.1277  2.8145 -1.0332
19004TIP3    H278504   1.534   1.192   6.510 -0.9171 -2.5981  0.3312
19005TIP3   OH278505   0.241   4.106  15.411  0.1694 -0.0024 -0.4658
19005TIP3    H178506   0.270   4.162  15.339  0.3723 -0.4013 -0.7002
19005TIP3    H278507   0.186   4.162  15.465  0.2717  0.3869 -0.7637
19006TIP3   OH278508   2.404   0.746  13.313 -0.2587 -0.2028 -0.7592
19006TIP3    H178509   2.363   0.675  13.265  0.7193 -1.1401 -0.2362
19006TIP3    H278510   2.455   0.703  13.382  1.2137  0.9362 -1.0923
19007TIP3   OH278511   5.162   2.257  11.986 -0.1474 -0.6025 -0.2114
19007TIP3    H178512   5.204   2.344  11.985  1.1293 -1.1995 -0.4256
19007TIP3    H278513   5.107   2.255  11.908  0.4324 -0.2770 -0.6302
19008TIP3   OH278514   3.380   2.373   0.693 -0.2679 -0.0067  0.0057
19008TIP3    H178515   3.291   2.374   0.658  0.6697  1.0207 -2.5876
19008TIP3    H278516   3.399   2.464   0.716  0.6274  0.0688 -0.9512
19009TIP3   OH278517   0.536   6.784  15.945 -0.4883 -0.0186  0.4877
19009TIP3    H178518   0.566   6.819  15.861  0.1277 -1.6245 -0.0118
19009TIP3    H278519   0.616   6.754  15.988 -0.7847  0.8808  1.7282
19010TIP3   OH278520   6.588   5.963   2.672  0.2403 -0.1190 -0.0246
19010TIP3    H178521   6.547   6.027   2.615 -0.7288  0.2340  1.0304
19010TIP3    H278522   6.562   5.878   2.637 -0.0840  0.0899 -0.2915
19011TIP3   OH278523   5.676   0.341   5.023  0.5121 -0.6015 -0.3454
19011TIP3    H178524   5.613   0.269   5.019  0.6836 -0.7698 -0.0599
19011TIP3    H278525   5.683   0.362   5.116  0.2155  0.0052 -0.4527
19012TIP3   OH278526   0.219   1.880  16.939 -0.4839 -0.1580 -0.3279
19012TIP3    H178527   0.300   1.903  16.984 -0.9655 -0.3155  0.6524
19012TIP3    H278528   0.235   1.793  16.903  0.1350  0.2443 -1.0251
19013TIP3   OH278529   2.947   5.237   0.044  0.4257  0.2057  0.5093
19013TIP3    H178530   2.852   5.245   0.041  0.4376  0.7470  1.1725
19013TIP3    H278531   2.968   5.167  -0.017 -0.1738  1.7893 -1.6155
19014TIP3   OH278532   3.240   1.243  12.971  0.9078 -0.1438 -0.0594
19014TIP3    H178533   3.161   1.244  13.024  0.9700  0.6609  0.0202
19014TIP3    H278534   3.254   1.150  12.951  1.1279 -0.5132  1.6783
19015TIP3   OH278535   3.334   3.820  15.293  0.5778  0.0688  0.4396
19015TIP3    H178536   3.318   3.796  15.202  1.9245  0.0540  0.1934
19015TIP3    H278537   3.274   3.892  15.309  1.6040  1.3138 -1.0439
19016TIP3   OH278538   0.655   3.941  14.745 -0.5197 -0.1160  0.8182
19016TIP3    H178539   0.582   3.893  14.706  0.8514 -1.7232  0.1097
19016TIP3    H278540   0.732   3.891  14.719  0.6552  0.0165  3.7406
19017TIP3   OH278541   6.136   2.035   0.415  0.2746  0.1877  0.1674
19017TIP3    H178542   6.101   1.982   0.344  0.3213  0.8211 -0.3399
19017TIP3    H278543   6.059   2.080   0.451  0.0798 -0.9540  1.2469
19018TIP3   OH278544   2.878   0.020   2.104  0.2052 -0.7197 -0.0298
19018TIP3    H178545   2.907  -0.040   2.172  1.5803 -0.5223 -0.3979
19018TIP3    H278546   2.823   0.084   2.149  0.9760 -0.6759  0.8687
19019TIP3   OH278547   0.342   3.325  12.522 -0.1771 -0.3788  0.1538
19019TIP3    H178548   0.426   3.313  12.477 -1.2948 -0.7454 -1.9691
19019TIP3    H278549   0.342   3.258  12.591  0.4699 -1.7456 -1.1142
19020TIP3   OH278550   3.382   3.436  15.374 -0.1147  0.2582  0.2610
19020TIP3    H178551   3.307   3.430  15.434 -0.9308 -1.0826 -0.8358
19020TIP3    H278552   3.457   3.451  15.431 -0.8379 -1.1201  1.6542
19021TIP3   OH278553   1.213   5.175   1.125  0.4484 -0.2271 -0.3001
19021TIP3    H178554   1.145   5.230   1.165  1.2946  1.1138 -0.6248
19021TIP3    H278555   1.291   5.230   1.125  0.9912 -0.9320 -1.9352
19022TIP3   OH278556   0.355   5.808   4.962 -0.4623  0.0290  0.4363
19022TIP3    H178557   0.435   5.769   4.927 -1.2793  0.0960 -1.6339
19022TIP3    H278558   0.310   5.736   5.005 -0.4267 -0.5949 -0.5294
19023TIP3   OH278559   3.579   5.497  13.334  0.2027  0.4787 -0.5045
19023TIP3    H178560   3.647   5.481  13.268  1.3603 -1.5992  1.0853
19023TIP3    H278561   3.588   5.591  13.354  1.7559  0.5248 -1.2489
19024TIP3   OH278562   2.782   4.582   0.903 -0.3944  0.3874  0.2015
19024TIP3    H178563   2.763   4.567   0.996 -0.0311 -0.2217  0.1876
19024TIP3    H278564   2.854   4.645   0.904  0.7082 -0.8306  0.3995
19025TIP3   OH278565   2.954   3.598   5.481  0.5322 -0.4598  0.1005
19025TIP3    H178566   2.932   3.686   5.511 -0.2407 -0.0725 -1.4915
19025TIP3    H278567   2.928   3.541   5.553 -0.3143  0.4896  0.5750
19026TIP3   OH278568   5.282   5.430   0.134 -0.3340 -0.2029  0.2163
19026TIP3    H178569   5.193   5.416   0.101 -0.8078  0.2231  1.2607
19026TIP3    H278570   5.270   5.471   0.219  0.8850  0.6880 -0.0019
19027TIP3   OH278571   6.047   3.046  12.197  0.0466  0.5137  0.2878
19027TIP3    H178572   6.114   2.981  12.177 -0.9299  0.1642 -2.2009
19027TIP3    H278573   6.093   3.115  12.245  1.3044 -1.4905  2.1306
19028TIP3   OH278574   1.963   4.454  12.584 -0.1131 -0.3946 -0.0817
19028TIP3    H178575   1.961   4.549  12.577 -0.8236 -0.3708  0.3858
19028TIP3    H278576   1.891   4.425  12.528 -1.0482 -0.5592  1.1657
19029TIP3   OH278577   5.559   4.195   0.949 -0.4653 -0.4526  0.0935
19029TIP3    H178578   5.604   4.119   0.987 -0.2798 -1.1241 -1.3918
19029TIP3    H278579   5.548   4.172   0.857  1.2245  2.0582 -0.8329
19030TIP3   OH278580   2.388   5.288   0.488 -0.1726  0.1076  0.0216
19030TIP3    H178581   2.364   5.224   0.421  2.1754 -1.2999  0.3888
19030TIP3    H278582   2.473   5.321   0.459 -0.8857  2.3692  0.3805
19031TIP3   OH278583   2.899   4.125   5.516  0.3056 -0.2801 -0.1295
19031TIP3    H178584   2.825   4.065   5.532 -0.0178 -0.0453 -0.7293
19031TIP3    H278585   2.976   4.074   5.541 -0.1313 -0.0086  2.0047
19032TIP3   OH278586   4.617   0.440   3.800  0.5591  0.6429 -0.5005
19032TIP3    H178587   4.618   0.475   3.889  1.4655  1.4024 -0.7948
19032TIP3    H278588   4.609   0.345   3.812  2.4986  0.5388  0.4757
19033TIP3   OH278589   5.721   0.702   3.640  0.6692 -0.1163  0.2478
19033TIP3    H178590   5.733   0.795   3.659  1.8589 -0.2355  0.1066
19033TIP3    H278591   5.669   0.669   3.714 -1.5932  1.0638 -0.7156
19034TIP3   OH278592   6.157   6.763   2.108 -0.1956 -0.0186  0.0098
19034TIP3    H178593   6.072   6.803   2.095 -0.6485 -0.8740  0.2652
19034TIP3    H278594   6.190   6.802   2.189 -0.9939 -0.7645  0.7022
19035TIP3   OH278595   3.687   6.316  12.576 -0.4212 -0.0938 -0.2934
19035TIP3    H178596   3.675   6.366  12.495 -0.3492  0.0643 -0.2084
19035TIP3    H278597   3.766   6.264  12.561 -0.3561  0.0036 -0.2930
19036TIP3   OH278598   0.584   2.162  13.162  0.3936  0.1526 -0.0498
19036TIP3    H178599   0.634   2.178  13.082 -1.2237 -0.8132 -1.3184
19036TIP3    H278600   0.585   2.066  13.171 -0.4731  0.1846  0.3981
19037TIP3   OH278601   3.108   0.291   0.114 -0.3910 -0.3367 -0.1353
19037TIP3    H178602   3.084   0.376   0.152 -1.9169 -1.5897  1.8684
19037TIP3    H278603   3.037   0.271   0.053  1.0532  0.7330 -2.3147
19038TIP3   OH278604   0.800   1.237  15.585 -0.4353  0.4751  0.7433
19038TIP3    H178605   0.804   1.221  15.679 -0.1354 -0.4284  0.5894
19038TIP3    H278606   0.887   1.268  15.561  0.0769 -1.0703  0.4799
19039TIP3   OH278607   2.718   2.072   4.915 -0.4053  0.1636  0.5672
19039TIP3    H178608   2.712   1.983   4.880 -0.9966  0.0280  0.9903
19039TIP3    H278609   2.629   2.107   4.907 -0.4878  0.2371  1.6171
19040TIP3   OH278610   4.072   4.906   4.038 -0.5692  0.1949  0.4097
19040TIP3    H178611   4.003   4.910   3.971 -1.1322 -1.6577  0.8047
19040TIP3    H278612   4.138   4.848   4.001 -1.1058 -1.2435  1.5976
19041TIP3   OH278613   1.781   6.228   2.069 -0.0445  0.0144  0.3876
19041TIP3    H178614   1.837   6.290   2.022 -1.5146 -0.0345 -1.5708
19041TIP3    H278615   1.697   6.275   2.079 -0.4324 -0.7900  1.0623
19042TIP3   OH278616   5.086   3.440   3.591 -0.4135 -0.0827 -0.4623
19042TIP3    H178617   5.179   3.464   3.582 -0.3739 -0.1644 -0.2683
19042TIP3    H278618   5.084   3.380   3.666 -0.4939 -0.7640 -0.9960
19043TIP3   OH278619   2.636   3.261  11.489  0.7670 -0.6652 -0.7649
19043TIP3    H178620   2.679   3.346  11.493  1.8311 -1.1588 -1.3404
19043TIP3    H278621   2.693   3.202  11.539  1.2180 -1.4954 -2.1857
19044TIP3   OH278622   2.252   1.441  14.423 -0.9452  0.1575 -0.5432
19044TIP3    H178623   2.341   1.436  14.387 -0.8395  0.7151 -0.3730
19044TIP3    H278624   2.264   1.461  14.515 -1.2596  1.4160 -0.7566
19045TIP3   OH278625   2.377   2.200   2.845 -0.4306  0.2512  0.3237
19045TIP3    H178626   2.370   2.230   2.936  0.1144  2.4843 -0.3040
19045TIP3    H278627   2.375   2.280   2.794  2.4703 -0.6546 -1.4652
19046TIP3   OH278628   4.253   5.764   2.495  0.1979 -0.4661 -0.1877
19046TIP3    H178629   4.222   5.851   2.469 -0.4033 -0.0857  1.6874
19046TIP3    H278630   4.201   5.742   2.572  1.7315 -1.6513  0.5437
19047TIP3   OH278631   1.403   3.897  16.126 -0.3529 -0.3597 -0.1594
19047TIP3    H178632   1.497   3.876  16.120 -0.2642  0.3124 -1.3417
19047TIP3    H278633   1.397   3.958  16.199 -0.1127 -1.6534  0.9800
19048TIP3   OH278634   2.408   0.921   2.190 -0.0864 -0.0786 -0.6792
19048TIP3    H178635   2.500   0.931   2.168  0.2196  0.4596  0.7746
19048TIP3    H278636   2.397   0.828   2.209  0.5288  0.1197  0.7025
19049TIP3   OH278637   1.073   6.740  12.250  0.0877  0.3034 -0.3023
19049TIP3    H178638   0.987   6.776  12.228  0.3612  0.4328 -1.1977
19049TIP3    H278639   1.118   6.811  12.295 -0.1506  0.3542 -0.1434
19050TIP3   OH278640   3.778   2.520  13.393 -0.1805  0.3676 -0.8070
19050TIP3    H178641   3.691   2.522  13.352 -0.2177 -0.4160 -0.7900
19050TIP3    H278642   3.761   2.540  13.485 -0.2513  0.9012 -0.9315
19051TIP3   OH278643   6.792   1.400   0.172  0.1553 -0.0102 -0.2442
19051TIP3    H178644   6.881   1.413   0.139 -0.0612  0.2520 -0.7356
19051TIP3    H278645   6.773   1.480   0.222 -0.6324  0.9885 -2.0404
19052TIP3   OH278646   1.724   6.774  11.828  0.0947 -0.2124 -0.0217
19052TIP3    H178647   1.708   6.725  11.747  0.1529  1.5466 -1.1693
19052TIP3    H278648   1.641   6.817  11.847  0.3794  0.2353  0.2394
19053TIP3   OH278649   0.461   2.487   0.016  0.2898 -0.1779 -0.1292
19053TIP3    H178650   0.443   2.446  -0.069 -1.2093 -0.8759  0.4835
19053TIP3    H278651   0.491   2.575  -0.005  1.1095 -0.7370 -1.4098
19054TIP3   OH278652   5.890   3.748  12.764 -0.3708  0.2864  0.0275
19054TIP3    H178653   5.880   3.662  12.807  0.4812  0.3618  0.3827
19054TIP3    H278654   5.844   3.737  12.680 -1.9569  0.0983  0.8732
19055TIP3   OH278655   5.973   0.384   5.332 -0.0125 -0.6349 -0.0391
19055TIP3    H178656   6.024   0.465   5.332 -0.6571 -0.1943 -1.3476
19055TIP3    H278657   6.028   0.322   5.283 -0.0789 -0.5959 -0.1646
19056TIP3   OH278658   2.032   1.773  12.343  0.0630 -0.0624  0.6866
19056TIP3    H178659   2.117   1.807  12.371 -0.2499  1.2449  0.0890
19056TIP3    H278660   1.968   1.832  12.382 -0.3778  2.2723 -3.1395
19057TIP3   OH278661   5.002   2.662  15.137  0.2557  0.6238  0.4190
19057TIP3    H178662   4.991   2.578  15.183  0.2296  0.9480  1.0113
19057TIP3    H278663   5.076   2.647  15.078  0.1729  0.1472  0.4273
19058TIP3   OH278664   2.197   6.645  12.195  0.4029 -0.1964  0.3347
19058TIP3    H178665   2.117   6.662  12.145  1.0852 -1.7315 -1.3958
19058TIP3    H278666   2.188   6.700  12.273 -1.7470  0.6176 -0.3932
19059TIP3   OH278667   0.035   4.420  12.423 -0.2120 -0.1365  1.2042
19059TIP3    H178668   0.054   4.476  12.498 -0.3137 -0.2702  1.3298
19059TIP3    H278669   0.035   4.479  12.348  0.0270 -0.0241  1.2911
19060TIP3   OH278670   0.950   5.260  15.658  0.4316 -0.5119 -0.7395
19060TIP3    H178671   1.044   5.269  15.646  0.8947  2.5715  3.2663
19060TIP3    H278672   0.912   5.331  15.606  0.3233 -1.1010 -1.4971
19061TIP3   OH278673   3.223   6.006   2.409 -0.6998  0.4986  0.0526
19061TIP3    H178674   3.261   5.924   2.440  0.0969  0.6455 -0.4966
19061TIP3    H278675   3.216   5.995   2.314  0.0964  1.3341 -0.1126
19062TIP3   OH278676   5.946   2.625  13.169 -0.5223  0.3372 -0.1932
19062TIP3    H178677   5.920   2.579  13.248 -2.1450  0.9515 -0.3336
19062TIP3    H278678   5.867   2.627  13.115 -0.1767  2.2256 -0.6971
19063TIP3   OH278679   5.141   3.824  17.185  0.0398 -0.2706 -0.2705
19063TIP3    H178680   5.200   3.769  17.134  0.5554  0.7244 -0.7694
19063TIP3    H278681   5.064   3.835  17.128 -0.8950 -1.9752  0.5738
19064TIP3   OH278682   6.575   3.325  11.536 -0.0317  0.2811  1.2091
19064TIP3    H178683   6.556   3.293  11.448 -1.3229  2.4357  0.6328
19064TIP3    H278684   6.584   3.246  11.589 -0.9247 -1.0414 -0.5106
19065TIP3   OH278685   5.167   0.615  14.709 -0.1453  0.1035  0.2838
19065TIP3    H178686   5.222   0.690  14.687  0.0064  0.1251  0.7318
19065TIP3    H278687   5.223   0.539  14.699 -0.3189  0.0404 -0.2388
19066TIP3   OH278688   1.467   3.280   0.241  0.0826 -0.1153 -0.1795
19066TIP3    H178689   1.557   3.263   0.212  0.1033  0.5336 -0.5171
19066TIP3    H278690   1.476   3.332   0.320  0.0193 -1.6184  0.8426
19067TIP3   OH278691   2.276   3.753   2.303  0.2360  0.6725  0.2208
19067TIP3    H178692   2.275   3.777   2.395  0.2802  0.6576  0.2253
19067TIP3    H278693   2.184   3.752   2.277  0.2709  1.9187 -0.0485
19068TIP3   OH278694   5.754   1.862  12.460 -0.2888  0.9675 -0.2218
19068TIP3    H178695   5.682   1.854  12.522 -0.4217  1.3312 -0.3252
19068TIP3    H278696   5.749   1.953  12.429  1.2026  1.5090  0.9760
19069TIP3   OH278697   2.669   6.574  14.674  0.5121  0.4550  0.5505
19069TIP3    H178698   2.733   6.624  14.623 -1.0519  0.6305 -1.3411
19069TIP3    H278699   2.594   6.633  14.683 -0.3523 -0.6129  0.5520
19070TIP3   OH278700   5.837   3.371   3.862  0.2215  0.5495 -0.0660
19070TIP3    H178701   5.758   3.421   3.842  0.2828  0.1284 -1.4513
19070TIP3    H278702   5.893   3.381   3.785 -0.1640 -2.4022 -0.8510
19071TIP3   OH278703   0.369   4.450  11.056 -0.0654 -0.2152  0.1786
19071TIP3    H178704   0.328   4.524  11.100 -0.9305 -0.6204  0.0776
19071TIP3    H278705   0.427   4.490  10.992  0.1579  0.3741  0.7359
19072TIP3   OH278706   2.032   4.045   4.043 -0.2688  0.1353  0.3397
19072TIP3    H178707   2.037   3.961   3.999 -0.7135 -0.1630  0.8539
19072TIP3    H278708   2.103   4.042   4.107 -0.2632  0.1680  0.3351
19073TIP3   OH278709   0.527   4.369   5.182 -0.1173  0.3620 -0.5114
19073TIP3    H178710   0.560   4.403   5.098  0.9013  1.1254  0.1733
19073TIP3    H278711   0.596   4.310   5.212 -0.6921 -0.2737 -0.4343
19074TIP3   OH278712   4.707   2.368  15.272 -0.3102 -0.5278  0.3087
19074TIP3    H178713   4.790   2.390  15.316 -0.7547 -1.0232  1.4370
19074TIP3    H278714   4.734   2.334  15.187  0.6442 -0.4893  0.5768
19075TIP3   OH278715   2.876   3.414   0.112  0.3171  0.1926  0.3955
19075TIP3    H178716   2.946   3.370   0.065 -0.6674  0.4353 -1.3714
19075TIP3    H278717   2.878   3.375   0.200  0.4227 -2.3148 -0.6469
19076TIP3   OH278718   6.246   4.643   3.687 -0.4559  1.0228  0.5328
19076TIP3    H178719   6.180   4.652   3.618 -0.8932 -0.9864  0.6223
19076TIP3    H278720   6.249   4.729   3.729 -0.6715  2.0832 -1.5375
19077TIP3   OH278721   1.916   6.178  16.403  0.3159  0.4400  0.1305
19077TIP3    H178722   1.911   6.193  16.309 -1.0349 -0.5192  0.0176
19077TIP3    H278723   2.010   6.175  16.422  0.6022  1.0845 -1.0960
19078TIP3   OH278724   4.604   1.508  13.923  0.1864  0.2932  0.2388
19078TIP3    H178725   4.620   1.487  14.015 -0.8532  2.2709  0.9321
19078TIP3    H278726   4.551   1.434  13.891  0.1608 -0.2009  1.3609
19079TIP3   OH278727   2.734   4.686   1.483 -0.5164 -0.3126 -0.2481
19079TIP3    H178728   2.700   4.599   1.464 -1.4248 -0.2418  0.9738
19079TIP3    H278729   2.735   4.692   1.578  0.0424  0.8189 -0.3063
19080TIP3   OH278730   5.782   0.899   2.811 -0.3556  0.0276  0.7104
19080TIP3    H178731   5.692   0.887   2.782  0.1483  0.4353 -1.1681
19080TIP3    H278732   5.827   0.934   2.734  1.4276 -0.2731  1.5747
19081TIP3   OH278733   5.171   3.064  11.226  0.2229 -0.2593  0.2344
19081TIP3    H178734   5.177   2.977  11.265 -2.5456 -0.7165 -0.1522
19081TIP3    H278735   5.155   3.122  11.300  0.8976 -0.2102  0.3567
19082TIP3   OH278736   0.710   4.357  12.617 -0.6232  0.2136  0.2416
19082TIP3    H178737   0.763   4.426  12.655 -0.6450  0.3651  0.0012
19082TIP3    H278738   0.636   4.403  12.576 -0.6910  0.0419  0.1673
19083TIP3   OH278739   4.935   0.573   5.612  0.3699  0.7090 -0.6528
19083TIP3    H178740   5.026   0.553   5.634  0.1388  0.6640  0.2928
19083TIP3    H278741   4.883   0.515   5.668 -0.2455  0.0888 -1.8193
19084TIP3   OH278742   5.547   6.745  10.957  0.1130 -0.4686 -0.0640
19084TIP3    H178743   5.456   6.732  10.985  0.1685 -0.1281  0.2912
19084TIP3    H278744   5.544   6.737  10.862 -0.2462 -0.7109 -0.0366
19085TIP3   OH278745   1.035   3.759   5.437 -0.1679 -0.0504  0.0638
19085TIP3    H178746   1.050   3.761   5.342  2.5606 -2.4018  0.3111
19085TIP3    H278747   0.955   3.810   5.450 -0.4273  0.6675 -3.4370
19086TIP3   OH278748   3.514   1.864  15.879  0.4477  0.6842 -0.3759
19086TIP3    H178749   3.560   1.795  15.832 -1.3934 -0.1708 -1.0180
19086TIP3    H278750   3.460   1.818  15.943  3.1907  1.8088  3.0831
19087TIP3   OH278751   0.660   0.846  10.916 -0.3927 -0.1626  0.5396
19087TIP3    H178752   0.662   0.847  10.820 -0.5165 -1.3786  0.5067
19087TIP3    H278753   0.573   0.879  10.938 -0.0327  1.0160  0.2812
19088TIP3   OH278754   2.694   2.691   2.373 -0.2938 -0.4450 -0.3540
19088TIP3    H178755   2.678   2.599   2.394 -0.0536 -0.4301 -0.0976
19088TIP3    H278756   2.740   2.725   2.450 -2.7858  0.5829  0.8165
19089TIP3   OH278757   3.866   0.167   4.782 -0.0560 -0.1935  0.1045
19089TIP3    H178758   3.900   0.188   4.695  1.9900 -1.8936  0.4237
19089TIP3    H278759   3.775   0.143   4.767  0.7310 -2.3078 -1.9264
19090TIP3   OH278760   4.317   4.231  15.170  0.0303  0.3062  0.1674
19090TIP3    H178761   4.301   4.297  15.103 -1.9232 -0.6334 -0.3709
19090TIP3    H278762   4.280   4.150  15.134  1.2175 -0.8021  1.3285
19091TIP3   OH278763   2.173   2.125  12.807  0.0075 -0.1488 -0.6342
19091TIP3    H178764   2.267   2.112  12.799 -0.0772 -0.6113 -0.9570
19091TIP3    H278765   2.163   2.190  12.876  0.5924  0.5112 -1.1641
19092TIP3   OH278766   0.583   3.628  16.272 -0.2225  0.6799  0.2573
19092TIP3    H178767   0.617   3.567  16.338  0.9491  0.3444 -0.6327
19092TIP3    H278768   0.661   3.667  16.232 -0.8989  0.6194 -1.1856
19093TIP3   OH278769   3.953   2.496  15.232  0.5865  0.7008 -0.0200
19093TIP3    H178770   3.913   2.438  15.297  0.8980 -1.1082 -1.3797
19093TIP3    H278771   3.944   2.584  15.270  0.1059 -0.2040  2.1099
19094TIP3   OH278772   6.378   0.554  16.988 -0.3838 -0.0530 -0.8149
19094TIP3    H178773   6.473   0.548  16.978 -0.3388 -1.0392  0.0093
19094TIP3    H278774   6.345   0.469  16.957 -0.9761  0.2011 -0.8916
19095TIP3   OH278775   3.036   3.276   2.516 -0.0659 -0.0298 -0.1566
19095TIP3    H178776   3.011   3.197   2.564 -0.0801 -0.6476 -1.1621
19095TIP3    H278777   3.086   3.327   2.580  0.6981 -1.2565  0.2597
19096TIP3   OH278778   3.403   1.039  12.367 -0.2933  0.3434 -0.2768
19096TIP3    H178779   3.346   1.060  12.294 -0.2302  0.3255 -0.3319
19096TIP3    H278780   3.345   1.028  12.442 -0.7079 -2.5674 -0.9129
19097TIP3   OH278781   1.705   0.196  17.192  0.0994  0.2285  0.0518
19097TIP3    H178782   1.729   0.109  17.223 -1.7017 -1.2133 -2.3088
19097TIP3    H278783   1.758   0.256  17.245  0.8378 -2.2314  2.2648
19098TIP3   OH278784   3.412   6.801  16.715  0.0885 -0.2803  0.0750
19098TIP3    H178785   3.379   6.822  16.628  1.1904  1.1539 -0.0282
19098TIP3    H278786   3.508   6.801  16.705  0.2126 -0.7266  1.1489
19099TIP3   OH278787   4.971   4.636  10.986  0.1154  0.1991 -0.2485
19099TIP3    H178788   5.025   4.628  11.065  0.5515  1.2166 -0.4259
19099TIP3    H278789   4.882   4.651  11.019 -0.2387 -2.1667  0.0559
19100TIP3   OH278790   0.093   4.430   3.534 -0.1263  0.4222 -0.4566
19100TIP3    H178791   0.065   4.411   3.444 -1.2094  0.6435 -0.1894
19100TIP3    H278792   0.109   4.344   3.572 -2.3300  0.1180 -0.0755
19101TIP3   OH278793   4.690   4.150   1.000 -0.0172  0.1121 -0.6909
19101TIP3    H178794   4.735   4.228   0.966  0.4907  1.0395  1.8922
19101TIP3    H278795   4.737   4.076   0.961  3.3746  1.0340  1.2512
19102TIP3   OH278796   3.943   0.280   0.506  0.0244  0.0144 -0.2112
19102TIP3    H178797   3.855   0.315   0.521  0.4964  1.0057  0.3383
19102TIP3    H278798   3.931   0.214   0.438 -1.0323  0.6801 -0.7033
19103TIP3   OH278799   4.600   6.215   4.749 -0.3091  0.1030  0.0049
19103TIP3    H178800   4.640   6.261   4.676 -0.9807 -0.1354 -0.5277
19103TIP3    H278801   4.568   6.285   4.807 -0.9540  0.3194 -0.5957
19104TIP3   OH278802   1.206   0.491   4.854  0.2534 -0.1063  0.3522
19104TIP3    H178803   1.294   0.466   4.826  0.9385 -1.2023  3.1161
19104TIP3    H278804   1.200   0.584   4.831  2.2496  0.0659  0.3134
19105TIP3   OH278805   2.168   6.677   2.302  0.2510 -0.1982 -0.0768
19105TIP3    H178806   2.148   6.587   2.277 -1.6706 -0.2582  1.4965
19105TIP3    H278807   2.083   6.719   2.312  1.1079  1.7859 -0.6110
19106TIP3   OH278808   6.186   1.915   1.288  0.3565 -0.5971 -0.7114
19106TIP3    H178809   6.113   1.950   1.238 -0.3396 -1.9970 -0.7415
19106TIP3    H278810   6.254   1.981   1.282 -0.7939  0.6065 -0.9452
19107TIP3   OH278811   5.929   0.878   3.207 -0.1384 -0.1541 -0.0712
19107TIP3    H178812   6.012   0.836   3.183  0.5766  1.0261  0.2392
19107TIP3    H278813   5.902   0.834   3.287 -0.3758 -1.2658 -0.7394
19108TIP3   OH278814   1.102   1.328   5.704  0.2068  0.3195 -0.0744
19108TIP3    H178815   1.043   1.356   5.634 -1.8954 -2.8799  0.1796
19108TIP3    H278816   1.163   1.268   5.660  0.2928  0.0166  0.4558
19109TIP3   OH278817   1.064   5.934   4.588 -0.5925  0.7074 -0.8743
19109TIP3    H178818   1.126   5.888   4.532 -0.4037 -0.3168  0.1366
19109TIP3    H278819   1.107   5.937   4.673 -0.3345  3.3410 -1.0319
19110TIP3   OH278820   5.225   4.808  10.319  0.6686  0.1808 -0.1031
19110TIP3    H178821   5.169   4.867  10.370  2.1390  2.1756 -0.6815
19110TIP3    H278822   5.217   4.724  10.363 -1.6712  0.7255  0.6484
19111TIP3   OH278823   0.150   4.830  12.752 -0.3019  0.0379  0.2047
19111TIP3    H178824   0.125   4.771  12.681  0.0415 -0.8978  0.8430
19111TIP3    H278825   0.237   4.862  12.727 -0.4431  0.1819 -0.0955
19112TIP3   OH278826   5.978   4.928   3.607 -0.7398  0.0477  0.1402
19112TIP3    H178827   6.004   4.935   3.699 -0.0602  0.7687 -0.0943
19112TIP3    H278828   6.035   4.859   3.571 -0.1640  0.5901 -0.0137
19113TIP3   OH278829   1.283   6.096  16.555 -0.1601 -0.1467  0.7269
19113TIP3    H178830   1.367   6.083  16.598  0.3506  1.2462  0.2348
19113TIP3    H278831   1.251   6.008  16.535  0.5751 -0.7304  2.0473
19114TIP3   OH278832   4.618   6.720  14.461 -0.1829  1.2190 -0.4925
19114TIP3    H178833   4.560   6.658  14.505  1.1263  0.7948  0.6789
19114TIP3    H278834   4.571   6.742  14.380 -0.3905 -1.9152 -1.3991
19115TIP3   OH278835   1.237   5.637   0.007  0.2162  0.3196 -0.0812
19115TIP3    H178836   1.289   5.675  -0.063  1.9144 -1.3626  0.1935
19115TIP3    H278837   1.299   5.623   0.078 -1.3623  1.5431  1.6534
19116TIP3   OH278838   2.390   3.060  13.110 -0.0923 -0.1776  0.6187
19116TIP3    H178839   2.351   3.019  13.033 -0.3605  1.4278 -0.1551
19116TIP3    H278840   2.320   3.113  13.147  1.2334  2.9317 -0.9089
19117TIP3   OH278841   4.556   2.266  14.094  0.1063  0.1543 -0.2292
19117TIP3    H178842   4.606   2.196  14.136 -0.4749 -1.1538 -1.6041
19117TIP3    H278843   4.591   2.270  14.004 -0.8706  0.5946 -0.6043
19118TIP3   OH278844   3.397   4.267   1.148  0.3090  0.1292 -0.1203
19118TIP3    H178845   3.431   4.317   1.222 -0.0891 -2.4803  1.9982
19118TIP3    H278846   3.462   4.198   1.134 -0.8597 -0.9452 -0.4831
19119TIP3   OH278847   4.447   3.494   4.915  0.3981  0.1698  0.3013
19119TIP3    H178848   4.395   3.516   4.838  0.8783 -2.5818 -0.8917
19119TIP3    H278849   4.387   3.507   4.989 -1.2943 -0.7751 -0.8593
19120TIP3   OH278850   6.010   3.746  13.070 -0.3973 -0.6679 -0.2868
19120TIP3    H178851   5.987   3.757  12.977 -0.1195  1.4880 -0.1502
19120TIP3    H278852   6.072   3.673  13.071 -1.5392 -1.6982 -1.5974
19121TIP3   OH278853   6.265   0.203   5.383  0.5955 -0.4855  0.4304
19121TIP3    H178854   6.259   0.124   5.437  0.2048 -0.2508  0.7368
19121TIP3    H278855   6.285   0.273   5.445 -1.6504  0.1055  0.5817
19122TIP3   OH278856   0.288   2.756   5.412  0.2763  0.2047 -0.0274
19122TIP3    H178857   0.312   2.674   5.455 -0.3078  1.2633  2.5143
19122TIP3    H278858   0.199   2.742   5.380  1.5709 -1.4406 -3.3726
19123TIP3   OH278859   6.790   4.798   3.715 -0.3707 -0.3352  0.1587
19123TIP3    H178860   6.759   4.877   3.759  0.2145 -0.6349  1.1415
19123TIP3    H278861   6.718   4.773   3.656 -0.8974  0.4505  0.4586
19124TIP3   OH278862   5.053   5.066  13.216 -0.6626  0.5092  0.5393
19124TIP3    H178863   5.121   5.007  13.184 -0.9648 -0.8376  2.2069
19124TIP3    H278864   4.975   5.042  13.167 -0.0955  1.7452 -1.0503
19125TIP3   OH278865   5.074   5.267   3.980 -0.1462  0.4106 -0.4772
19125TIP3    H178866   5.021   5.261   4.060 -0.1736  1.9470 -0.3542
19125TIP3    H278867   5.147   5.324   4.003  0.2542  0.2688 -1.3399
19126TIP3   OH278868   5.668   6.333   2.728 -0.1975 -0.0313  0.4142
19126TIP3    H178869   5.580   6.320   2.692  0.1125  0.4051 -0.5423
19126TIP3    H278870   5.659   6.406   2.789 -0.6803 -0.5894  1.0105
19127TIP3   OH278871   6.531   4.355  13.475 -0.4834  0.1209 -0.1223
19127TIP3    H178872   6.491   4.367  13.561 -1.7705 -1.5173 -0.4490
19127TIP3    H278873   6.463   4.314  13.422  1.1163 -1.3589 -1.1583
19128TIP3   OH278874   0.668   3.007  11.442  0.0888  0.2396 -0.0169
19128TIP3    H178875   0.717   3.017  11.523 -1.2965 -0.5531  0.9717
19128TIP3    H278876   0.603   3.077  11.445  1.0809  1.2532 -1.2852
19129TIP3   OH278877   3.220   5.707   2.985 -0.0577 -0.1110 -0.0186
19129TIP3    H178878   3.252   5.694   3.074  0.9639  3.4462  0.2753
19129TIP3    H278879   3.125   5.699   2.993  0.1443 -2.8549  0.6867
19130TIP3   OH278880   3.692   2.854   5.842 -0.0698  0.0126 -0.6000
19130TIP3    H178881   3.606   2.876   5.877 -0.8512 -1.0285 -1.7643
19130TIP3    H278882   3.744   2.829   5.918 -0.9167  0.2322  0.0663
19131TIP3   OH278883   3.830   1.994   2.574  0.3940  0.1132 -0.5347
19131TIP3    H178884   3.829   2.074   2.522  1.0684 -1.1536 -2.6170
19131TIP3    H278885   3.786   1.929   2.519 -0.2779 -0.9463  1.1553
19132TIP3   OH278886   4.658   4.758   0.071  0.2195 -0.4936 -0.2469
19132TIP3    H178887   4.752   4.774   0.061  0.4886  0.8220  3.1152
19132TIP3    H278888   4.652   4.693   0.142 -1.4249 -0.3329 -0.1876
19133TIP3   OH278889   6.220   2.715   2.519  0.3837 -0.1499 -0.2474
19133TIP3    H178890   6.291   2.691   2.458  1.0066  0.6773  0.1378
19133TIP3    H278891   6.156   2.644   2.509  0.7015 -0.2963 -1.4926
19134TIP3   OH278892   1.319   4.110   0.767 -0.4053 -0.0798 -0.4086
19134TIP3    H178893   1.364   4.124   0.851 -0.0328 -0.2942 -0.5710
19134TIP3    H278894   1.363   4.169   0.706 -0.8431  0.2610 -0.3987
19135TIP3   OH278895   4.980   0.582   5.345 -0.3126 -0.5273  0.3988
19135TIP3    H178896   4.938   0.584   5.431  1.8378  0.2744  1.5171
19135TIP3    H278897   5.009   0.672   5.330  1.9820 -1.2321  0.2753
19136TIP3   OH278898   3.819   0.109   5.809 -0.0953  0.1341 -0.3954
19136TIP3    H178899   3.768   0.179   5.768  0.5010  0.9481  0.2117
19136TIP3    H278900   3.861   0.151   5.884  1.5945 -0.4686 -0.9551
19137TIP3   OH278901   0.007   1.663   4.820 -0.0852 -0.0191 -0.9017
19137TIP3    H178902   0.084   1.656   4.876 -0.6704 -0.1546 -0.0775
19137TIP3    H278903   0.026   1.735   4.761 -0.0801  1.2057  0.5291
19138TIP3   OH278904   4.663   2.362   1.583  0.5351  0.3622  0.1153
19138TIP3    H178905   4.622   2.365   1.496  1.9302 -0.4358 -0.6095
19138TIP3    H278906   4.599   2.404   1.641 -0.4452  0.8905 -1.2809
19139TIP3   OH278907   2.701   2.864  11.621  0.4333  0.4326  0.0480
19139TIP3    H178908   2.674   2.797  11.557  0.8178  0.4224 -0.1071
19139TIP3    H278909   2.719   2.814  11.701 -0.3805  0.4851  0.2705
19140TIP3   OH278910   3.211   3.707   4.921 -0.3682  0.2224 -1.1846
19140TIP3    H178911   3.163   3.789   4.910 -2.3195 -0.9135 -1.7224
19140TIP3    H278912   3.302   3.733   4.932 -1.2629  2.6633  2.1443
19141TIP3   OH278913   0.824   4.640   1.071 -0.7603  0.4406  1.1652
19141TIP3    H178914   0.865   4.632   1.157  0.7260 -1.6027  0.3311
19141TIP3    H278915   0.870   4.578   1.016 -1.3055  2.0709 -1.2997
19142TIP3   OH278916   2.814   4.481  17.239  0.1053  0.7171 -0.3465
19142TIP3    H178917   2.899   4.442  17.261 -1.3835 -2.8026 -0.2043
19142TIP3    H278918   2.832   4.534  17.162  2.2759 -0.7797 -0.9804
19143TIP3   OH278919   1.583   4.627  12.852  0.1890 -0.0436 -0.0895
19143TIP3    H178920   1.662   4.622  12.906 -0.6876  0.3803  1.3007
19143TIP3    H278921   1.597   4.564  12.782  1.7195 -0.0329  0.1790
19144TIP3   OH278922   3.326   2.913  10.909 -0.6107  0.1079  0.0984
19144TIP3    H178923   3.404   2.934  10.960  0.1037  0.5711 -1.1216
19144TIP3    H278924   3.256   2.964  10.949 -0.1841  0.0593  0.9202
19145TIP3   OH278925   5.479   2.842   1.758  0.5618  0.1940 -0.1289
19145TIP3    H178926   5.485   2.870   1.667  0.3174 -1.1738 -0.5888
19145TIP3    H278927   5.393   2.800   1.765 -1.8129  4.6989  2.0794
19146TIP3   OH278928   6.216   5.778   2.639 -0.0004  0.3101 -0.3401
19146TIP3    H178929   6.191   5.847   2.578 -0.9855 -0.0724 -0.3769
19146TIP3    H278930   6.184   5.697   2.599 -1.8435  0.1739  1.2572
19147TIP3   OH278931   1.761   6.471   4.456 -0.1083  0.0632 -0.1961
19147TIP3    H178932   1.677   6.509   4.480 -0.2525 -0.1518 -0.3520
19147TIP3    H278933   1.818   6.546   4.440 -0.0461  0.2122  0.6601
19148TIP3   OH278934   5.050   5.368  16.991 -0.3482 -0.4381  0.5466
19148TIP3    H178935   5.118   5.387  16.926 -0.0907 -1.0788  0.6199
19148TIP3    H278936   5.041   5.450  17.040 -0.6045  0.0808 -0.3350
19149TIP3   OH278937   0.505   5.191  13.089 -0.2058 -0.5588  0.6365
19149TIP3    H178938   0.558   5.173  13.011 -0.6265  1.0787 -0.0825
19149TIP3    H278939   0.435   5.126  13.086  0.4155 -1.2243  0.2682
19150TIP3   OH278940   0.902   2.466   5.107 -0.0701  0.0436  0.1761
19150TIP3    H178941   0.810   2.490   5.110 -0.4515 -1.0233 -1.3998
19150TIP3    H278942   0.903   2.379   5.066  1.4106 -1.4290  3.0529
19151TIP3   OH278943   4.569   5.526   4.668  0.0047  0.5933 -0.4708
19151TIP3    H178944   4.521   5.477   4.735  0.7651 -0.6919 -0.8357
19151TIP3    H278945   4.589   5.610   4.709 -0.9349  0.4370  0.3354
19152TIP3   OH278946   2.214   2.371   3.635  0.1875 -0.8692 -0.0827
19152TIP3    H178947   2.167   2.418   3.704 -0.4604 -1.8763  0.1712
19152TIP3    H278948   2.210   2.430   3.560 -0.1685 -0.2958  0.3690
19153TIP3   OH278949   3.176   5.272  16.273 -0.3005  0.1395  0.0303
19153TIP3    H178950   3.129   5.331  16.332  0.5482 -1.6499  2.6152
19153TIP3    H278951   3.114   5.201  16.256 -0.9040  1.0737 -2.1903
19154TIP3   OH278952   4.765   6.017  14.619 -0.0493 -0.1541 -0.6613
19154TIP3    H178953   4.843   6.051  14.576 -0.7858  1.1403 -1.0470
19154TIP3    H278954   4.780   5.923  14.627  1.3459  0.0096 -1.1146
19155TIP3   OH278955   0.664   2.259  14.887  0.1249 -0.6130  0.2905
19155TIP3    H178956   0.661   2.239  14.980  0.0834  0.9052  0.6482
19155TIP3    H278957   0.697   2.349  14.883  1.4295 -1.1161 -1.2339
19156TIP3   OH278958   4.031   5.663  17.204 -0.0697 -0.1335 -0.2892
19156TIP3    H178959   4.062   5.600  17.269 -0.2177  0.9607  0.8742
19156TIP3    H278960   3.945   5.690  17.235 -0.6481 -0.4223 -1.5538
19157TIP3   OH278961   0.592   3.283  12.080  0.6260 -0.4643 -0.6099
19157TIP3    H178962   0.584   3.261  12.173 -0.0791  1.3793 -0.1878
19157TIP3    H278963   0.686   3.282  12.063  0.7474 -1.1185  0.0381
19158TIP3   OH278964   3.086   1.837   0.173  0.0345  0.5198 -0.2404
19158TIP3    H178965   3.091   1.911   0.233  0.9791  0.2555  0.0129
19158TIP3    H278966   3.114   1.873   0.088  0.7597  0.3992 -0.0591
19159TIP3   OH278967   0.869   1.465   4.542 -0.3271  0.2313  0.1909
19159TIP3    H178968   0.839   1.444   4.453  0.1490  0.4820 -0.0335
19159TIP3    H278969   0.871   1.380   4.586  3.1346 -0.6069 -1.1902
19160TIP3   OH278970   0.108   1.366  11.464  0.0916  0.3275 -0.7396
19160TIP3    H178971   0.089   1.405  11.379 -2.4118 -1.1807 -0.9727
19160TIP3    H278972   0.068   1.279  11.460  0.4595 -0.0315  1.7542
19161TIP3   OH278973   0.714   4.317   5.853  0.3020  0.0193 -0.3773
19161TIP3    H178974   0.759   4.401   5.861 -0.4544  0.7018 -2.5473
19161TIP3    H278975   0.779   4.253   5.883  2.2155  1.0777 -1.9978
19162TIP3   OH278976   4.244   3.539   0.031 -0.8446 -0.2239 -0.5131
19162TIP3    H178977   4.278   3.460   0.072 -1.5942  0.0232  0.6424
19162TIP3    H278978   4.283   3.611   0.082 -0.8534  0.1241 -0.9909
19163TIP3   OH278979   6.366   2.623   4.065 -0.1751 -0.1791 -0.2794
19163TIP3    H178980   6.344   2.589   3.978  2.2494 -1.8073 -0.3652
19163TIP3    H278981   6.311   2.573   4.125 -0.7731 -0.1373 -0.7839
19164TIP3   OH278982   6.738   5.697   0.994  0.2058  0.1571  0.4065
19164TIP3    H178983   6.759   5.780   0.951  0.8039  0.2220  0.8083
19164TIP3    H278984   6.791   5.698   1.074  1.1180 -1.1222 -0.1439
19165TIP3   OH278985   6.310   5.550   5.128 -0.1026  0.3620 -0.7127
19165TIP3    H178986   6.247   5.579   5.195 -1.8765 -0.3545 -1.9936
19165TIP3    H278987   6.392   5.594   5.152 -0.1062 -1.3038  2.9864
19166TIP3   OH278988   3.209   0.903  16.500 -0.2036  0.1838 -0.4604
19166TIP3    H178989   3.198   0.992  16.466  0.8456 -0.2923 -2.2068
19166TIP3    H278990   3.304   0.893  16.508 -0.2986 -0.8846 -0.6251
19167TIP3   OH278991   6.798   2.974   4.249 -0.0222 -0.1611  0.3573
19167TIP3    H178992   6.779   2.880   4.251  1.4506 -0.5437 -1.0614
19167TIP3    H278993   6.821   2.991   4.158  0.7115  1.3688  0.8061
19168TIP3   OH278994   2.334   6.524  11.016 -0.5672 -0.6664  0.2709
19168TIP3    H178995   2.324   6.619  11.017 -2.6792 -0.8325  1.9609
19168TIP3    H278996   2.319   6.499  10.925 -0.7558  0.5393 -0.0415
19169TIP3   OH278997   1.251   2.679  17.123  0.7249 -0.4552 -0.4045
19169TIP3    H178998   1.326   2.629  17.157  0.8230 -0.4873 -0.6635
19169TIP3    H278999   1.289   2.736  17.056  0.6844  0.2769  0.1824
19170TIP3   OH279000   3.954   3.543  13.216 -0.1571 -0.1800 -0.0882
19170TIP3    H179001   3.921   3.578  13.133  0.2417  0.6761  0.1092
19170TIP3    H279002   3.895   3.579  13.282  0.2708  0.1431  0.1204
19171TIP3   OH279003   0.357   6.201  16.272 -0.4110  0.0180  0.0180
19171TIP3    H179004   0.451   6.215  16.262 -0.7880  1.3332 -2.4758
19171TIP3    H279005   0.339   6.225  16.363  1.2925  2.2601 -0.1345
19172TIP3   OH279006   2.480   6.800   0.350 -0.3981  0.0858 -0.4913
19172TIP3    H179007   2.475   6.847   0.266  0.0728  0.8121 -0.1171
19172TIP3    H279008   2.571   6.771   0.356 -0.3070  0.4741  0.0054
19173TIP3   OH279009   2.827   3.340   2.762  0.6703  0.0086  0.3316
19173TIP3    H179010   2.783   3.338   2.847 -0.4066 -1.0320 -0.2322
19173TIP3    H279011   2.893   3.409   2.772 -0.2263  0.7393  1.6121
19174TIP3   OH279012   6.052   3.598   4.564  0.1703 -0.1944 -0.8840
19174TIP3    H179013   6.119   3.557   4.509  0.2887 -1.1028 -0.0943
19174TIP3    H279014   6.093   3.602   4.651 -2.1645 -4.7164  0.7586
19175TIP3   OH279015   5.020   6.811   0.466 -0.2740  0.0141 -0.3587
19175TIP3    H179016   5.101   6.820   0.516 -1.4159  0.2761  1.5416
19175TIP3    H279017   5.039   6.743   0.401  1.0394 -0.8858  0.9166
19176TIP3   OH279018   6.618   3.843  12.323  0.0693  0.4383 -0.1271
19176TIP3    H179019   6.667   3.773  12.279 -0.5695  0.0734 -0.2721
19176TIP3    H279020   6.528   3.831  12.294  0.0963  1.8851 -0.8424
19177TIP3   OH279021   6.815   5.462  16.088 -0.4225 -0.2185  0.1397
19177TIP3    H179022   6.873   5.438  16.161 -0.9152  1.4701  1.1373
19177TIP3    H279023   6.818   5.386  16.029  0.8254 -1.1900  1.3863
19178TIP3   OH279024   0.336   5.971   1.697  0.8188 -0.1943  0.2511
19178TIP3    H179025   0.328   5.880   1.723 -2.2841 -0.0133  0.3297
19178TIP3    H279026   0.374   6.015   1.773  1.0760 -1.1817  0.7085
19179TIP3   OH279027   4.480   3.213   2.794  0.6913  0.1495 -0.2261
19179TIP3    H179028   4.524   3.233   2.877 -3.5970  0.1527  2.3385
19179TIP3    H279029   4.440   3.128   2.808 -0.0686  0.0936 -2.3861
19180TIP3   OH279030   2.703   4.410  15.711 -0.0263  0.3686 -0.6094
19180TIP3    H179031   2.726   4.329  15.666 -0.1029 -0.9499  1.5704
19180TIP3    H279032   2.609   4.420  15.695 -0.7631 -1.8043  1.6302
19181TIP3   OH279033   1.660   1.089  14.097 -0.1699 -0.1434 -0.3093
19181TIP3    H179034   1.677   1.069  14.005  0.6964 -1.0445  0.0321
19181TIP3    H279035   1.746   1.097  14.136 -0.5295 -0.5124  0.5800
19182TIP3   OH279036   5.466   2.699  11.778 -0.5443  0.1673 -0.2035
19182TIP3    H179037   5.501   2.758  11.845  1.2387 -0.0271 -0.9207
19182TIP3    H279038   5.485   2.742  11.695  0.5721 -1.2715 -0.7298
19183TIP3   OH279039   1.010   1.896   4.198  0.1220  0.0475  0.4609
19183TIP3    H179040   0.979   1.817   4.244  0.6048 -0.2573  0.2706
19183TIP3    H279041   1.036   1.865   4.111  1.7408  0.1206  0.8803
19184TIP3   OH279042   5.745   1.584  16.312  0.0443  0.4486  0.7169
19184TIP3    H179043   5.745   1.673  16.277 -0.5008 -0.4192 -1.7025
19184TIP3    H279044   5.654   1.556  16.306  0.2642 -0.3733  1.1580
19185TIP3   OH279045   4.846   0.751   0.098 -0.1826 -0.5454  0.2949
19185TIP3    H179046   4.842   0.798   0.181 -1.1966 -0.7809  0.3955
19185TIP3    H279047   4.894   0.809   0.040  1.7971 -0.9679  1.4124
19186TIP3   OH279048   5.830   5.041   4.655  0.1609 -0.5022 -0.2729
19186TIP3    H179049   5.811   5.062   4.747  1.0985  0.4097 -0.2712
19186TIP3    H279050   5.749   5.000   4.623  0.5821 -3.0734  1.5823
19187TIP3   OH279051   1.132   1.045  11.591  0.1414 -0.1552 -0.2327
19187TIP3    H179052   1.199   1.073  11.528 -0.3033  0.1281 -0.5916
19187TIP3    H279053   1.112   1.123  11.642 -1.7445  0.5079 -1.8216
19188TIP3   OH279054   3.815   5.651   2.287  0.3898 -0.5412 -0.2378
19188TIP3    H179055   3.807   5.746   2.290  1.0079 -0.5015  0.5337
19188TIP3    H279056   3.736   5.618   2.328 -1.0072 -0.4454 -2.6663
19189TIP3   OH279057   5.054   6.180   1.537 -0.4023 -0.0043 -0.2497
19189TIP3    H179058   5.051   6.162   1.444  1.2584  0.2436 -0.3697
19189TIP3    H279059   5.116   6.116   1.573 -1.3901 -0.4276  0.7756
19190TIP3   OH279060   0.819   0.145   1.112 -0.1731  0.1718 -0.0195
19190TIP3    H179061   0.903   0.109   1.083  0.5392  0.9130  1.0197
19190TIP3    H279062   0.758   0.126   1.041  0.8759 -0.3831 -0.7977
19191TIP3   OH279063   1.143   2.769   1.517 -0.0551 -0.1895 -0.0318
19191TIP3    H179064   1.162   2.784   1.610  1.8834 -0.0786 -0.4111
19191TIP3    H279065   1.152   2.674   1.506 -0.5464 -0.2338 -0.0526
19192TIP3   OH279066   3.340   2.905  15.623  0.8310 -0.4076 -0.2750
19192TIP3    H179067   3.388   2.912  15.541 -1.5828 -0.1986 -1.7676
19192TIP3    H279068   3.319   2.812  15.631  1.1511 -0.4454  0.1794
19193TIP3   OH279069   4.968   0.928  17.146  0.2147 -0.6811  0.0298
19193TIP3    H179070   4.891   0.982  17.132  0.3209 -0.0036  1.8061
19193TIP3    H279071   4.999   0.907  17.058 -1.5322 -0.3254 -0.7081
19194TIP3   OH279072   5.396   5.966   3.579  0.2769 -0.2913  0.4914
19194TIP3    H179073   5.419   6.050   3.538 -1.1048 -0.8189 -1.5182
19194TIP3    H279074   5.476   5.914   3.576  0.1623 -0.4202 -1.9535
19195TIP3   OH279075   0.982   0.882   4.658 -0.2784 -0.0970  1.0813
19195TIP3    H179076   1.000   0.947   4.590  1.9371  0.4497  2.0782
19195TIP3    H279077   0.888   0.865   4.651 -0.6875  2.1988 -0.0955
19196TIP3   OH279078   5.284   6.287   4.759 -0.4130  0.4490  0.6416
19196TIP3    H179079   5.320   6.318   4.676  0.4297 -1.2747  0.3393
19196TIP3    H279080   5.201   6.245   4.735  0.2479 -0.8218  0.5327
19197TIP3   OH279081   3.989   3.649  10.380  0.3917 -0.1310  0.1096
19197TIP3    H179082   3.926   3.634  10.450 -0.1649 -1.7361 -0.6901
19197TIP3    H279083   4.073   3.622  10.416  0.3983  0.5898  0.6693
19198TIP3   OH279084   3.650   6.035   5.543  0.3411 -0.1364 -0.4438
19198TIP3    H179085   3.604   6.098   5.487  0.3445  0.9810  0.7615
19198TIP3    H279086   3.737   6.073   5.556  0.1689 -0.0967  0.7285
19199TIP3   OH279087   4.165   0.217   3.118 -0.2905  0.5037  0.5491
19199TIP3    H179088   4.083   0.169   3.108  0.1292 -0.2944  0.8127
19199TIP3    H279089   4.178   0.224   3.212  2.1905 -3.4801  0.7128
19200TIP3   OH279090   5.045   5.739  11.253 -0.2443  0.0004  0.2490
19200TIP3    H179091   4.960   5.774  11.282 -1.5297 -2.1701 -0.7010
19200TIP3    H279092   5.058   5.661  11.307  0.0535 -0.9203 -1.1249
19201TIP3   OH279093   0.820   4.285   4.620 -0.1778  0.4738 -0.1313
19201TIP3    H179094   0.817   4.273   4.525  1.3350  1.8941 -0.4000
19201TIP3    H279095   0.797   4.377   4.633  3.4113  1.4467  0.4762
19202TIP3   OH279096   4.362   1.200  10.822 -0.4997 -0.3232  0.0378
19202TIP3    H179097   4.369   1.174  10.730 -1.0717  1.0650 -0.4260
19202TIP3    H279098   4.297   1.271  10.822 -1.2562 -0.9587  1.6592
19203TIP3   OH279099   5.240   0.587  13.753  0.5832  0.0159 -0.0339
19203TIP3    H179100   5.291   0.567  13.831 -0.6052  1.4397  1.1508
19203TIP3    H279101   5.305   0.614  13.688  1.4946 -0.1238  0.7992
19204TIP3   OH279102   5.289   1.139   1.014  0.1272  0.2085 -0.1639
19204TIP3    H179103   5.196   1.159   1.011 -0.2607 -1.2690  0.9095
19204TIP3    H279104   5.301   1.073   0.945  0.3466  0.2636 -0.1789
19205TIP3   OH279105   5.556   3.729  14.608 -0.0530 -0.4276 -0.1810
19205TIP3    H179106   5.496   3.706  14.537  0.6661  0.3020 -1.0429
19205TIP3    H279107   5.575   3.822  14.594  2.6637 -1.0176 -1.0066
19206TIP3   OH279108   5.907   6.346  15.872  0.0567 -0.3512  0.2113
19206TIP3    H179109   5.975   6.413  15.870  0.3751 -0.6471  0.8093
19206TIP3    H279110   5.953   6.265  15.850 -0.1395 -0.5238  0.4313
19207TIP3   OH279111   2.429   4.243  17.086  0.0930  0.1763 -0.6682
19207TIP3    H179112   2.342   4.205  17.102  0.6767 -1.2484 -0.6928
19207TIP3    H279113   2.411   4.334  17.062 -1.4608 -0.2752 -1.4156
19208TIP3   OH279114   3.099   3.834   2.487  0.2469  0.5237  0.3845
19208TIP3    H179115   3.167   3.773   2.514  0.7526  1.2103  0.6801
19208TIP3    H279116   3.087   3.816   2.394  1.0136  0.5602  0.2690
19209TIP3   OH279117   2.242   3.233   5.028  0.3873 -0.1416 -0.8340
19209TIP3    H179118   2.201   3.319   5.019 -0.4508 -0.5339 -0.8861
19209TIP3    H279119   2.327   3.242   4.985  0.7893  0.9771  0.1572
19210TIP3   OH279120   5.129   0.416   0.576 -0.0579 -0.6827 -0.3009
19210TIP3    H179121   5.081   0.453   0.650  0.9134 -1.7278  0.8912
19210TIP3    H279122   5.215   0.459   0.579 -1.0389  1.8093 -2.9208
19211TIP3   OH279123   1.937   3.820  12.412 -0.4050  0.2792 -0.1705
19211TIP3    H179124   1.846   3.820  12.384 -0.5610 -2.4061  0.0487
19211TIP3    H279125   1.987   3.803  12.332 -0.4233 -1.7781  0.2046
19212TIP3   OH279126   5.413   6.635  12.137 -0.4029  0.6311  0.4450
19212TIP3    H179127   5.458   6.608  12.217 -0.3913  2.1960  0.9971
19212TIP3    H279128   5.382   6.553  12.098  3.7636 -0.7484 -0.5411
19213TIP3   OH279129   0.192   6.245   2.208 -0.1460  0.5405  0.5213
19213TIP3    H179130   0.108   6.219   2.171  0.5866  0.6437 -1.3064
19213TIP3    H279131   0.179   6.240   2.303 -1.7569 -0.8616  0.2765
19214TIP3   OH279132   0.423   4.942   2.722 -0.1836 -0.0725 -0.2447
19214TIP3    H179133   0.414   4.880   2.649  0.0779  0.0341 -0.3708
19214TIP3    H279134   0.377   4.901   2.795 -0.5981 -0.1005 -0.5202
19215TIP3   OH279135   0.216   5.758  14.769  0.1368 -0.2088  0.7411
19215TIP3    H179136   0.207   5.663  14.775  0.0066 -0.3056 -0.7094
19215TIP3    H279137   0.176   5.791  14.850 -1.5965 -1.2895  0.3787
19216TIP3   OH279138   0.222   3.794   5.570  0.2537  0.6160  0.0464
19216TIP3    H179139   0.173   3.876   5.561 -1.8634 -0.4286  1.2385
19216TIP3    H279140   0.161   3.736   5.616  1.5571 -1.7619 -1.1190
19217TIP3   OH279141   2.569   1.334   4.304  0.4122  0.6250  0.0012
19217TIP3    H179142   2.565   1.297   4.216  0.6628  1.5575 -0.4093
19217TIP3    H279143   2.581   1.427   4.291  1.5183  0.6508  1.0409
19218TIP3   OH279144   1.919   4.773   5.892 -0.3975  0.3168 -0.4218
19218TIP3    H179145   1.906   4.696   5.948 -0.0936 -0.0241 -0.8156
19218TIP3    H279146   2.010   4.767   5.863 -0.9728 -0.4149 -2.2592
19219TIP3   OH279147   2.438   1.246   6.607 -0.0530 -0.1150 -0.5491
19219TIP3    H179148   2.358   1.253   6.555  0.5557 -1.1148 -1.6405
19219TIP3    H279149   2.473   1.335   6.608 -0.1916 -0.0308 -1.6711
19220TIP3   OH279150   5.169   5.423   3.361  0.1589  0.1343  0.0817
19220TIP3    H179151   5.077   5.440   3.381 -0.0012 -1.5958  1.0639
19220TIP3    H279152   5.217   5.462   3.434 -0.0483 -1.4899  1.1444
19221TIP3   OH279153   4.396   4.272   6.090  0.1600 -0.1454 -0.2582
19221TIP3    H179154   4.308   4.285   6.054  0.8277  0.2513 -1.8089
19221TIP3    H279155   4.394   4.183   6.125 -0.9004 -0.0911 -0.1375
19222TIP3   OH279156   4.927   0.887  14.457 -0.0256 -0.1777  0.5595
19222TIP3    H179157   4.910   0.837  14.377 -1.5387 -0.8805  1.2638
19222TIP3    H279158   4.908   0.978  14.434  0.0221 -0.3105 -0.0033
19223TIP3   OH279159   4.703   0.720  16.177 -0.4197 -0.7373  0.7034
19223TIP3    H179160   4.697   0.695  16.269 -0.7264 -0.8151  0.6648
19223TIP3    H279161   4.617   0.759  16.158 -0.3995 -0.8300  0.4193
19224TIP3   OH279162   0.971   4.421  13.890  0.0622  0.4309  0.1838
19224TIP3    H179163   1.021   4.341  13.871 -0.2421  0.2257  0.2389
19224TIP3    H279164   1.033   4.479  13.933  0.2756  0.2084  0.1753
19225TIP3   OH279165   1.390   4.008  15.227  0.1719 -0.5711 -0.4486
19225TIP3    H179166   1.380   4.094  15.187  0.7515 -0.8777 -1.2894
19225TIP3    H279167   1.309   3.994  15.276  0.1340  0.5047 -0.1873
19226TIP3   OH279168   5.485   2.131  12.749  0.3977 -0.2646 -0.1632
19226TIP3    H179169   5.556   2.068  12.757  0.5064 -0.1594 -0.2929
19226TIP3    H279170   5.419   2.086  12.696  1.2535  0.3929 -1.8426
19227TIP3   OH279171   5.579   1.774   4.192  0.1285  0.4423 -0.2936
19227TIP3    H179172   5.572   1.861   4.152 -1.1013 -0.0293 -1.1710
19227TIP3    H279173   5.520   1.778   4.267  1.0618  0.7499  0.4500
19228TIP3   OH279174   0.013   0.614  11.069 -0.1426 -0.3062  0.3280
19228TIP3    H179175   0.068   0.613  10.991 -0.5342 -0.9324  0.0601
19228TIP3    H279176   0.028   0.701  11.107  0.1860 -0.0671 -0.3382
19229TIP3   OH279177   6.308   3.534   0.944 -0.2022  0.1515 -0.8219
19229TIP3    H179178   6.264   3.606   0.989  0.7796 -0.1604  0.6793
19229TIP3    H279179   6.400   3.561   0.940  0.0311 -0.6475 -1.0150
19230TIP3   OH279180   0.285   4.533   4.642 -0.1701  0.1521 -0.3736
19230TIP3    H179181   0.234   4.550   4.563 -1.2937  0.9113  0.4875
19230TIP3    H279182   0.246   4.589   4.709  3.1799  2.5725 -0.1469
19231TIP3   OH279183   6.635   6.716  11.994  0.0620 -0.1036 -0.0164
19231TIP3    H179184   6.605   6.767  11.919  1.0625  0.4909 -0.0261
19231TIP3    H279185   6.585   6.750  12.068  0.6415  0.8436 -0.0412
19232TIP3   OH279186   2.830   6.791  12.104  0.0210  0.0054  0.1829
19232TIP3    H179187   2.767   6.863  12.097 -0.5563 -0.3908  1.2440
19232TIP3    H279188   2.794   6.733  12.170  0.1434 -1.6380 -1.1400
19233TIP3   OH279189   5.099   5.421   2.143  0.8619 -0.7156 -0.6702
19233TIP3    H179190   5.125   5.379   2.061 -0.7666  0.3423 -1.7847
19233TIP3    H279191   5.003   5.416   2.143  0.8301 -1.2721  1.5190
19234TIP3   OH279192   6.112   0.442   0.891 -0.0120  0.0724 -0.6175
19234TIP3    H179193   6.026   0.401   0.886 -0.4449  0.5594  1.6192
19234TIP3    H279194   6.103   0.523   0.840 -0.7104 -0.1161 -0.8009
19235TIP3   OH279195   0.863   0.387  11.528 -0.4048  0.0415 -0.5106
19235TIP3    H179196   0.821   0.304  11.551  0.3051 -0.7676 -1.9633
19235TIP3    H279197   0.795   0.437  11.484 -1.1130  0.6621  1.2164
19236TIP3   OH279198   1.236   2.340   5.939  0.2720  0.7189  0.3651
19236TIP3    H179199   1.259   2.367   5.850 -0.7618 -0.1157 -0.1824
19236TIP3    H279200   1.141   2.355   5.945  0.3029  0.6317  1.2739
19237TIP3   OH279201   6.780   4.461   4.162  0.2418  0.8473 -0.1388
19237TIP3    H179202   6.726   4.395   4.117  1.7381 -0.2567 -0.4109
19237TIP3    H279203   6.759   4.543   4.118  1.9139 -0.2092 -3.3138
19238TIP3   OH279204   0.701   2.424   5.364  0.5824  0.1060  0.1586
19238TIP3    H179205   0.658   2.344   5.335 -0.3499  0.8722 -0.6140
19238TIP3    H279206   0.680   2.489   5.297  1.6667  0.9009  0.5611
19239TIP3   OH279207   2.948   2.960  10.697  0.4671  0.0664 -0.4907
19239TIP3    H179208   2.969   2.877  10.740  2.4997  0.7325 -0.1183
19239TIP3    H279209   2.877   2.937  10.637  1.2609 -2.0674 -0.7315
19240TIP3   OH279210   4.284   2.809   1.820  0.1232 -0.6199  0.2343
19240TIP3    H179211   4.310   2.865   1.746  0.8421 -1.0856  0.1238
19240TIP3    H279212   4.343   2.734   1.815  0.2209 -0.6270  1.3223
19241TIP3   OH279213   5.704   1.379  15.974  0.1741 -0.1496  0.7000
19241TIP3    H179214   5.688   1.353  15.883 -1.7806 -1.4792  1.3327
19241TIP3    H279215   5.671   1.468  15.980 -2.1034 -0.9060  0.6067
19242TIP3   OH279216   6.343   4.652   0.065 -0.4716 -0.6251  0.0216
19242TIP3    H179217   6.404   4.580   0.083  1.3470  0.9229  0.2885
19242TIP3    H279218   6.323   4.642  -0.029 -0.2583 -1.4668  0.0514
19243TIP3   OH279219   2.766   3.097   0.256  0.9394 -0.6203 -0.4559
19243TIP3    H179220   2.803   3.176   0.296  1.0439 -0.4717 -0.8465
19243TIP3    H279221   2.692   3.129   0.204 -0.0628 -0.9644  0.7035
19244TIP3   OH279222   5.438   0.796  11.391 -0.1993 -0.0450  0.1032
19244TIP3    H179223   5.412   0.888  11.389 -0.0469  0.0028  0.2247
19244TIP3    H279224   5.359   0.748  11.369 -0.9207  0.0025  2.3762
19245TIP3   OH279225   3.503   2.772  16.255 -0.1460  0.2409  0.1754
19245TIP3    H179226   3.469   2.818  16.332 -0.6560 -0.1475  0.1836
19245TIP3    H279227   3.586   2.735  16.285 -1.4300 -1.9137  1.2783
19246TIP3   OH279228   4.988   4.874  16.090  0.3093  0.1219 -0.4734
19246TIP3    H179229   5.047   4.812  16.047 -1.3545 -1.6902 -0.2756
19246TIP3    H279230   5.015   4.959  16.055  1.8638 -0.8030 -1.7319
19247TIP3   OH279231   4.140   6.587  13.844  0.4804 -0.4937 -0.7051
19247TIP3    H179232   4.202   6.660  13.845  0.6818 -0.6706 -0.2794
19247TIP3    H279233   4.054   6.629  13.839  0.4639 -0.1244  1.7082
19248TIP3   OH279234   0.832   2.807  14.629 -0.7515  0.3555 -0.6501
19248TIP3    H179235   0.786   2.723  14.627  1.2728 -0.8858 -3.7890
19248TIP3    H279236   0.912   2.788  14.679 -1.6016  1.3203  1.1591
19249TIP3   OH279237   2.003   0.750   4.525  0.0972 -0.0263 -0.0737
19249TIP3    H179238   2.080   0.713   4.568 -0.4248  1.1609  2.0380
19249TIP3    H279239   1.975   0.683   4.463  0.7585 -2.0157  1.6603
19250TIP3   OH279240   4.649   3.501   5.173  0.3649  0.1196  1.0002
19250TIP3    H179241   4.621   3.569   5.111  0.5579  1.0300  1.8827
19250TIP3    H279242   4.636   3.419   5.126  1.4103  0.8221 -0.6117
19251TIP3   OH279243   5.385   5.308   1.898  0.2593 -0.5463  0.2114
19251TIP3    H179244   5.337   5.338   1.820 -0.4163 -0.7049  0.5576
19251TIP3    H279245   5.334   5.233   1.929 -2.8030  2.6594  3.9934
19252TIP3   OH279246   1.239   3.687  12.262  0.3609 -0.4312  0.6520
19252TIP3    H179247   1.204   3.760  12.212  0.9140 -0.4385  0.2443
19252TIP3    H279248   1.334   3.694  12.251  0.4233 -1.1700  0.6615
19253TIP3   OH279249   2.471   6.614  13.937  0.1116  0.1920 -0.1796
19253TIP3    H179250   2.440   6.673  14.007  2.7311  1.3959  0.0836
19253TIP3    H279251   2.414   6.633  13.863 -1.3562  0.4605  0.9739
19254TIP3   OH279252   2.533   3.369  14.472 -0.0756  0.2076 -0.0907
19254TIP3    H179253   2.549   3.275  14.476  0.2994  0.3100  0.9261
19254TIP3    H279254   2.438   3.377  14.469 -0.1260 -0.1821  0.4154
19255TIP3   OH279255   0.805   1.468  16.170 -0.1586  0.0680 -0.0834
19255TIP3    H179256   0.807   1.564  16.177 -0.0190  0.2329 -1.8406
19255TIP3    H279257   0.717   1.444  16.200  0.0687  0.6540  1.1200
19256TIP3   OH279258   5.501   2.096  12.318  0.1399 -0.0204  0.4462
19256TIP3    H179259   5.461   2.016  12.350  1.9453 -1.5566 -0.8475
19256TIP3    H279260   5.502   2.085  12.222  1.9398  0.7114  0.3351
19257TIP3   OH279261   3.183   1.248  14.302 -0.0236 -0.0455  0.6147
19257TIP3    H179262   3.231   1.166  14.309 -1.7708 -1.1496  0.1344
19257TIP3    H279263   3.108   1.238  14.360 -1.2283  0.4762 -0.7911
19258TIP3   OH279264   0.323   2.023  10.383 -0.3892 -0.0574  0.2069
19258TIP3    H179265   0.244   2.077  10.389 -0.2118  0.1359  0.9058
19258TIP3    H279266   0.301   1.956  10.318 -2.1499 -1.6259  2.2492
19259TIP3   OH279267   1.297   2.835  15.130 -0.2820 -0.1680 -0.3292
19259TIP3    H179268   1.341   2.876  15.056  0.2270 -0.4695 -0.2009
19259TIP3    H279269   1.237   2.772  15.090 -0.1289 -0.2127 -0.4901
19260TIP3   OH279270   0.438   5.329  16.614 -0.2758  0.4433 -0.5018
19260TIP3    H179271   0.477   5.244  16.634  1.4765  1.1294 -0.8441
19260TIP3    H279272   0.470   5.351  16.527 -1.5062  1.0372 -0.8389
19261TIP3   OH279273   6.182   4.306  13.181 -0.2977  0.0190  0.2242
19261TIP3    H179274   6.089   4.316  13.158  0.1160  1.6422 -0.9205
19261TIP3    H279275   6.219   4.393  13.170  1.3347 -0.5440  0.9175
19262TIP3   OH279276   4.155   6.312  14.334 -0.4380  0.0547 -0.0609
19262TIP3    H179277   4.091   6.380  14.312 -0.7380 -0.2606 -0.1803
19262TIP3    H279278   4.211   6.306  14.257 -0.5680 -0.0049 -0.1529
19263TIP3   OH279279   5.971   0.444  15.253  0.7572  0.5507 -0.2468
19263TIP3    H179280   6.061   0.474  15.240  0.0982  2.6730 -0.2616
19263TIP3    H279281   5.927   0.517  15.296 -1.2940  0.0950 -1.4233
19264TIP3   OH279282   4.107   4.535  14.857 -0.2036 -0.3647 -0.6012
19264TIP3    H179283   4.019   4.545  14.821 -0.9266 -2.2675  0.4649
19264TIP3    H279284   4.159   4.601  14.812 -2.0374  0.4217 -1.6952
19265TIP3   OH279285   4.972   5.307  15.436  0.0471  0.2032 -0.0436
19265TIP3    H179286   4.888   5.299  15.483  0.1738  0.5094  0.2364
19265TIP3    H279287   5.038   5.293  15.504  0.2370 -2.0484 -0.6033
19266TIP3   OH279288   4.542   1.145   0.726 -0.4546  0.2159  0.2051
19266TIP3    H179289   4.566   1.135   0.819 -1.7171 -0.7562  0.4550
19266TIP3    H279290   4.594   1.078   0.681  0.0146  0.5617  0.2148
19267TIP3   OH279291   6.402   6.196   4.583  0.3954  0.5638  0.0342
19267TIP3    H179292   6.384   6.287   4.608  1.9920  2.1265 -3.8393
19267TIP3    H279293   6.497   6.191   4.576  0.3861 -1.6353  0.6739
19268TIP3   OH279294   1.069   2.435  16.781  0.2452 -0.0497 -0.0049
19268TIP3    H179295   1.049   2.343  16.793  0.4725 -0.0751  0.1852
19268TIP3    H279296   1.018   2.480  16.848  0.8895 -0.1230  0.5510
19269TIP3   OH279297   4.276   1.920   1.823 -0.1190 -0.1169  0.7376
19269TIP3    H179298   4.226   1.857   1.874 -0.6185 -0.2323  0.1253
19269TIP3    H279299   4.228   1.927   1.740  1.0219 -0.4217  0.0235
19270TIP3   OH279300   2.832   3.926  15.669 -0.3246  0.3300  0.6188
19270TIP3    H179301   2.832   3.834  15.642  1.0887 -0.4333  2.9118
19270TIP3    H279302   2.907   3.934  15.728 -1.6949  2.4068  2.2366
19271TIP3   OH279303   6.143   6.667  12.472 -0.1569 -0.1905  0.0689
19271TIP3    H179304   6.105   6.744  12.430  0.6926 -0.3975 -1.1359
19271TIP3    H279305   6.077   6.598  12.460  0.0619 -0.2448 -0.9669
19272TIP3   OH279306   5.445   2.690  15.322 -0.0438 -0.0534 -0.2893
19272TIP3    H179307   5.467   2.671  15.413 -0.2106  0.4393 -0.1420
19272TIP3    H279308   5.367   2.745  15.327 -0.1636 -0.1798 -0.7380
19273TIP3   OH279309   3.493   0.282  11.076 -0.0037  0.6301  0.1868
19273TIP3    H179310   3.400   0.299  11.065  0.0254  0.3957 -0.4830
19273TIP3    H279311   3.536   0.363  11.048 -0.0217  0.9177  0.9781
19274TIP3   OH279312   0.101   3.176  14.856 -0.1971  0.1981  0.0640
19274TIP3    H179313   0.171   3.206  14.798  0.5337 -0.8218  0.4058
19274TIP3    H279314   0.131   3.092  14.891 -2.3850 -1.2344 -1.2367
19275TIP3   OH279315   4.637   6.200  11.363 -0.6219  0.3607 -0.2440
19275TIP3    H179316   4.694   6.257  11.311  0.8893  0.1901  1.1459
19275TIP3    H279317   4.550   6.240  11.357  0.1438  2.0598 -0.3906
19276TIP3   OH279318   6.738   3.758  12.571  0.4546 -0.2281  0.0277
19276TIP3    H179319   6.767   3.846  12.598 -0.8897 -0.3377  1.9944
19276TIP3    H279320   6.660   3.774  12.518  0.0974 -0.2216  0.5461
19277TIP3   OH279321   5.082   5.786  13.747 -0.1619 -0.4872 -0.2820
19277TIP3    H179322   5.019   5.799  13.676  1.6085  0.3126 -1.8134
19277TIP3    H279323   5.105   5.874  13.775  0.2323 -0.7677  0.2881
19278TIP3   OH279324   2.128   5.654  13.573  0.0398 -0.1286  0.4689
19278TIP3    H179325   2.183   5.582  13.541  0.1623  0.1785 -0.0312
19278TIP3    H279326   2.043   5.640  13.531 -0.5392 -1.0826  1.9031
19279TIP3   OH279327   6.638   6.448  12.368  0.1968  0.0429  0.1755
19279TIP3    H179328   6.727   6.416  12.385  0.8119  1.8503  0.5173
19279TIP3    H279329   6.622   6.514  12.434 -1.9309 -1.0810  0.9029
19280TIP3   OH279330   3.045   2.772  12.555 -0.3404  0.0186 -0.0497
19280TIP3    H179331   2.967   2.798  12.506 -1.2971  1.4742  2.1203
19280TIP3    H279332   3.099   2.850  12.557  0.2177 -0.3713  0.2163
19281TIP3   OH279333   2.118   1.963   2.149 -0.0139  0.0847  0.5578
19281TIP3    H179334   2.105   2.039   2.207  0.2184 -0.3195  1.1510
19281TIP3    H279335   2.136   2.001   2.063 -2.5142  0.7111  0.2226
19282TIP3   OH279336   3.434   3.824   4.327 -0.1596  0.1331 -0.3261
19282TIP3    H179337   3.502   3.758   4.342 -0.0116  0.6730  1.7437
19282TIP3    H279338   3.370   3.809   4.396 -3.3771 -1.6964 -3.4121
19283TIP3   OH279339   0.429   2.686   0.865  0.3212 -0.0888 -0.1173
19283TIP3    H179340   0.415   2.700   0.772 -0.9243 -0.3260  0.0226
19283TIP3    H279341   0.521   2.660   0.872  0.0257 -1.6155 -1.4526
19284TIP3   OH279342   5.099   0.954   1.596 -0.1245  0.2176  0.3283
19284TIP3    H179343   5.125   1.022   1.534 -1.4297  1.9595  1.5935
19284TIP3    H279344   5.120   0.991   1.682  0.8803 -1.7891  0.9960
19285TIP3   OH279345   5.533   3.008   3.737 -0.1934 -0.2519  0.5715
19285TIP3    H179346   5.542   2.923   3.780 -2.8820 -1.5698 -1.2343
19285TIP3    H279347   5.618   3.050   3.751  0.5617 -2.3523  3.2602
19286TIP3   OH279348   4.147   5.186   2.032  0.2903  0.4827  0.4227
19286TIP3    H179349   4.195   5.269   2.030  1.7203 -0.2981  0.4863
19286TIP3    H279350   4.135   5.167   2.125  0.3187  0.4291  0.4156
19287TIP3   OH279351   2.145   0.945  10.624 -0.2005 -0.4228 -0.1352
19287TIP3    H179352   2.135   0.988  10.709 -1.8090 -0.0243 -0.4984
19287TIP3    H279353   2.064   0.964  10.578  0.1410 -1.6629 -1.3058
19288TIP3   OH279354   6.136   2.853   0.766 -0.8762  0.0980 -0.5675
19288TIP3    H179355   6.168   2.765   0.785 -2.3152 -0.3609 -0.1623
19288TIP3    H279356   6.046   2.840   0.737 -1.2099  1.4690 -0.2075
19289TIP3   OH279357   0.027   5.834   6.292 -0.6217 -0.1611 -0.3372
19289TIP3    H179358   0.015   5.929   6.291 -0.8470 -0.1434  1.5570
19289TIP3    H279359  -0.018   5.805   6.371  1.7011 -1.5262  0.5537
19290TIP3   OH279360   5.400   6.070   1.284 -0.5120  0.0670 -0.0288
19290TIP3    H179361   5.330   6.005   1.288  1.1268 -1.9291 -1.4590
19290TIP3    H279362   5.414   6.085   1.191  1.2817 -0.0366  0.1762
19291TIP3   OH279363   0.666   5.971   2.335  0.0905  0.2379  0.3230
19291TIP3    H179364   0.736   5.976   2.400  0.3036  0.7302  0.0586
19291TIP3    H279365   0.708   5.995   2.252 -0.4025  0.6189  0.1757
19292TIP3   OH279366   2.578   6.506  15.281  0.3665  0.6147 -0.0716
19292TIP3    H179367   2.596   6.426  15.330 -0.3588 -0.6284 -1.7022
19292TIP3    H279368   2.661   6.553  15.279  0.5556  0.4119  1.7643
19293TIP3   OH279369   1.810   3.390  16.045  0.3212 -0.1188 -0.2935
19293TIP3    H179370   1.890   3.438  16.023 -0.1606  0.4557 -0.8578
19293TIP3    H279371   1.828   3.349  16.129  0.3808  1.9813  0.7781
19294TIP3   OH279372   2.596   6.253   3.249  0.3542  0.3730 -0.3101
19294TIP3    H179373   2.626   6.288   3.333  1.2976  1.4854 -1.0797
19294TIP3    H279374   2.675   6.222   3.205  0.0501  0.8969 -1.2730
19295TIP3   OH279375   4.267   6.513   0.843 -0.6884 -0.1081 -0.6480
19295TIP3    H179376   4.264   6.531   0.937  2.4916 -1.9583 -0.0360
19295TIP3    H279377   4.324   6.582   0.808 -0.1833 -0.6159 -0.8327
19296TIP3   OH279378   0.247   0.407  15.029  0.2274 -0.1031 -0.0301
19296TIP3    H179379   0.334   0.427  14.994 -0.8695  3.6734 -1.1517
19296TIP3    H279380   0.249   0.440  15.119 -0.4217  1.6197 -0.5943
19297TIP3   OH279381   2.200   1.987   4.287  0.3603  0.4879  0.0302
19297TIP3    H179382   2.245   2.044   4.225  1.6346 -0.0414  0.4200
19297TIP3    H279383   2.131   1.945   4.236 -0.5922  2.3190 -0.2607
19298TIP3   OH279384   1.724   3.827   1.250  0.1530 -0.3179  0.6793
19298TIP3    H179385   1.820   3.836   1.247  0.1862 -0.3652  1.4468
19298TIP3    H279386   1.692   3.916   1.262  0.1571 -0.4214  1.5010
19299TIP3   OH279387   3.410   5.202   4.662  0.0822 -0.6177  0.1349
19299TIP3    H179388   3.348   5.198   4.734  0.1421 -0.2825  0.2037
19299TIP3    H279389   3.433   5.295   4.654  1.3410 -0.8524  0.7633
19300TIP3   OH279390   5.054   1.902  11.216  0.5638 -0.9475  0.3760
19300TIP3    H179391   5.023   1.820  11.177  0.0604 -0.1490 -1.0057
19300TIP3    H279392   5.066   1.960  11.141  2.4498 -0.2450  1.1821
19301TIP3   OH279393   4.986   0.527   1.078  0.3912  0.2597 -0.0619
19301TIP3    H179394   4.969   0.516   1.171  3.8461 -1.8151  0.5102
19301TIP3    H279395   4.976   0.439   1.042  1.4233  0.5576 -1.1420
19302TIP3   OH279396   5.502   6.760   5.544 -0.0357  0.1569  0.3881
19302TIP3    H179397   5.515   6.808   5.462  1.5638 -2.0194 -0.7316
19302TIP3    H279398   5.527   6.823   5.612 -2.7940  2.5130 -0.5864
19303TIP3   OH279399   1.228   6.025  13.170  0.4144 -0.0868  0.3275
19303TIP3    H179400   1.322   6.019  13.188  0.1458 -1.0927  1.4807
19303TIP3    H279401   1.188   5.956  13.222 -0.7739 -1.1829 -1.8794
19304TIP3   OH279402   2.624   6.453   1.565  0.2845  0.1152 -0.3594
19304TIP3    H179403   2.569   6.518   1.610 -0.4385 -0.3526 -0.5433
19304TIP3    H279404   2.565   6.412   1.501  0.7862 -0.5737 -0.3901
19305TIP3   OH279405   3.061   1.821  13.464 -0.5378 -0.2940 -0.0036
19305TIP3    H179406   3.054   1.887  13.534  2.1436  0.9050 -0.6955
19305TIP3    H279407   3.061   1.737  13.510 -2.4800  0.2213  1.0512
19306TIP3   OH279408   6.718   0.888  15.151  0.3297  0.3921 -0.3693
19306TIP3    H179409   6.722   0.958  15.216 -0.3306  0.6250 -0.5633
19306TIP3    H279410   6.730   0.934  15.067 -0.3311  0.3131 -0.5136
19307TIP3   OH279411   3.037   1.267   2.251 -0.1294 -0.1637 -0.1419
19307TIP3    H179412   3.129   1.241   2.246 -0.1684 -0.1574 -0.8807
19307TIP3    H279413   3.040   1.362   2.259 -0.0754 -0.1600 -0.2033
19308TIP3   OH279414   5.154   1.925   6.274 -0.0965  0.2443  0.2436
19308TIP3    H179415   5.210   1.863   6.227 -0.6299 -2.0207  2.3848
19308TIP3    H279416   5.212   1.999   6.294  1.0903 -0.3562 -0.7917
19309TIP3   OH279417   6.804   3.739   1.863 -0.3172 -0.6529  0.3245
19309TIP3    H179418   6.724   3.789   1.843  0.6977  1.3319  0.9499
19309TIP3    H279419   6.868   3.772   1.800  1.2345  1.1988  2.7026
19310TIP3   OH279420   0.807   0.074  12.214  0.4297 -0.0139 -0.1821
19310TIP3    H179421   0.773  -0.013  12.196 -0.1993  0.2086 -0.1009
19310TIP3    H279422   0.793   0.123  12.133 -1.3152  0.6468  0.4602
19311TIP3   OH279423   1.770   1.562   4.327  0.7175 -0.3963  0.1923
19311TIP3    H179424   1.795   1.530   4.240 -0.5396  0.4116 -0.5120
19311TIP3    H279425   1.769   1.484   4.382  1.7116 -0.8932 -0.4766
19312TIP3   OH279426   1.348   3.615  12.758 -0.2536 -0.2280 -0.1136
19312TIP3    H179427   1.441   3.616  12.735 -0.3727 -0.6246 -0.6512
19312TIP3    H279428   1.305   3.663  12.686 -0.6717 -1.7893 -0.9603
19313TIP3   OH279429   5.103   6.414  12.447  0.6258  0.2760 -0.0954
19313TIP3    H179430   5.010   6.392  12.455  0.7298  0.0833  0.6730
19313TIP3    H279431   5.123   6.401  12.354 -0.2794  1.0072 -0.4146
19314TIP3   OH279432   0.376   3.299  11.700 -0.1299 -0.7052  0.5532
19314TIP3    H179433   0.350   3.259  11.783  1.6188  0.8493  1.9594
19314TIP3    H279434   0.461   3.339  11.718  0.7328 -1.0288 -2.2703
19315TIP3   OH279435   4.525   6.415  13.534  0.2313  0.1883 -0.1936
19315TIP3    H179436   4.562   6.327  13.525 -0.6209 -0.3375  1.1830
19315TIP3    H279437   4.598   6.474  13.512  0.9703 -0.8419 -0.5866
19316TIP3   OH279438   4.582   5.513  16.706 -0.0141 -0.7151 -0.4670
19316TIP3    H179439   4.649   5.507  16.775 -0.6766  0.7248  0.3566
19316TIP3    H279440   4.511   5.456  16.737  0.8003 -2.2798 -1.3648
19317TIP3   OH279441   1.276   0.564  11.821  0.0077 -0.0398  0.1088
19317TIP3    H179442   1.238   0.556  11.909  0.7525 -1.7550  0.3163
19317TIP3    H279443   1.202   0.551  11.762 -0.0334 -1.8654  0.5075
19318TIP3   OH279444   0.547   3.650   1.161 -0.4274  0.0690  0.7850
19318TIP3    H179445   0.472   3.610   1.205 -0.7813 -1.2498 -0.9467
19318TIP3    H279446   0.609   3.578   1.150  0.0576  0.5994 -0.0033
19319TIP3   OH279447   0.362   5.103   1.410  0.0022 -0.3667 -0.1806
19319TIP3    H179448   0.271   5.082   1.389  0.0562 -1.8492  0.9184
19319TIP3    H279449   0.368   5.091   1.505  0.9280  1.4772  0.0451
19320TIP3   OH279450   2.411   1.681   4.919  0.3253  0.0906 -0.3795
19320TIP3    H179451   2.372   1.766   4.899  2.9942  1.0618 -1.9949
19320TIP3    H279452   2.449   1.651   4.836  0.6392 -2.0465  0.4618
19321TIP3   OH279453   6.699   2.776  10.775  0.2451 -0.1537  0.0781
19321TIP3    H179454   6.678   2.859  10.819 -0.0070  0.0756 -0.4692
19321TIP3    H279455   6.614   2.740  10.751  0.3653 -0.4803  0.1411
19322TIP3   OH279456   5.518   2.447  11.134  0.6157  0.2496 -0.1654
19322TIP3    H179457   5.584   2.445  11.066 -0.5803 -1.9138 -1.4033
19322TIP3    H279458   5.441   2.485  11.092  0.0621 -0.4959  0.1341
19323TIP3   OH279459   2.967   6.206   4.629 -0.2532  0.2604  0.0748
19323TIP3    H179460   3.048   6.243   4.594 -0.8583 -0.1284 -1.8521
19323TIP3    H279461   2.989   6.116   4.652  0.8072  1.1902  3.2885
19324TIP3   OH279462   0.827   0.266   3.076  0.1008 -0.6840 -0.6564
19324TIP3    H179463   0.746   0.226   3.109  0.6009  0.5798  2.4522
19324TIP3    H279464   0.799   0.313   2.997 -2.2268 -0.2591  0.3270
19325TIP3   OH279465   5.592   5.131   3.794  0.2312 -0.2963  0.4506
19325TIP3    H179466   5.544   5.112   3.875 -0.0760 -1.2989  0.0452
19325TIP3    H279467   5.676   5.086   3.805 -0.3963 -1.7526 -0.4017
19326TIP3   OH279468   2.157   5.818   0.406 -0.2543  0.1328  0.0782
19326TIP3    H179469   2.239   5.796   0.450 -0.6811  0.1428  0.9060
19326TIP3    H279470   2.090   5.807   0.474 -0.9530 -0.0004 -0.6189
19327TIP3   OH279471   3.711   1.709   5.030 -0.3511 -1.1981  0.0212
19327TIP3    H179472   3.766   1.705   4.953 -0.2421 -1.1944  0.0988
19327TIP3    H279473   3.762   1.667   5.099 -0.9770 -2.4092 -0.2263
19328TIP3   OH279474   4.353   0.122  13.431 -0.0573  0.3580  0.0616
19328TIP3    H179475   4.307   0.079  13.504 -2.0185  0.6473 -0.9330
19328TIP3    H279476   4.446   0.113  13.452 -0.5419 -0.6576  1.9643
19329TIP3   OH279477   1.708   0.317  15.717 -0.7944  0.3619 -0.8511
19329TIP3    H179478   1.794   0.351  15.693 -0.0184 -0.2342  0.8587
19329TIP3    H279479   1.658   0.394  15.743  0.5498  0.4664  1.8195
19330TIP3   OH279480   2.550   5.129  13.426  0.5799 -0.0737 -0.5472
19330TIP3    H179481   2.539   5.184  13.349  2.4839  0.9322 -0.1710
19330TIP3    H279482   2.497   5.051  13.408  0.3826  0.4590 -2.5244
19331TIP3   OH279483   3.477   5.260  15.043 -0.7665  0.4675 -0.2020
19331TIP3    H179484   3.496   5.338  15.096  0.3197  0.7493 -0.9591
19331TIP3    H279485   3.540   5.195  15.073 -0.6474  0.3874 -0.6159
19332TIP3   OH279486   1.505   0.906  15.117 -1.4380  0.1330 -0.2330
19332TIP3    H179487   1.600   0.914  15.109 -1.3781 -1.1220 -1.1794
19332TIP3    H279488   1.491   0.864  15.202 -0.9713 -1.7067 -1.0157
19333TIP3   OH279489   2.194   2.736   4.005 -0.1854 -0.8145 -0.8060
19333TIP3    H179490   2.246   2.716   4.082  0.3853 -0.5573 -1.1158
19333TIP3    H279491   2.243   2.806   3.961 -2.7541  2.4379  0.9943
19334TIP3   OH279492   3.478   1.695  13.522 -0.6416  0.1362  0.7005
19334TIP3    H179493   3.455   1.603  13.503 -0.9317  0.1429  1.0189
19334TIP3    H279494   3.567   1.690  13.556 -1.5689 -0.3360  3.2638
19335TIP3   OH279495   1.164   0.094   3.646  0.1830 -0.2232 -0.5147
19335TIP3    H179496   1.222   0.126   3.715  1.9701  0.2001 -2.1066
19335TIP3    H279497   1.139   0.006   3.673 -2.5436  1.3085  2.6167
19336TIP3   OH279498   0.510   6.265   6.252 -0.0868 -0.5665 -0.4152
19336TIP3    H179499   0.548   6.247   6.337  0.5846  0.3162 -0.5098
19336TIP3    H279500   0.430   6.212   6.249 -0.7100  0.2155  1.1982
19337TIP3   OH279501   6.265   6.403  13.462 -0.1317  0.4895 -0.2824
19337TIP3    H179502   6.311   6.455  13.396  1.0121 -0.6830 -0.4353
19337TIP3    H279503   6.326   6.396  13.535 -0.6949  0.2584  0.1724
19338TIP3   OH279504   3.340   2.225  15.014 -0.2995  0.3759  0.5223
19338TIP3    H179505   3.394   2.256  14.942  0.3137  0.5784  1.0657
19338TIP3    H279506   3.332   2.131  15.000  0.6425  0.2606  0.7281
19339TIP3   OH279507   6.510   0.762  11.662  0.0343 -0.2725 -0.2418
19339TIP3    H179508   6.560   0.843  11.667 -1.7589  0.8833 -0.0037
19339TIP3    H279509   6.530   0.726  11.576  2.1372 -0.4892  0.2938
19340TIP3   OH279510   0.108   2.321  15.798  0.5101 -0.3953 -0.4247
19340TIP3    H179511   0.117   2.259  15.871 -1.9657  0.3801  0.6353
19340TIP3    H279512   0.038   2.284  15.744  0.0830  0.6817 -0.6222
19341TIP3   OH279513   4.286   0.220  14.016 -0.5190 -0.3491 -0.6736
19341TIP3    H179514   4.206   0.271  14.005  0.5056  1.7426  0.9259
19341TIP3    H279515   4.283   0.188  14.107 -0.0923 -1.2903 -0.9710
19342TIP3   OH279516   5.628   3.557   6.400  0.2816 -0.0666  0.5752
19342TIP3    H179517   5.651   3.473   6.360 -0.7511 -1.0970  2.0144
19342TIP3    H279518   5.699   3.574   6.462  0.5384  0.1762  0.2160
19343TIP3   OH279519   5.162   3.809   3.516 -0.3930  0.5908  0.8518
19343TIP3    H179520   5.216   3.888   3.515  0.0408  0.3160  1.7226
19343TIP3    H279521   5.225   3.737   3.506 -0.7497  0.3269  0.4217
19344TIP3   OH279522   1.491   5.988   0.932  0.3357  0.2962 -0.7254
19344TIP3    H179523   1.448   5.932   0.868  1.1133 -1.4458  0.1960
19344TIP3    H279524   1.582   5.958   0.933  0.6772  1.3026  0.1068
19345TIP3   OH279525   1.815   1.993  11.340  0.5385 -0.3472 -0.0424
19345TIP3    H179526   1.909   2.013  11.340  0.3531  0.8298 -2.7128
19345TIP3    H279527   1.810   1.901  11.313  0.8939 -0.0747 -1.0598
19346TIP3   OH279528   0.384   1.132  16.724 -0.6633  0.2183 -0.7357
19346TIP3    H179529   0.435   1.193  16.776  1.1830 -1.8051 -0.0264
19346TIP3    H279530   0.339   1.077  16.788 -0.1514 -0.8721 -1.2835
19347TIP3   OH279531   5.225   4.983   0.741 -0.6979  0.9487  0.0178
19347TIP3    H179532   5.277   4.954   0.665 -1.2436  0.3925 -0.1558
19347TIP3    H279533   5.154   5.035   0.702 -1.9756 -0.7414 -0.0499
19348TIP3   OH279534   1.131   4.589   1.732 -0.7444  0.6843 -0.2270
19348TIP3    H179535   1.210   4.557   1.775 -0.7444  0.5655 -0.3157
19348TIP3    H279536   1.160   4.668   1.685 -0.4192  0.0042 -1.2028
19349TIP3   OH279537   5.114   5.177   4.494  0.4400 -0.0261 -0.5530
19349TIP3    H179538   5.132   5.268   4.518 -0.8112  0.4484 -1.3211
19349TIP3    H279539   5.105   5.132   4.578 -1.9157  1.2090 -0.0345
19350TIP3   OH279540   4.287   6.740  15.241 -0.0017 -0.2519  0.2564
19350TIP3    H179541   4.369   6.790  15.242 -0.4851  0.6340 -1.1913
19350TIP3    H279542   4.244   6.766  15.160 -1.5016 -1.0846  0.7428
19351TIP3   OH279543   6.060   3.627  13.804 -0.2831  0.2911  0.2389
19351TIP3    H179544   6.064   3.681  13.883  0.6089  0.3866  0.1316
19351TIP3    H279545   6.035   3.688  13.734  1.7352  0.8092 -0.0796
19352TIP3   OH279546   1.066   3.091   4.348  0.2136 -0.0076  0.3529
19352TIP3    H179547   0.994   3.154   4.356 -0.5445 -0.3879 -2.2502
19352TIP3    H279548   1.141   3.145   4.323  0.1047  0.0966  0.2436
19353TIP3   OH279549   6.234   0.601  14.880  0.2138 -0.3503  0.1149
19353TIP3    H179550   6.230   0.684  14.832  1.9649  0.0132  0.5260
19353TIP3    H279551   6.142   0.575  14.889 -0.2437 -0.2278 -2.9771
19354TIP3   OH279552   4.359   2.652  11.351  0.1277  0.0182  0.2589
19354TIP3    H179553   4.378   2.648  11.445  1.7783  0.1762 -0.0484
19354TIP3    H279554   4.338   2.561  11.327 -0.7496  0.0481  0.8377
19355TIP3   OH279555   0.718   0.035   1.541 -0.0518 -0.2673 -0.0538
19355TIP3    H179556   0.724  -0.032   1.472  1.8424 -0.8668  0.6227
19355TIP3    H279557   0.723  -0.014   1.623  2.3952  0.6958  0.4617
19356TIP3   OH279558   5.863   2.843  11.586  0.3655  0.5408  0.3017
19356TIP3    H179559   5.811   2.923  11.594 -0.4256  0.2877 -1.7874
19356TIP3    H279560   5.799   2.773  11.581  0.9299  0.0934 -1.0106
19357TIP3   OH279561   3.510   5.650   2.756  0.1499  0.6406  0.2230
19357TIP3    H179562   3.562   5.574   2.732  0.0305  0.5094  0.3766
19357TIP3    H279563   3.421   5.628   2.728 -0.1766  0.0819  1.6404
19358TIP3   OH279564   6.379   3.058   5.317  0.0534 -0.2337 -0.0757
19358TIP3    H179565   6.368   3.074   5.411  2.2936  0.2114  0.1609
19358TIP3    H279566   6.308   3.108   5.276  0.4750  1.5760  1.2694
19359TIP3   OH279567   5.417   0.078  14.042 -0.0580  0.1968 -0.2179
19359TIP3    H179568   5.441  -0.015  14.039 -1.1713 -0.0971 -0.3550
19359TIP3    H279569   5.413   0.099  14.135  0.2863  0.1346 -0.1880
19360TIP3   OH279570   1.656   6.815   4.925 -0.4270  0.0793 -0.1146
19360TIP3    H179571   1.644   6.773   5.010 -0.3333  0.6623  0.1947
19360TIP3    H279572   1.745   6.849   4.928 -0.7825  1.0581 -0.0023
19361TIP3   OH279573   0.473   0.797   1.943  0.2767 -0.0545 -0.0512
19361TIP3    H179574   0.454   0.710   1.909  2.3060 -0.7783  0.5335
19361TIP3    H279575   0.389   0.830   1.973 -0.5024 -1.8747 -0.1257
19362TIP3   OH279576   2.860   2.769  16.260 -0.4905  0.1722 -0.3971
19362TIP3    H179577   2.871   2.711  16.335  0.5481 -0.3075 -0.9000
19362TIP3    H279578   2.945   2.813  16.252 -0.7843  0.6523 -0.9409
19363TIP3   OH279579   6.491   4.906   1.846 -0.3170  0.2604  0.2493
19363TIP3    H179580   6.400   4.934   1.861 -0.1083  0.9040  0.3426
19363TIP3    H279581   6.535   4.984   1.812  0.4187  0.1960  1.0343
19364TIP3   OH279582   1.470   5.118   3.219  0.5060 -0.0057  0.1026
19364TIP3    H179583   1.404   5.187   3.219 -2.9161 -2.9873  1.0353
19364TIP3    H279584   1.539   5.151   3.161 -2.6325  2.6358 -2.5313
19365TIP3   OH279585   2.326   2.879  14.570  0.1827  0.3344 -0.0443
19365TIP3    H179586   2.339   2.973  14.579 -1.0863  0.6621 -1.3020
19365TIP3    H279587   2.231   2.868  14.572  0.3456 -1.1941  2.3641
19366TIP3   OH279588   2.032   4.587   2.240  0.4872 -0.5101  0.3552
19366TIP3    H179589   2.006   4.678   2.231  0.6518 -0.4732  0.2390
19366TIP3    H279590   1.950   4.540   2.258  0.4022 -0.3409  0.4099
19367TIP3   OH279591   6.428   2.046   2.636 -1.3074 -0.4356  0.5445
19367TIP3    H179592   6.483   1.985   2.685 -0.1430  1.2955  1.5015
19367TIP3    H279593   6.459   2.040   2.546 -1.1376 -1.1609  0.6465
19368TIP3   OH279594   3.558   5.018   1.595 -0.1942  0.6009  0.4199
19368TIP3    H179595   3.562   4.992   1.503  0.5624  0.4411  0.4874
19368TIP3    H279596   3.482   4.971   1.630 -0.2824  0.3897 -0.0429
19369TIP3   OH279597   3.377   5.495   2.305 -0.4266  0.0936  0.1788
19369TIP3    H179598   3.371   5.560   2.235 -0.3159 -3.4195 -3.4577
19369TIP3    H279599   3.469   5.470   2.307 -0.6375 -0.6837  0.7672
19370TIP3   OH279600   6.700   4.364   3.045 -0.0257  0.0086  0.1890
19370TIP3    H179601   6.755   4.401   2.976 -0.1297  0.8771  0.5627
19370TIP3    H279602   6.736   4.400   3.126  0.9142 -1.9834  0.7346
19371TIP3   OH279603   6.473   1.903  14.330 -0.3717  0.2546  0.7040
19371TIP3    H179604   6.567   1.916  14.322 -0.2184  0.5838  2.6878
19371TIP3    H279605   6.435   1.966  14.269  0.6626  0.8135  0.6084
19372TIP3   OH279606   6.795   2.886  16.192 -0.7022 -0.1776 -0.7571
19372TIP3    H179607   6.780   2.938  16.113  0.6695  2.7846  0.7529
19372TIP3    H279608   6.890   2.870  16.192 -0.9220 -1.6152 -0.5119
19373TIP3   OH279609   3.695   0.253  12.102 -0.0994  0.2829 -0.4887
19373TIP3    H179610   3.657   0.186  12.046 -0.0414 -0.2347  0.0736
19373TIP3    H279611   3.770   0.209  12.144 -1.6993 -0.2396  2.0549
19374TIP3   OH279612   0.312   1.349   4.920  0.2740 -0.3917 -0.6911
19374TIP3    H179613   0.349   1.386   4.840 -0.0052  3.6086  0.7968
19374TIP3    H279614   0.217   1.355   4.908  0.2277  1.0383  0.1999
19375TIP3   OH279615   5.254   4.048   4.081  0.0413 -0.3566  0.4312
19375TIP3    H179616   5.248   4.049   3.986 -1.3996 -0.3522  0.5030
19375TIP3    H279617   5.316   4.119   4.101 -0.9308  0.7951 -0.4458
19376TIP3   OH279618   2.099   5.295   2.898  0.5124 -0.2086  0.1476
19376TIP3    H179619   2.068   5.381   2.867  0.0703 -0.5513 -0.3728
19376TIP3    H279620   2.043   5.275   2.973  1.2645  0.3972  0.9054
19377TIP3   OH279621   2.968   4.441   3.299 -0.2930  0.6728 -0.9135
19377TIP3    H179622   2.925   4.498   3.236 -0.6233 -1.1682 -2.4318
19377TIP3    H279623   3.047   4.489   3.324 -0.4913  1.7431 -2.2212
19378TIP3   OH279624   5.458   5.997  13.461 -0.5893 -0.1733 -0.2630
19378TIP3    H179625   5.500   6.024  13.542 -0.0410  1.1487 -0.9671
19378TIP3    H279626   5.506   5.919  13.434  0.5315  0.5296 -0.3425
19379TIP3   OH279627   0.182   6.189  15.626  0.3685 -0.1257 -0.0954
19379TIP3    H179628   0.093   6.179  15.660  0.9931 -0.7735  1.4443
19379TIP3    H279629   0.238   6.181  15.703  1.7223  1.2469 -0.8828
19380TIP3   OH279630   4.518   5.248   5.942 -0.1364 -0.4014 -0.5183
19380TIP3    H179631   4.484   5.303   5.872 -1.2846 -1.6419 -0.9839
19380TIP3    H279632   4.463   5.268   6.018  0.0281 -0.2565 -0.4372
19381TIP3   OH279633   3.546   5.710  11.176 -0.4055  0.4505 -0.0181
19381TIP3    H179634   3.618   5.757  11.133 -1.3490  1.3719 -0.6134
19381TIP3    H279635   3.585   5.675  11.257  0.2702  2.4523  0.5699
19382TIP3   OH279636   5.781   0.319   3.348  0.3361  0.6472  0.5706
19382TIP3    H179637   5.788   0.237   3.299  0.0719 -0.4780  2.3412
19382TIP3    H279638   5.870   0.339   3.375  0.1209 -0.3327  2.0947
19383TIP3   OH279639   4.215   1.164  12.672 -0.4037  0.6364  0.1251
19383TIP3    H179640   4.145   1.229  12.661 -3.0361 -2.1691 -1.4264
19383TIP3    H279641   4.231   1.132  12.583  1.1086 -0.5518  0.7901
19384TIP3   OH279642   1.812   3.397   4.702 -0.0515  0.5264  0.1554
19384TIP3    H179643   1.903   3.419   4.723  0.4986 -1.0808 -0.3797
19384TIP3    H279644   1.781   3.350   4.780 -0.8035  2.0022  0.7808
19385TIP3   OH279645   1.791   6.489   0.435 -0.6253 -0.0840  0.6441
19385TIP3    H179646   1.715   6.431   0.442 -0.3151 -0.4510  1.0433
19385TIP3    H279647   1.866   6.432   0.454 -0.3593  0.5509  1.5693
19386TIP3   OH279648   0.015   1.335  16.699  0.2295 -0.2316  0.1730
19386TIP3    H179649   0.059   1.307  16.779  1.1551  1.6076  0.3614
19386TIP3    H279650   0.075   1.311  16.629  2.4243  3.5046  0.5158
19387TIP3   OH279651   4.606   3.188   5.129 -0.2645 -0.4076 -0.4856
19387TIP3    H179652   4.639   3.102   5.104 -0.1022 -0.8600  1.1538
19387TIP3    H279653   4.556   3.218   5.053 -0.8312 -2.2103 -0.8728
19388TIP3   OH279654   4.142   4.036  11.609 -0.1161  0.0308 -0.1852
19388TIP3    H179655   4.119   4.106  11.670 -1.1977  0.5356 -1.1203
19388TIP3    H279656   4.116   3.955  11.653  0.4076  0.2744  0.5833
19389TIP3   OH279657   2.683   1.899  13.505 -0.0134  0.4617  0.2851
19389TIP3    H179658   2.720   1.986  13.491  3.5716 -0.6975  1.4009
19389TIP3    H279659   2.732   1.842  13.446 -0.7183 -1.1232  1.1615
19390TIP3   OH279660   4.395   5.549  13.141 -0.0287  0.7756  0.1361
19390TIP3    H179661   4.337   5.486  13.098 -0.8271  1.4386  0.2263
19390TIP3    H279662   4.344   5.582  13.215  0.2098  1.8375 -0.1549
19391TIP3   OH279663   2.276   6.355  13.788 -0.1682 -0.2352  0.4031
19391TIP3    H179664   2.212   6.286  13.804  0.4649 -0.8068  0.5438
19391TIP3    H279665   2.337   6.350  13.861 -0.0198  0.3701  0.3303
19392TIP3   OH279666   5.936   6.628   4.135 -0.3719  0.0829 -0.4831
19392TIP3    H179667   5.922   6.568   4.062  0.8620  0.6554 -1.2422
19392TIP3    H279668   5.985   6.701   4.096  0.6833  0.2069  0.9954
19393TIP3   OH279669   1.139   1.534  11.688 -0.6434 -0.3528 -0.2426
19393TIP3    H179670   1.176   1.619  11.663  0.3344 -0.0935  1.8638
19393TIP3    H279671   1.045   1.549  11.694 -0.4895  0.5497  0.0034
19394TIP3   OH279672   2.585   2.644   1.685 -0.4507 -0.3209  0.6692
19394TIP3    H179673   2.597   2.608   1.773  1.1202  1.5594  1.2965
19394TIP3    H279674   2.667   2.626   1.640 -0.4056  0.6310  0.3372
19395TIP3   OH279675   3.816   4.788   0.811 -0.5091 -0.2387 -0.0318
19395TIP3    H179676   3.757   4.759   0.881 -0.8698 -1.0959 -0.6760
19395TIP3    H279677   3.899   4.804   0.856 -0.5387 -1.4258  0.5128
19396TIP3   OH279678   4.165   1.874   4.437 -0.1886 -0.4857 -0.6955
19396TIP3    H179679   4.100   1.808   4.460 -0.1659  0.0939  1.1892
19396TIP3    H279680   4.239   1.824   4.401 -0.4482 -1.4189  0.0483
19397TIP3   OH279681   0.098   4.761   2.266  0.1209  0.5344 -0.0783
19397TIP3    H179682   0.094   4.666   2.277 -1.8135  0.6149  0.3725
19397TIP3    H279683   0.035   4.780   2.196  0.1463  1.5130  0.1501
19398TIP3   OH279684   5.897   3.323  16.923 -0.0427 -0.1354  0.2966
19398TIP3    H179685   5.943   3.300  16.843 -0.5236  1.4555 -0.4870
19398TIP3    H279686   5.966   3.345  16.986  0.3691 -2.2939  0.6555
19399TIP3   OH279687   1.346   4.688   4.966 -0.1991  0.8368  0.2296
19399TIP3    H179688   1.330   4.605   4.921 -1.1103 -0.5706  2.9407
19399TIP3    H279689   1.421   4.670   5.022  1.1681  2.6696 -0.8833
19400TIP3   OH279690   4.881   6.310   4.669 -0.2472 -0.2650  0.1169
19400TIP3    H179691   4.819   6.356   4.613 -0.5671 -0.4463  0.3166
19400TIP3    H279692   4.877   6.358   4.752 -0.9201 -0.9122  0.4733
19401TIP3   OH279693   0.387   0.771   3.662 -0.8062 -0.1948  0.0445
19401TIP3    H179694   0.339   0.803   3.585 -4.0271 -1.0998  1.5218
19401TIP3    H279695   0.415   0.683   3.638 -1.6832 -0.4255 -0.1643
19402TIP3   OH279696   5.150   6.276   1.797 -0.4871  0.2993  0.3311
19402TIP3    H179697   5.202   6.210   1.842 -1.7756 -0.1834  1.1687
19402TIP3    H279698   5.108   6.228   1.725  0.9261  0.8928 -0.9483
19403TIP3   OH279699   5.674   5.331   5.970  0.7955 -0.0085 -0.0054
19403TIP3    H179700   5.750   5.390   5.976  0.1584  0.7078  1.8122
19403TIP3    H279701   5.651   5.313   6.061 -2.4238  1.4181 -0.4191
19404TIP3   OH279702   2.693   5.730   2.870  0.7068  0.0290  0.0708
19404TIP3    H179703   2.685   5.726   2.965 -1.8678 -0.6439 -0.0757
19404TIP3    H279704   2.644   5.808   2.845 -0.0129 -0.6629 -0.7611
19405TIP3   OH279705   6.718   4.512   0.278 -1.1552 -0.5559  0.3611
19405TIP3    H179706   6.750   4.465   0.355  1.0177  0.7808  0.3496
19405TIP3    H279707   6.695   4.599   0.310  0.2187  0.1679 -0.5310
19406TIP3   OH279708   2.931   1.366   2.906 -0.0629  0.3980 -0.6033
19406TIP3    H179709   2.857   1.392   2.960  1.1653 -0.4912  1.6328
19406TIP3    H279710   2.942   1.438   2.844 -1.0918  1.8457  0.8171
19407TIP3   OH279711   0.017   5.283  12.300 -0.4367 -0.0457  0.6962
19407TIP3    H179712   0.103   5.243  12.315 -0.6883 -0.1994  1.8680
19407TIP3    H279713   0.004   5.339  12.377 -0.8762  0.9013 -0.0492
19408TIP3   OH279714   4.902   0.993  12.888  0.1125  0.2717 -0.3738
19408TIP3    H179715   4.962   0.955  12.951  0.5406  3.1330  1.1001
19408TIP3    H279716   4.854   1.060  12.937 -2.0291  0.2667 -2.2806
19409TIP3   OH279717   1.823   0.259  15.021  0.0337  0.8163 -0.3480
19409TIP3    H179718   1.766   0.254  14.945  0.4427  0.2474 -0.6301
19409TIP3    H279719   1.764   0.266  15.096 -0.4146  0.1706 -0.6318
19410TIP3   OH279720   3.920   3.965   0.388  0.3716  0.1807  0.4758
19410TIP3    H179721   3.858   3.945   0.458 -0.9136 -0.2025 -0.7307
19410TIP3    H279722   3.937   4.059   0.396  0.1769  0.1553  1.2329
19411TIP3   OH279723   1.442   5.907  12.262 -0.3501 -0.0621  0.1879
19411TIP3    H179724   1.398   5.844  12.205  0.2501 -0.2464 -0.0750
19411TIP3    H279725   1.453   5.861  12.345 -1.0283  0.1310  0.3891
19412TIP3   OH279726   3.312   2.724  15.947  0.3485  0.7526 -0.4112
19412TIP3    H179727   3.385   2.674  15.983 -0.0170 -1.1753 -2.1533
19412TIP3    H279728   3.352   2.787  15.888  0.7215  1.4959  0.6101
19413TIP3   OH279729   4.897   0.233  13.199  0.6859 -0.2253 -0.0582
19413TIP3    H179730   4.966   0.183  13.242  1.6149  2.3735  1.7232
19413TIP3    H279731   4.906   0.211  13.106  1.3703 -2.8308  0.5507
19414TIP3   OH279732   4.005   3.349   1.286 -0.1615  0.2576  0.1964
19414TIP3    H179733   4.063   3.297   1.229 -0.3460  0.0507  0.1943
19414TIP3    H279734   4.058   3.365   1.364 -0.1254  0.0044  0.2263
19415TIP3   OH279735   0.945   4.316   5.376 -0.0082  0.2570  0.3474
19415TIP3    H179736   0.947   4.246   5.310 -2.1528  0.5461 -0.1065
19415TIP3    H279737   0.939   4.270   5.459 -2.1209 -0.1667  0.0138
19416TIP3   OH279738   1.471   0.947   4.026  0.5219  0.2891 -0.2446
19416TIP3    H179739   1.459   1.030   3.980  1.3998 -0.1857 -1.4010
19416TIP3    H279740   1.407   0.948   4.096 -1.0921  0.9204 -1.6742
19417TIP3   OH279741   5.578   6.814   3.574  0.1422 -0.2509  0.3217
19417TIP3    H179742   5.583   6.751   3.502  0.7501 -0.2351  0.3434
19417TIP3    H279743   5.511   6.778   3.633  1.3983 -1.5765  0.9948
19418TIP3   OH279744   3.497   6.733   1.146  0.2608 -0.0795 -0.0983
19418TIP3    H179745   3.565   6.700   1.088  1.2098 -0.5446  1.2151
19418TIP3    H279746   3.545   6.773   1.219 -0.8798  1.1592  0.0093
19419TIP3   OH279747   1.148   6.815   5.126 -0.5528 -0.1858  0.0315
19419TIP3    H179748   1.207   6.761   5.074  1.4638  0.4637  1.5110
19419TIP3    H279749   1.157   6.903   5.090  0.8970  0.2783  1.4233
19420TIP3   OH279750   2.192   0.444   4.480  0.2145 -0.3572 -0.1102
19420TIP3    H179751   2.136   0.385   4.429 -1.0698  1.1524 -0.5412
19420TIP3    H279752   2.156   0.441   4.568 -1.1822  1.2329 -0.5572
19421TIP3   OH279753   2.614   6.633   2.269 -0.2128  0.2939 -0.4581
19421TIP3    H179754   2.602   6.579   2.347 -2.0090 -0.3975 -1.1428
19421TIP3    H279755   2.709   6.642   2.260  0.1449 -2.0979  0.1487
19422TIP3   OH279756   1.054   2.150   3.862  0.3186 -0.3660  0.0031
19422TIP3    H179757   1.012   2.150   3.948  1.2716 -0.1277  0.4818
19422TIP3    H279758   1.001   2.090   3.810  0.3163 -1.3219  1.0564
19423TIP3   OH279759   3.325   0.751  17.080 -0.0729  0.0535  0.0260
19423TIP3    H179760   3.379   0.772  17.156 -0.2725  0.5152  0.0443
19423TIP3    H279761   3.339   0.824  17.020 -0.1840 -0.1397 -0.2341
19424TIP3   OH279762   3.547   2.128  14.185  0.0746 -0.1696 -0.1347
19424TIP3    H179763   3.565   2.104  14.094  0.2230 -0.2894 -0.0754
19424TIP3    H279764   3.513   2.048  14.224 -1.4209  0.2783 -0.4592
19425TIP3   OH279765   4.989   2.775  14.789 -0.4898  0.2332  0.3162
19425TIP3    H179766   5.008   2.829  14.712  0.2896 -0.3840  0.0620
19425TIP3    H279767   5.048   2.701  14.782  0.8703  1.0083  2.4131
19426TIP3   OH279768   6.329   4.897   6.434  0.2993 -0.3072 -0.2028
19426TIP3    H179769   6.362   4.985   6.448  1.1510 -0.8973  1.9020
19426TIP3    H279770   6.234   4.905   6.441  0.4006  0.3542  0.4762
19427TIP3   OH279771   6.769   5.716   2.262 -0.5772  0.2393  0.8103
19427TIP3    H179772   6.729   5.644   2.214 -1.2689  1.6790 -0.9126
19427TIP3    H279773   6.703   5.742   2.327 -1.5040  1.0103 -0.3798
19428TIP3   OH279774   4.298   0.257   3.804 -0.2280 -0.6131  0.3315
19428TIP3    H179775   4.227   0.285   3.746 -0.9183 -1.3083  0.8270
19428TIP3    H279776   4.339   0.184   3.759 -0.3779 -0.7661  0.4440
19429TIP3   OH279777   5.388   1.532   2.121 -0.1435  0.1661  0.3049
19429TIP3    H179778   5.441   1.503   2.196  0.4726 -0.0177 -0.1953
19429TIP3    H279779   5.333   1.601   2.157  1.0171  0.9435  0.6605
19430TIP3   OH279780   6.343   1.770   0.102 -0.2210  0.1785  0.2324
19430TIP3    H179781   6.281   1.701   0.124 -1.0848  0.7465 -0.3690
19430TIP3    H279782   6.381   1.741   0.018 -0.7467  0.5404 -0.1313
19431TIP3   OH279783   1.752   0.858  15.510  0.0104  0.1594 -0.5346
19431TIP3    H179784   1.791   0.915  15.576  0.2057  0.4764 -0.9197
19431TIP3    H279785   1.778   0.770  15.537  0.3966  0.3143 -0.3887
19432TIP3   OH279786   2.402   4.981   6.498  0.7026 -0.5774  0.0382
19432TIP3    H179787   2.493   4.984   6.468  0.6604 -0.5879 -0.0915
19432TIP3    H279788   2.406   4.936   6.582  0.5840 -2.3441 -0.8501
19433TIP3   OH279789   1.987   0.857  14.429  0.4401  0.1216 -0.2782
19433TIP3    H179790   1.975   0.863  14.524 -0.0126  0.9831 -0.3777
19433TIP3    H279791   1.994   0.948  14.400  0.2554 -0.1216 -1.1096
19434TIP3   OH279792   4.332   4.213  11.882 -0.5120  0.4214 -0.5270
19434TIP3    H179793   4.307   4.121  11.886 -3.5357  1.1502  0.4173
19434TIP3    H279794   4.302   4.242  11.796  1.4642  0.3347 -1.2897
19435TIP3   OH279795   0.563   0.128  16.288 -0.3159  0.1441 -0.0523
19435TIP3    H179796   0.536   0.105  16.200  0.8419 -0.6049 -0.2296
19435TIP3    H279797   0.627   0.198  16.276 -0.2734  0.1508  0.2000
19436TIP3   OH279798   3.927   4.307   1.520 -0.2981  0.2567  0.5182
19436TIP3    H179799   3.937   4.228   1.573  2.0021  0.1876  0.0956
19436TIP3    H279800   3.973   4.287   1.438 -1.7099  1.2101 -0.5525
19437TIP3   OH279801   2.558   3.527  13.628  0.3379 -0.3514 -0.1999
19437TIP3    H179802   2.468   3.545  13.657  0.6180 -0.4948  0.8124
19437TIP3    H279803   2.561   3.432  13.619 -0.0092 -0.2459 -1.6542
19438TIP3   OH279804   1.453   1.035   4.590  0.0337 -0.4283 -0.4117
19438TIP3    H179805   1.426   0.990   4.670  1.2234 -1.9336 -0.8143
19438TIP3    H279806   1.506   0.971   4.543  0.6071  0.9375 -1.7017
19439TIP3   OH279807   6.062   3.243  13.675 -0.4879 -0.0418 -0.1369
19439TIP3    H179808   6.129   3.310  13.659 -0.6178 -0.0657 -0.8243
19439TIP3    H279809   6.112   3.161  13.681 -0.4234 -0.0243 -0.3929
19440TIP3   OH279810   4.081   6.001   4.116 -0.0944 -0.0910 -0.2643
19440TIP3    H179811   4.050   5.954   4.193 -0.9159 -1.8304 -1.5942
19440TIP3    H279812   4.156   6.051   4.147  1.2050 -2.7064  1.1575
19441TIP3   OH279813   3.821   3.432   6.128  0.2142  0.0494 -0.3106
19441TIP3    H179814   3.791   3.523   6.129 -1.4330 -0.4652  0.6234
19441TIP3    H279815   3.881   3.425   6.202  0.9723  0.5556 -0.8669
19442TIP3   OH279816   0.132   2.615  15.263  0.3574 -0.3486  0.4939
19442TIP3    H179817   0.187   2.693  15.277  1.3423 -1.3675  2.6902
19442TIP3    H279818   0.042   2.647  15.275  0.7845  0.3416  2.1016
19443TIP3   OH279819   2.126   0.215  13.976  0.0074 -0.0037  0.2129
19443TIP3    H179820   2.145   0.257  14.059 -2.2880 -0.8519  1.2587
19443TIP3    H279821   2.044   0.256  13.947 -0.2677 -1.1020 -0.6205
19444TIP3   OH279822   4.253   1.661   1.629 -0.1345 -0.5727  0.1567
19444TIP3    H179823   4.335   1.698   1.660 -0.4132 -0.7342  1.1013
19444TIP3    H279824   4.219   1.610   1.703 -1.5045  0.1814  0.0883
19445TIP3   OH279825   3.302   2.700  14.423  0.5577 -0.1764 -0.3364
19445TIP3    H179826   3.247   2.758  14.476  1.5150 -1.1082  1.8029
19445TIP3    H279827   3.317   2.624  14.479  1.9082 -1.0855 -1.8549
19446TIP3   OH279828   0.234   1.298  16.555  0.1953 -0.0670 -0.5149
19446TIP3    H179829   0.325   1.285  16.582 -0.5462 -1.3943  1.6225
19446TIP3    H279830   0.226   1.253  16.471  1.6550  0.7063 -1.0972
19447TIP3   OH279831   1.794   2.791  17.173  0.7356 -0.5851  0.2458
19447TIP3    H179832   1.827   2.729  17.238 -0.4829 -0.1798  1.2866
19447TIP3    H279833   1.784   2.738  17.093 -1.2745 -2.0615  1.3652
19448TIP3   OH279834   2.554   3.461   4.639  0.5430 -0.8572  0.3023
19448TIP3    H179835   2.630   3.518   4.635  0.6212 -0.9901 -0.2569
19448TIP3    H279836   2.479   3.518   4.621  0.5782 -0.8477  0.1857
19449TIP3   OH279837   1.162   0.186  12.294  0.2234 -0.5562 -0.1064
19449TIP3    H179838   1.170   0.194  12.199  2.6693 -2.3950 -0.1664
19449TIP3    H279839   1.220   0.254  12.329  2.6567 -2.4580 -0.1331
19450TIP3   OH279840   0.375   0.888   5.711 -0.2478  0.3171  0.3848
19450TIP3    H179841   0.328   0.869   5.630 -0.7273  1.1635  0.4505
19450TIP3    H279842   0.394   0.803   5.749 -0.0971 -0.0864 -0.5706
19451TIP3   OH279843   4.837   3.740   2.325  0.5360  0.4219  0.1702
19451TIP3    H179844   4.882   3.721   2.243 -0.0822  0.5567 -0.2120
19451TIP3    H279845   4.822   3.653   2.364  1.1719  0.3803  0.3368
19452TIP3   OH279846   2.715   4.440  12.561 -0.2718  0.3859 -0.5498
19452TIP3    H179847   2.781   4.503  12.534  0.5062  0.6006  1.6754
19452TIP3    H279848   2.635   4.469  12.517  0.1133  2.8175  0.1840
19453TIP3   OH279849   3.364   2.310  16.785 -0.0090  0.3847 -0.3450
19453TIP3    H179850   3.357   2.335  16.877  0.4718 -0.3490 -0.0959
19453TIP3    H279851   3.440   2.252  16.783 -1.5463 -1.7180 -0.7455
19454TIP3   OH279852   3.164   3.354   5.786  0.3033 -0.0069 -0.2956
19454TIP3    H179853   3.195   3.304   5.710  0.1887 -0.3713 -0.0995
19454TIP3    H279854   3.215   3.321   5.859 -0.1232 -0.1841 -0.0771
19455TIP3   OH279855   2.717   2.655  10.467  0.2734  0.3880 -0.5018
19455TIP3    H179856   2.810   2.671  10.455  0.2109  3.0249  1.6000
19455TIP3    H279857   2.712   2.594  10.540  0.3001 -0.9679 -1.5781
19456TIP3   OH279858   2.339   6.058  11.185 -0.0148 -0.9689 -0.2741
19456TIP3    H179859   2.301   5.971  11.193  0.3103 -1.1827 -0.9524
19456TIP3    H279860   2.361   6.066  11.092 -0.0960 -0.1422 -0.2303
19457TIP3   OH279861   0.685   6.211   6.686 -0.3338 -0.3511  0.6570
19457TIP3    H179862   0.640   6.211   6.602  0.1654  0.1822  0.3807
19457TIP3    H279863   0.615   6.219   6.751 -0.6095  1.5621  0.2021
19458TIP3   OH279864   3.126   2.264  11.630  0.3509 -0.6376  0.0693
19458TIP3    H179865   3.057   2.283  11.693  1.0549  0.1537  0.6226
19458TIP3    H279866   3.183   2.341  11.631  1.3934 -1.3712 -0.1646
19459TIP3   OH279867   4.485   6.467  15.501  0.3841  0.1806 -0.0577
19459TIP3    H179868   4.537   6.539  15.536  1.2282 -0.4343 -0.0170
19459TIP3    H279869   4.493   6.398  15.567 -0.3838  0.0335 -0.1151
19460TIP3   OH279870   2.511   5.054   3.682  0.4072  0.3008  0.4928
19460TIP3    H179871   2.530   5.021   3.769  0.6595 -1.4733 -0.1941
19460TIP3    H279872   2.597   5.076   3.646  0.4486 -0.3646  0.1738
19461TIP3   OH279873   0.419   3.221  14.155  0.8518 -0.0889 -0.6586
19461TIP3    H179874   0.376   3.263  14.230  0.1465 -0.3227 -0.9283
19461TIP3    H279875   0.378   3.135  14.148 -0.2439  0.5242 -2.2819
19462TIP3   OH279876   3.898   0.983   4.955  0.8617  0.5708 -0.3086
19462TIP3    H179877   3.963   0.913   4.960  0.2818 -0.0473 -1.1931
19462TIP3    H279878   3.917   1.039   5.031  0.7442 -1.0643  1.0012
19463TIP3   OH279879   5.156   4.546   0.861  0.5750 -0.0231  0.0011
19463TIP3    H179880   5.183   4.506   0.944 -0.4168 -0.9783 -0.1031
19463TIP3    H279881   5.079   4.599   0.884  0.7230  0.2756 -0.1883
19464TIP3   OH279882   0.524   4.163  12.497  0.1265 -0.0717  0.2670
19464TIP3    H179883   0.592   4.219  12.460 -0.9158  1.5170  0.6799
19464TIP3    H279884   0.557   4.074  12.484  1.5070  0.5870 -1.0449
19465TIP3   OH279885   6.047   4.708   3.441 -0.5088  0.4007  0.4361
19465TIP3    H179886   6.081   4.620   3.427  1.6511  0.6373  3.1389
19465TIP3    H279887   5.985   4.722   3.370 -2.9597 -4.2206  1.2242
19466TIP3   OH279888   3.903   3.089   4.614 -0.5421 -0.0866 -0.2019
19466TIP3    H179889   3.920   3.022   4.680 -0.1121  0.8031  0.6120
19466TIP3    H279890   3.868   3.041   4.539 -0.4431 -1.1874  0.4444
19467TIP3   OH279891   0.256   6.070   1.444  0.4024  0.3175  0.5160
19467TIP3    H179892   0.275   6.142   1.503 -1.9959 -0.4390  2.3736
19467TIP3    H279893   0.275   5.991   1.494  0.5272 -0.3576 -0.5567
19468TIP3   OH279894   2.109   5.583  11.244  0.7146  0.2656  0.0884
19468TIP3    H179895   2.126   5.527  11.167  0.1188  1.1642 -0.7234
19468TIP3    H279896   2.060   5.657  11.208  0.9155  0.9735  1.2637
19469TIP3   OH279897   2.719   0.314  13.243  0.6575 -0.0371 -0.4364
19469TIP3    H179898   2.737   0.397  13.286 -0.8056 -0.3775  0.9266
19469TIP3    H279899   2.709   0.336  13.150  2.2256  0.9712 -0.3951
19470TIP3   OH279900   3.275   2.896  10.494  0.1919 -0.0822 -0.1726
19470TIP3    H179901   3.284   2.833  10.422  0.0841  0.7442 -0.9195
19470TIP3    H279902   3.202   2.952  10.469 -0.1889 -0.1043  0.8377
19471TIP3   OH279903   5.544   2.951  11.611 -0.5015  0.0413 -0.2114
19471TIP3    H179904   5.590   3.028  11.646 -1.8424  0.5357  0.5198
19471TIP3    H279905   5.483   2.987  11.546  0.0568 -0.6006 -1.1148
19472TIP3   OH279906   6.673   0.729  11.366 -0.3186  0.0398  0.3209
19472TIP3    H179907   6.645   0.664  11.301 -2.1389  0.5062  0.5917
19472TIP3    H279908   6.661   0.813  11.323  1.1699  0.2725  0.3013
19473TIP3   OH279909   2.796   6.511   2.058 -0.1418 -1.1332  0.1139
19473TIP3    H179910   2.808   6.472   2.144 -0.4920 -1.4558  0.0188
19473TIP3    H279911   2.701   6.505   2.041  0.0960 -2.4011 -0.9082
19474TIP3   OH279912   1.476   1.901  11.127 -0.4210  0.1242 -0.2415
19474TIP3    H179913   1.504   1.907  11.036 -1.0384 -1.5510 -0.5742
19474TIP3    H279914   1.492   1.988  11.163 -0.2780  0.8479 -1.9769
19475TIP3   OH279915   2.165   2.616  12.951 -0.7489  0.5877  0.5771
19475TIP3    H179916   2.260   2.622  12.944 -0.6378 -1.9220 -3.2209
19475TIP3    H279917   2.133   2.693  12.903 -0.5713  0.5203  0.3454
19476TIP3   OH279918   2.038   4.084  15.060  0.5149 -0.1789  0.0956
19476TIP3    H179919   2.055   4.134  15.139 -0.5814 -0.9781  0.8631
19476TIP3    H279920   1.995   4.004  15.090  0.6956 -0.8177 -1.2437
19477TIP3   OH279921   5.847   5.323  12.387  0.0234  0.8516 -0.2162
19477TIP3    H179922   5.880   5.408  12.360  0.1172  1.1220  0.7178
19477TIP3    H279923   5.773   5.343  12.445 -0.4700  0.2797 -0.6292
19478TIP3   OH279924   4.170   2.355   4.584  0.1719 -0.1327  0.3286
19478TIP3    H179925   4.237   2.310   4.532 -1.3728  0.8197 -2.7310
19478TIP3    H279926   4.215   2.430   4.622  1.2107 -0.4325 -0.2621
19479TIP3   OH279927   2.771   4.827  14.428 -0.4803  0.1107  0.4192
19479TIP3    H179928   2.816   4.748  14.397 -3.0346 -1.4955  0.4984
19479TIP3    H279929   2.840   4.878  14.471  1.2632 -2.1455  0.5221
19480TIP3   OH279930   5.783   1.622   6.051 -0.0722 -0.3063 -0.8396
19480TIP3    H179931   5.810   1.709   6.082  0.0202 -0.9721  1.1125
19480TIP3    H279932   5.701   1.606   6.097  0.2821 -1.5372 -0.6063
19481TIP3   OH279933   2.850   6.165   2.641  0.2071  0.2727 -0.4512
19481TIP3    H179934   2.919   6.195   2.581  0.2255  1.1359 -0.0120
19481TIP3    H279935   2.824   6.244   2.689 -1.4095  0.0633 -0.9242
19482TIP3   OH279936   1.191   2.306  11.729 -0.0209 -0.6211  0.0890
19482TIP3    H179937   1.275   2.289  11.686 -0.4619 -1.8610 -0.3413
19482TIP3    H279938   1.214   2.330  11.819  0.8609  0.9144 -0.5180
19483TIP3   OH279939   5.906   4.488   1.840 -0.1761 -0.4859 -0.2137
19483TIP3    H179940   5.970   4.508   1.909 -0.1294 -1.7831  0.1522
19483TIP3    H279941   5.956   4.497   1.759  0.1083 -0.1543 -0.0052
19484TIP3   OH279942   2.604   3.626  15.018 -0.4290  0.2495  0.1614
19484TIP3    H179943   2.566   3.539  15.033  0.4743 -0.0318  0.8762
19484TIP3    H279944   2.555   3.661  14.943 -0.0493 -1.3186 -0.8527
19485TIP3   OH279945   3.758   1.647  14.749  0.1123 -0.3769 -0.1271
19485TIP3    H179946   3.700   1.719  14.775 -1.0612 -1.6027  0.7921
19485TIP3    H279947   3.708   1.600  14.682 -1.0296 -2.7347  2.1991
19486TIP3   OH279948   5.338   3.035   2.689  0.0575 -0.7065  0.1448
19486TIP3    H179949   5.271   2.967   2.700 -0.2956 -0.6012 -1.2363
19486TIP3    H279950   5.296   3.101   2.635  1.6885 -1.2538 -1.9084
19487TIP3   OH279951   5.299   4.915   0.414  0.2957 -0.6448  0.1406
19487TIP3    H179952   5.380   4.887   0.457  1.1253 -0.9221 -1.5173
19487TIP3    H279953   5.299   5.011   0.423  3.0460 -0.1174 -3.3750
19488TIP3   OH279954   0.243   0.150  11.380 -0.6628 -0.0183  0.0481
19488TIP3    H179955   0.231   0.237  11.418 -2.0344 -0.3984  0.5370
19488TIP3    H279956   0.288   0.100  11.448 -1.7630 -0.2671  0.6189
19489TIP3   OH279957   2.102   1.955  17.112 -0.1039 -0.0542  0.1436
19489TIP3    H179958   2.023   1.907  17.085 -0.2975  0.8147 -0.8938
19489TIP3    H279959   2.115   1.928  17.203 -1.3201 -0.5888  0.1920
19490TIP3   OH279960   1.541   3.091  12.005  0.0271  0.2569  1.1184
19490TIP3    H179961   1.493   3.134  12.075 -2.0160  1.5087 -0.9084
19490TIP3    H279962   1.486   3.102  11.927  2.7399  0.1051 -1.0005
19491TIP3   OH279963   6.213   3.086  14.399  0.1347  0.1752  0.3012
19491TIP3    H179964   6.154   3.066  14.326  0.5096 -0.9649  0.2942
19491TIP3    H279965   6.245   3.174  14.380 -0.0719  0.0502 -0.7087
19492TIP3   OH279966   1.074   4.951   2.179 -0.4863  0.3352  0.0978
19492TIP3    H179967   1.105   5.001   2.254 -1.1216  1.7042 -0.5207
19492TIP3    H279968   0.980   4.940   2.193 -0.1306 -2.2914  1.1008
19493TIP3   OH279969   6.442   6.033   2.178 -0.0567 -0.1813  0.0867
19493TIP3    H179970   6.367   6.090   2.196  0.6857  0.5461  0.9947
19493TIP3    H279971   6.462   6.048   2.086  0.2258  1.1840  0.3427
19494TIP3   OH279972   0.595   0.169   0.744  0.1694  0.5771  0.4366
19494TIP3    H179973   0.565   0.080   0.727  0.0971  0.5207  0.8484
19494TIP3    H279974   0.675   0.178   0.693 -0.6928  0.8282 -0.9476
19495TIP3   OH279975   4.488   1.977  14.992 -0.5219  0.0697  0.2286
19495TIP3    H179976   4.455   1.973  14.902  1.7672 -0.0258 -0.6847
19495TIP3    H279977   4.479   1.889  15.026 -1.4135  0.1087  0.0971
19496TIP3   OH279978   3.889   1.345  15.329 -0.3885  0.1449  0.3808
19496TIP3    H179979   3.809   1.355  15.277 -0.3276 -1.0945  0.0379
19496TIP3    H279980   3.861   1.298  15.407 -0.1632  0.5664  0.7243
19497TIP3   OH279981   2.364   2.015  17.005  0.3581 -0.1981  0.3240
19497TIP3    H179982   2.291   1.974  17.051  0.3774  0.7678  1.2561
19497TIP3    H279983   2.367   2.105  17.040  0.3550  0.5925 -1.5948
19498TIP3   OH279984   2.904   0.002   5.740 -0.3001  0.0112 -0.1446
19498TIP3    H179985   2.909  -0.092   5.761  2.1003 -0.3080 -1.7997
19498TIP3    H279986   2.979   0.041   5.784 -1.7146  1.3874  1.1953
19499TIP3   OH279987   1.635   1.552  15.445 -0.4208 -0.1712 -0.0921
19499TIP3    H179988   1.590   1.611  15.505  1.3407 -0.5862  1.7749
19499TIP3    H279989   1.615   1.586  15.358 -1.7797  1.4385  0.7921
19500TIP3   OH279990   1.753   2.012   6.081 -1.0430  0.3013 -0.1120
19500TIP3    H179991   1.790   1.928   6.107 -3.2518 -1.1109 -1.2518
19500TIP3    H279992   1.815   2.046   6.016  0.3088  0.0080  0.9779
19501TIP3   OH279993   4.967   6.792  13.305  0.5109  0.2854  0.3370
19501TIP3    H179994   4.999   6.745  13.382  1.0048  0.5811  0.3146
19501TIP3    H279995   4.875   6.810  13.324  0.5029 -0.0740  0.6448
19502TIP3   OH279996   0.872   0.495  16.731  0.1531  0.0548 -0.1861
19502TIP3    H179997   0.805   0.467  16.793 -0.3827 -1.1587 -1.2510
19502TIP3    H279998   0.828   0.556  16.673  0.2241 -0.0227 -0.3209
19503TIP3   OH279999   2.331   2.497   4.259  0.0100  0.0668 -0.2235
19503TIP3    H180000   2.306   2.584   4.227  0.4798  0.1082 -0.4954
19503TIP3    H280001   2.312   2.500   4.353  1.4763  1.0286  0.0911
19504TIP3   OH280002   4.045   1.151  10.827 -0.1323 -0.9268  0.6775
19504TIP3    H180003   4.113   1.115  10.770 -1.5161 -0.9366 -1.0640
19504TIP3    H280004   4.075   1.240  10.847 -0.4422 -0.2446 -1.6298
19505TIP3   OH280005   4.436   1.906   4.052  0.5130 -0.2241  0.3483
19505TIP3    H180006   4.378   1.860   4.112  1.0439 -1.5144 -0.0846
19505TIP3    H280007   4.481   1.836   4.004  1.6009  0.7472 -0.1031
19506TIP3   OH280008   0.426   3.243  13.298 -0.1209  0.8557  0.5445
19506TIP3    H180009   0.515   3.269  13.273 -0.2915 -0.3220 -1.5096
19506TIP3    H280010   0.438   3.162  13.348 -0.0676 -0.4032 -1.3935
19507TIP3   OH280011   3.515   5.498  14.109 -0.6528 -0.8230  0.1102
19507TIP3    H180012   3.581   5.429  14.105  0.4100  0.0772  1.1692
19507TIP3    H280013   3.549   5.567  14.052 -1.1106 -0.6938 -0.0111
19508TIP3   OH280014   3.952   0.660  16.792  1.3406 -0.9789  0.1310
19508TIP3    H180015   3.863   0.681  16.764  1.6012 -0.2739 -0.1942
19508TIP3    H280016   3.949   0.666  16.887  0.8902 -1.5868  0.1576
19509TIP3   OH280017   1.083   5.366  16.326  0.6371 -0.0878  0.2107
19509TIP3    H180018   1.126   5.392  16.245 -0.0262 -0.2825 -0.2182
19509TIP3    H280019   1.100   5.438  16.387  0.2541  0.5618 -0.4302
19510TIP3   OH280020   2.643   1.113   1.540 -0.5890 -0.5017 -0.1689
19510TIP3    H180021   2.698   1.035   1.531 -1.3272 -1.1885  0.9311
19510TIP3    H280022   2.696   1.174   1.591  0.5422  0.3153 -2.2309
19511TIP3   OH280023   1.181   1.298  16.924 -0.6398  0.3605 -0.2232
19511TIP3    H180024   1.238   1.344  16.861 -0.7847  1.0062  0.1054
19511TIP3    H280025   1.158   1.216  16.880  0.4490  0.1467 -0.4062
19512TIP3   OH280026   2.082   6.158  13.848 -0.3791  0.3747 -0.1724
19512TIP3    H180027   2.005   6.102  13.838  0.2955 -0.5968 -0.0809
19512TIP3    H280028   2.070   6.200  13.933 -0.7895  0.2042 -0.1407
19513TIP3   OH280029   0.347   0.247   6.744  0.1189 -0.3344 -0.5007
19513TIP3    H180030   0.441   0.242   6.762 -0.0450 -0.5177  0.3568
19513TIP3    H280031   0.320   0.330   6.784  0.1201  0.3334 -1.8021
19514TIP3   OH280032   4.093   3.556  16.444  0.0133  0.5275 -0.1647
19514TIP3    H180033   4.019   3.511  16.403  0.0263  0.0902  0.2782
19514TIP3    H280034   4.065   3.570  16.535 -1.6930  5.0365 -1.1044
19515TIP3   OH280035   3.339   6.472   6.450 -0.0099 -0.8299 -0.0030
19515TIP3    H180036   3.433   6.475   6.432  0.2276 -0.6104  1.1611
19515TIP3    H280037   3.316   6.380   6.444  1.1934 -1.5256  3.7594
19516TIP3   OH280038   1.788   4.779  14.366  0.2582 -0.1067 -0.4029
19516TIP3    H180039   1.834   4.861  14.381  0.8224 -0.7110  1.4159
19516TIP3    H280040   1.840   4.735  14.299  2.2401 -0.6164  1.3428
19517TIP3   OH280041   3.272   3.814  12.991 -0.0277  0.4772  0.2747
19517TIP3    H180042   3.313   3.868  12.923  1.1762 -0.7963 -0.0640
19517TIP3    H280043   3.181   3.805  12.962  0.2449  0.6990 -0.6939
19518TIP3   OH280044   2.202   0.065  12.436  1.0852 -0.6653 -0.5989
19518TIP3    H180045   2.198   0.160  12.449  0.7532 -0.8841  1.1917
19518TIP3    H280046   2.271   0.036  12.496 -0.2874 -1.7758  0.4989
19519TIP3   OH280047   3.192   1.347   2.922 -0.4611 -0.6469 -0.0345
19519TIP3    H180048   3.100   1.365   2.940 -0.0844 -0.1346  1.5064
19519TIP3    H280049   3.193   1.257   2.888 -1.3982 -1.1474  1.1971
19520TIP3   OH280050   5.305   5.594   5.175 -0.4370  0.0045  0.3448
19520TIP3    H180051   5.298   5.592   5.271 -1.2347  1.1893  0.3272
19520TIP3    H280052   5.306   5.687   5.153  3.3283 -0.0813 -0.5905
19521TIP3   OH280053   2.849   6.336   4.138 -0.7558  0.2652  0.1050
19521TIP3    H180054   2.840   6.293   4.223  0.1222 -1.0809 -0.4584
19521TIP3    H280055   2.871   6.427   4.160  0.6381 -0.3249  1.3294
19522TIP3   OH280056   4.433   0.197  14.627  0.3146 -0.5558  0.4105
19522TIP3    H180057   4.490   0.206  14.551  1.2132  0.3662  1.1712
19522TIP3    H280058   4.353   0.157  14.592  1.1675 -1.3009 -0.7865
19523TIP3   OH280059   5.728   0.848  14.255 -0.0930 -0.4017 -0.1316
19523TIP3    H180060   5.766   0.936  14.254 -1.5297  0.2367 -0.1911
19523TIP3    H280061   5.638   0.861  14.284 -1.0742 -1.5611 -2.4191
19524TIP3   OH280062   5.887   1.116  14.274  0.1220 -0.7308  0.4357
19524TIP3    H180063   5.869   1.181  14.206  1.3299 -0.7745  0.0585
19524TIP3    H280064   5.826   1.138  14.345 -1.2594 -0.7682 -0.6809
19525TIP3   OH280065   4.808   1.572   3.062 -0.2293  0.6513 -0.0069
19525TIP3    H180066   4.721   1.613   3.062 -0.2626  0.6034  0.8211
19525TIP3    H280067   4.864   1.636   3.107 -0.0243  0.3048  0.2326
19526TIP3   OH280068   0.790   0.599   6.355 -0.0428 -0.6755 -0.2778
19526TIP3    H180069   0.738   0.552   6.291 -0.5552 -2.1692  1.1902
19526TIP3    H280070   0.807   0.536   6.425  1.7282  0.4627  0.4123
19527TIP3   OH280071   4.831   3.782   5.026  0.3881  0.0477  0.4090
19527TIP3    H180072   4.853   3.807   5.116 -0.1861  0.9485  0.3065
19527TIP3    H280073   4.737   3.763   5.028  0.7202 -1.8332  0.4064
19528TIP3   OH280074   6.435   4.269  12.929 -0.4550 -0.3897  0.0824
19528TIP3    H180075   6.365   4.334  12.920 -0.4278 -0.3152  0.3878
19528TIP3    H280076   6.421   4.208  12.856  0.5082  0.8755 -1.2234
19529TIP3   OH280077   6.751   3.020  16.453 -0.4171 -0.1076  0.0808
19529TIP3    H180078   6.772   2.978  16.370  0.4546 -0.2564  0.3690
19529TIP3    H280079   6.757   3.113  16.435 -1.6252 -0.0973 -0.3710
19530TIP3   OH280080   1.896   5.415  12.887  0.1201  0.3670  0.1730
19530TIP3    H180081   1.915   5.346  12.823  0.4427  0.6191 -0.0097
19530TIP3    H280082   1.829   5.377  12.944  1.1488 -0.5564  0.8229
19531TIP3   OH280083   1.303   0.928  12.302 -0.1208 -0.4883  0.4728
19531TIP3    H180084   1.364   0.886  12.242 -0.7764 -2.3452  1.0244
19531TIP3    H280085   1.353   0.943  12.382  0.4501  0.9752 -0.1261
19532TIP3   OH280086   4.259   4.367  13.910 -0.4750 -0.5259 -0.2292
19532TIP3    H180087   4.302   4.296  13.957  0.0691  0.8200  1.3702
19532TIP3    H280088   4.217   4.323  13.835  1.6579 -2.2094 -0.5421
19533TIP3   OH280089   3.128   3.879  15.753  0.6038 -0.2975 -0.6671
19533TIP3    H180090   3.120   3.845  15.842 -4.5175 -0.6383 -0.9821
19533TIP3    H280091   3.157   3.804  15.700 -0.6037 -1.3530  0.1216
19534TIP3   OH280092   3.217   5.624  16.396 -0.7336  0.4038  0.2024
19534TIP3    H180093   3.238   5.672  16.316 -0.5167 -1.1665 -0.7275
19534TIP3    H280094   3.123   5.609  16.392 -1.4503  3.3863  2.0754
19535TIP3   OH280095   0.014   4.875   0.044 -0.1380 -0.2060 -0.2484
19535TIP3    H180096  -0.019   4.882  -0.046 -1.2882 -0.7843  0.1051
19535TIP3    H280097  -0.059   4.906   0.098  0.2244 -0.6907  0.5260
19536TIP3   OH280098   6.752   4.587  13.566  0.3542 -0.2975 -0.4879
19536TIP3    H180099   6.711   4.531  13.501 -0.4712 -0.3253  0.0463
19536TIP3    H280100   6.779   4.527  13.636 -2.0351  0.0992  0.8724
19537TIP3   OH280101   3.627   1.124   5.535  0.1915  0.1304 -0.1296
19537TIP3    H180102   3.603   1.070   5.460 -1.3550 -2.1671  1.8764
19537TIP3    H280103   3.545   1.163   5.564  0.8741  1.4977  0.0387
19538TIP3   OH280104   2.684   1.976  12.635  0.2185 -0.5127 -0.0206
19538TIP3    H180105   2.755   2.041  12.635 -1.9092  1.9861 -0.5786
19538TIP3    H280106   2.698   1.925  12.556  2.0522 -0.9201  0.5141
19539TIP3   OH280107   6.545   6.130   1.732  0.0314  0.1201  0.1414
19539TIP3    H180108   6.515   6.045   1.762  0.7318  0.0235  0.5860
19539TIP3    H280109   6.491   6.149   1.655  0.3641 -1.0541 -0.3983
19540TIP3   OH280110   1.801   1.732  11.191  0.2801  0.0594 -0.1858
19540TIP3    H180111   1.812   1.789  11.115  0.3970  1.0033  0.5183
19540TIP3    H280112   1.706   1.727  11.203  0.2764  0.2268 -0.1510
19541TIP3   OH280113   1.324   3.705   0.726 -0.3677 -0.0574  0.5148
19541TIP3    H180114   1.264   3.633   0.705 -0.1608 -0.5261  1.4930
19541TIP3    H280115   1.275   3.784   0.702 -1.0158 -0.4685  0.4407
19542TIP3   OH280116   3.153   4.126   3.000 -0.1858  0.1845 -0.2249
19542TIP3    H180117   3.092   4.151   3.069 -0.0856  0.0305 -0.0824
19542TIP3    H280118   3.192   4.044   3.029 -0.6637 -0.2498 -0.7908
19543TIP3   OH280119   5.189   2.283  12.624 -0.2232 -0.3090  0.0044
19543TIP3    H180120   5.168   2.194  12.650 -0.6962 -1.1258 -2.8778
19543TIP3    H280121   5.251   2.274  12.552 -0.2455  1.6916 -0.3366
19544TIP3   OH280122   4.572   6.697  13.949 -0.1281 -0.9441  0.0499
19544TIP3    H180123   4.485   6.681  13.912  0.0262  0.2530 -0.9250
19544TIP3    H280124   4.618   6.614  13.940 -0.5367 -1.0508 -1.3087
19545TIP3   OH280125   4.168   6.200  17.145  0.3046 -0.5635  0.1351
19545TIP3    H180126   4.255   6.160  17.136  0.7738  0.8800 -3.0776
19545TIP3    H280127   4.117   6.163  17.074 -0.9014  0.5858  0.3635
19546TIP3   OH280128   3.966   2.450  16.900  0.0871 -0.2689 -0.1466
19546TIP3    H180129   3.934   2.500  16.975  0.8167  0.6888 -0.4538
19546TIP3    H280130   4.045   2.496  16.873  0.9232 -1.7218 -0.3005
19547TIP3   OH280131   4.385   6.496   6.000 -0.0016  0.6567  0.3987
19547TIP3    H180132   4.442   6.505   6.077 -0.5448 -0.2815  0.9323
19547TIP3    H280133   4.445   6.501   5.926  0.3067  3.7426  0.7311
19548TIP3   OH280134   1.733   1.791  15.718 -0.2967 -0.0977 -0.0961
19548TIP3    H180135   1.802   1.803  15.653  0.1231 -0.7525  0.2236
19548TIP3    H280136   1.662   1.849  15.689 -0.4945 -1.0733 -1.6590
19549TIP3   OH280137   5.476   6.518   0.372 -0.6729 -0.1999 -0.1470
19549TIP3    H180138   5.387   6.488   0.352 -0.4268 -0.2794 -1.2049
19549TIP3    H280139   5.530   6.440   0.359 -0.0429  0.5895 -2.7844
19550TIP3   OH280140   2.016   3.293   3.901  0.2002 -0.2092 -0.0328
19550TIP3    H180141   1.934   3.312   3.945  1.1754  1.4141  1.2037
19550TIP3    H280142   1.997   3.218   3.845 -2.2422  0.4933 -0.2200
19551TIP3   OH280143   0.782   4.543  11.647 -0.3470  0.0850 -0.1317
19551TIP3    H180144   0.835   4.560  11.725 -0.8905 -4.5647  1.5782
19551TIP3    H280145   0.830   4.475  11.600 -0.7136  1.8298 -3.3370
19552TIP3   OH280146   0.250   1.553   3.737  0.3048 -0.3499  0.1466
19552TIP3    H180147   0.238   1.573   3.644 -2.4512 -2.0443  0.0395
19552TIP3    H280148   0.214   1.629   3.782  1.9582  0.6319 -0.1071
19553TIP3   OH280149   0.149   5.785  13.541  0.1402 -0.0881  0.1879
19553TIP3    H180150   0.201   5.799  13.620 -1.5207 -0.2253  1.3491
19553TIP3    H280151   0.121   5.694  13.546 -1.4756  0.3878  0.4095
19554TIP3   OH280152   2.111   1.350  14.924  0.5385  0.6006 -0.3296
19554TIP3    H180153   2.143   1.322  15.010 -0.4803 -0.0303 -0.1409
19554TIP3    H280154   2.160   1.429  14.905 -0.5281  1.8302  1.6996
19555TIP3   OH280155   3.324   5.819  16.819 -0.1271  0.1822  0.1360
19555TIP3    H180156   3.246   5.858  16.858  0.6014 -0.9438  3.0085
19555TIP3    H280157   3.397   5.872  16.853  0.4738  2.3859 -3.9340
19556TIP3   OH280158   0.079   3.225  15.881 -0.3736  0.1182 -0.6242
19556TIP3    H180159   0.093   3.137  15.916 -0.3962  0.6807  0.9113
19556TIP3    H280160   0.010   3.215  15.817 -0.3991 -0.9777 -0.4481
19557TIP3   OH280161   4.939   1.229   4.957 -0.5715 -0.2172 -0.0949
19557TIP3    H180162   4.974   1.301   5.010  0.0556  0.0504 -0.8544
19557TIP3    H280163   4.858   1.204   5.002 -0.1757  0.1435  0.8613
19558TIP3   OH280164   3.649   4.828  12.224  0.1216  0.1990  0.4444
19558TIP3    H180165   3.683   4.918  12.220  1.8351 -0.3219  1.9165
19558TIP3    H280166   3.592   4.828  12.301  0.5544 -0.1078  0.7650
19559TIP3   OH280167   3.943   4.680  13.030  0.2649 -0.3760 -0.0931
19559TIP3    H180168   3.930   4.639  13.116 -0.7456 -1.9540 -0.9544
19559TIP3    H280169   3.965   4.607  12.972  0.5298  0.6115 -1.2756
19560TIP3   OH280170   2.592   0.537  12.756  1.0624  0.3443 -0.2903
19560TIP3    H180171   2.498   0.524  12.751  1.1041  0.1568 -0.6044
19560TIP3    H280172   2.608   0.618  12.707  1.3114 -0.7671 -2.0910
19561TIP3   OH280173   3.632   5.908   5.795  1.0950  0.6799  0.3888
19561TIP3    H180174   3.627   5.920   5.700  1.5870 -0.1067  0.2589
19561TIP3    H280175   3.544   5.927   5.826  0.1213 -1.8597 -0.5589
19562TIP3   OH280176   0.909   1.222  11.428 -0.0276  0.1045 -0.1005
19562TIP3    H180177   0.956   1.205  11.510 -1.4650  0.5437  0.8554
19562TIP3    H280178   0.976   1.253  11.368  1.3704 -1.7863  0.3698
19563TIP3   OH280179   4.755   5.196  14.641 -0.0449 -0.2657 -0.1283
19563TIP3    H180180   4.675   5.247  14.636  0.1275 -0.1102 -2.3127
19563TIP3    H280181   4.769   5.182  14.735 -0.3898  3.2194  0.5811
19564TIP3   OH280182   2.835   0.248  13.799  0.0287 -0.0637  0.0840
19564TIP3    H180183   2.916   0.239  13.749  1.0684  2.2995  1.1885
19564TIP3    H280184   2.863   0.258  13.890 -1.5461  0.0442  0.5973
19565TIP3   OH280185   1.815   5.229   0.149  0.2313 -0.2959  0.0274
19565TIP3    H180186   1.764   5.229   0.068 -1.4751  0.6325  1.0450
19565TIP3    H280187   1.810   5.319   0.181  0.4681 -0.7403  1.3925
19566TIP3   OH280188   1.019   0.809  14.972  0.6361  0.3705 -0.1204
19566TIP3    H180189   1.082   0.771  14.910  1.1130  0.4035  0.3361
19566TIP3    H280190   1.011   0.900  14.945 -0.0192  0.1183 -0.8208
19567TIP3   OH280191   0.229   1.975  12.586  0.4914 -0.1297 -0.1004
19567TIP3    H180192   0.171   2.020  12.648 -0.1100  1.4885 -1.7432
19567TIP3    H280193   0.212   1.882  12.602 -0.3237  0.2408  1.5016
19568TIP3   OH280194   2.103   4.333   4.464  0.1703  0.1008 -0.0642
19568TIP3    H180195   2.106   4.416   4.416  0.9748  0.8850  1.2794
19568TIP3    H280196   2.166   4.277   4.418 -2.7082 -1.0393 -3.0381
19569TIP3   OH280197   6.002   5.259  11.739  0.3630  0.4647 -0.5458
19569TIP3    H180198   5.982   5.204  11.663  0.9519 -1.4312  0.5986
19569TIP3    H280199   6.085   5.301  11.716  0.1885  0.4600 -1.2180
19570TIP3   OH280200   4.994   4.150  15.317 -0.4067  0.1488 -0.2321
19570TIP3    H180201   5.001   4.211  15.244  1.1805 -1.8347 -1.8200
19570TIP3    H280202   4.997   4.206  15.395 -0.5992  2.1943 -1.6230
19571TIP3   OH280203   1.234   1.435  11.931 -0.0833 -0.0332 -0.1665
19571TIP3    H180204   1.205   1.469  11.847 -0.2376 -1.0965 -0.5668
19571TIP3    H280205   1.225   1.340  11.922  2.3738 -0.3592  0.1177
19572TIP3   OH280206   4.711   1.447  14.195 -0.1520 -0.3811  0.2521
19572TIP3    H180207   4.772   1.506  14.238 -0.9671  2.1302 -1.7426
19572TIP3    H280208   4.767   1.383  14.150  0.9660  0.7395 -0.0187
19573TIP3   OH280209   5.830   3.291   4.268  0.1439  0.4606  0.1321
19573TIP3    H180210   5.810   3.296   4.361  0.8765 -0.0152  0.3193
19573TIP3    H280211   5.921   3.319   4.261  0.7706 -1.5300 -0.1756
19574TIP3   OH280212   4.413   3.450   5.475  0.3100 -0.2055 -0.4595
19574TIP3    H180213   4.378   3.467   5.388  0.1474 -3.1861 -1.0797
19574TIP3    H280214   4.336   3.452   5.532  0.3312  1.0921 -0.4291
19575TIP3   OH280215   3.824   0.356  12.397 -0.0419  0.1106  0.0480
19575TIP3    H180216   3.743   0.310  12.419 -0.5073  1.3568  1.0521
19575TIP3    H280217   3.862   0.381  12.481  1.2089 -0.1049 -0.4189
19576TIP3   OH280218   1.528   4.928   5.721  0.8534 -0.2858 -0.1844
19576TIP3    H180219   1.498   4.849   5.675 -1.0525 -0.4134  1.1779
19576TIP3    H280220   1.481   5.000   5.679 -0.6942 -0.3762  1.3207
19577TIP3   OH280221   3.605   1.773  11.935  0.3455  0.4838 -0.7499
19577TIP3    H180222   3.514   1.763  11.905  0.0033  2.3654 -0.4659
19577TIP3    H280223   3.657   1.769  11.855 -0.0070 -0.1537 -0.9608
19578TIP3   OH280224   4.633   2.859  13.537  0.2084 -0.2123  0.0291
19578TIP3    H180225   4.545   2.847  13.500  0.6230 -1.8704 -0.5211
19578TIP3    H280226   4.626   2.829  13.628  0.1365 -0.0759  0.0675
19579TIP3   OH280227   1.451   0.918   3.322 -0.2142 -0.7114  0.5326
19579TIP3    H180228   1.503   0.926   3.402 -2.2590 -0.5466  1.9446
19579TIP3    H280229   1.488   0.984   3.263  0.7712 -0.1688  1.7051
19580TIP3   OH280230   0.243   0.569   5.029 -0.2971 -0.7733 -0.8229
19580TIP3    H180231   0.309   0.634   5.006 -2.0749  0.9012 -1.4476
19580TIP3    H280232   0.265   0.544   5.119  1.4481 -0.6343 -1.1828
19581TIP3   OH280233   2.290   1.208   0.049  0.1955 -0.0609  0.3564
19581TIP3    H180234   2.294   1.229   0.142  0.9846  0.5247  0.2025
19581TIP3    H280235   2.371   1.245   0.012  1.1414 -2.4521 -0.1342
19582TIP3   OH280236   5.706   3.269  13.237  0.0920 -0.0486 -0.5842
19582TIP3    H180237   5.672   3.206  13.173 -1.5624  2.2410 -2.1128
19582TIP3    H280238   5.630   3.318  13.266  1.0491  0.0788  2.0182
19583TIP3   OH280239   3.501   4.838  12.477 -0.0076 -0.0381  0.0480
19583TIP3    H180240   3.537   4.878  12.556  0.6568 -1.4877  0.5174
19583TIP3    H280241   3.486   4.746  12.501  0.3978 -0.5659 -1.5584
19584TIP3   OH280242   5.740   2.436   2.905  0.2124  0.3613 -0.3205
19584TIP3    H180243   5.688   2.509   2.871 -0.0669  0.5408  0.4788
19584TIP3    H280244   5.828   2.471   2.912  0.2473  0.3627 -0.7304
19585TIP3   OH280245   3.634   6.136  13.499 -1.1914 -0.4255  0.5360
19585TIP3    H180246   3.631   6.072  13.570 -0.5082  0.1302  1.0854
19585TIP3    H280247   3.682   6.092  13.429  0.3289 -0.1498  1.3428
19586TIP3   OH280248   3.551   2.423  15.585 -0.4366 -0.3355  0.6474
19586TIP3    H180249   3.490   2.369  15.535 -0.2701 -1.9890  2.1063
19586TIP3    H280250   3.495   2.481  15.637 -0.6942 -0.4747  0.5256
19587TIP3   OH280251   5.258   6.809   3.335  0.1263  0.0202 -1.1049
19587TIP3    H180252   5.349   6.831   3.314  0.5636  0.1281  0.7789
19587TIP3    H280253   5.256   6.713   3.331  0.2976  0.0182 -1.1935
19588TIP3   OH280254   4.797   2.273   3.791  0.4457 -0.4471 -0.2202
19588TIP3    H180255   4.867   2.335   3.773 -0.6778  1.6671  2.1820
19588TIP3    H280256   4.718   2.314   3.755 -0.2173 -0.7303  0.8442
19589TIP3   OH280257   4.764   6.779  16.649  0.4744 -0.2971  0.2613
19589TIP3    H180258   4.750   6.869  16.619 -0.3132 -0.6387 -0.4171
19589TIP3    H280259   4.727   6.778  16.738  1.7074  0.3893  0.8168
19590TIP3   OH280260   3.819   1.017   3.028 -0.7826  0.3854 -0.2646
19590TIP3    H180261   3.870   0.945   3.065 -4.7841 -1.3422  2.6135
19590TIP3    H280262   3.800   0.989   2.938 -0.9457 -1.4313  0.3029
19591TIP3   OH280263   3.701   5.917   2.266  0.3294  0.5859 -0.6669
19591TIP3    H180264   3.624   5.865   2.246 -0.0384  1.4391 -1.5720
19591TIP3    H280265   3.677   6.006   2.239  2.4520  0.4852 -3.2714
19592TIP3   OH280266   1.922   4.139   2.216 -0.3209  0.9632  0.2072
19592TIP3    H180267   1.913   4.231   2.238  1.4091  0.7126  2.2161
19592TIP3    H280268   2.012   4.130   2.186 -0.8701  0.1354 -1.3294
19593TIP3   OH280269   5.152   5.809  12.923  0.5114  0.3757 -0.1799
19593TIP3    H180270   5.213   5.862  12.974 -0.1695 -0.1117  1.1897
19593TIP3    H280271   5.172   5.831  12.832  1.6080  1.4471  0.2857
19594TIP3   OH280272   4.793   6.373   3.619  0.4150 -0.0763  0.5279
19594TIP3    H180273   4.715   6.348   3.669  0.5186  0.2032  0.8406
19594TIP3    H280274   4.830   6.446   3.669  0.0821  0.7401 -0.3804
19595TIP3   OH280275   3.300   2.715   2.653 -0.2484 -0.6156 -0.2326
19595TIP3    H180276   3.342   2.632   2.630  2.3680  1.2779 -2.9091
19595TIP3    H280277   3.349   2.747   2.729 -0.0452 -0.6496 -0.3502
19596TIP3   OH280278   0.535   6.277   5.643  0.7893  0.5434  0.2391
19596TIP3    H180279   0.576   6.340   5.584  3.1271 -1.2638 -0.1855
19596TIP3    H280280   0.572   6.295   5.729 -1.1848  1.9245  0.8838
19597TIP3   OH280281   6.649   3.112  12.150  0.0347  0.1420 -0.3162
19597TIP3    H180282   6.678   3.106  12.059  0.9222  2.0326 -0.2056
19597TIP3    H280283   6.730   3.110  12.202 -0.4539 -0.8045  0.4443
19598TIP3   OH280284   6.493   1.697   5.352  0.5319 -0.5808  0.2603
19598TIP3    H180285   6.464   1.778   5.394  1.5779  0.1438 -0.3683
19598TIP3    H280286   6.513   1.722   5.262  2.0822 -1.2450  0.3848
19599TIP3   OH280287   3.641   1.926  11.380  0.1754 -0.0400 -0.3887
19599TIP3    H180288   3.706   1.856  11.386 -0.5181 -0.5888  1.3759
19599TIP3    H280289   3.613   1.925  11.288  1.8087 -0.5509 -0.9126
19600TIP3   OH280290   3.718   1.508   5.684  0.6705  0.8397 -0.1984
19600TIP3    H180291   3.624   1.525   5.681  0.6964  0.8556 -1.1151
19600TIP3    H280292   3.725   1.417   5.712  0.3707  0.7577 -0.3902
19601TIP3   OH280293   4.263   1.221   2.769  0.0010  0.3171  0.1949
19601TIP3    H180294   4.205   1.179   2.706  2.1365 -1.1566 -0.9058
19601TIP3    H280295   4.290   1.302   2.726 -1.5914  1.3222  0.9645
19602TIP3   OH280296   0.681   3.761  13.209  0.8218 -1.1126  0.0245
19602TIP3    H180297   0.607   3.711  13.175 -0.5390  0.5615  0.3472
19602TIP3    H280298   0.668   3.761  13.304  2.2867 -2.3204  0.2509
19603TIP3   OH280299   3.979   4.461   0.261 -0.3901  0.3921 -0.1719
19603TIP3    H180300   3.947   4.531   0.204 -1.0146  1.4223  1.3746
19603TIP3    H280301   3.998   4.504   0.344  1.8918 -0.7986  0.0080
19604TIP3   OH280302   6.022   3.878  11.434  0.4141  0.6132  0.1748
19604TIP3    H180303   6.095   3.891  11.373  0.7151  0.6638  0.5415
19604TIP3    H280304   5.983   3.795  11.407 -1.1190  1.8719 -1.7865
19605TIP3   OH280305   5.972   0.296  14.334 -0.0927  0.3625 -0.0694
19605TIP3    H180306   5.941   0.309  14.244 -0.6778  0.5943  0.1590
19605TIP3    H280307   5.934   0.213  14.361  1.3210 -0.4625 -0.5458
19606TIP3   OH280308   3.342   5.104  14.454  0.1533 -0.3499 -0.7379
19606TIP3    H180309   3.341   5.029  14.395 -0.3337  0.1292 -1.3587
19606TIP3    H280310   3.410   5.161  14.418 -0.6776  0.3023 -1.3182
19607TIP3   OH280311   0.361   1.992   4.988 -0.5526 -0.8045 -0.3161
19607TIP3    H180312   0.446   1.949   4.999  0.1794  0.3671 -1.1290
19607TIP3    H280313   0.338   2.023   5.075  0.7317  0.3923 -0.3591
19608TIP3   OH280314   6.645   0.999  11.644  0.2530 -0.7063 -1.2334
19608TIP3    H180315   6.654   1.076  11.589  0.5735 -0.2370 -0.5454
19608TIP3    H280316   6.703   0.934  11.605 -0.2341 -0.7001 -1.9814
19609TIP3   OH280317   3.532   0.569   4.607 -0.2250 -0.1310 -0.5839
19609TIP3    H180318   3.487   0.620   4.674 -0.7699 -1.3796  0.0496
19609TIP3    H280319   3.463   0.543   4.546 -0.3564 -1.8072  0.2287
19610TIP3   OH280320   6.630   6.393  10.376  0.6646  0.2645 -0.3123
19610TIP3    H180321   6.553   6.425  10.424  0.3720  1.6164 -1.6012
19610TIP3    H280322   6.705   6.422  10.429  0.3164 -0.2296  0.4663
19611TIP3   OH280323   2.047   4.850   0.524 -0.0058  0.0824 -0.4020
19611TIP3    H180324   2.044   4.890   0.437  0.0393 -0.3493 -0.6036
19611TIP3    H280325   2.012   4.762   0.511  3.2863 -1.2940 -0.7115
19612TIP3   OH280326   2.263   0.475   2.484  0.1876  0.0430  0.5852
19612TIP3    H180327   2.196   0.418   2.522 -2.0026  0.6837 -2.0153
19612TIP3    H280328   2.318   0.416   2.432  1.1183 -0.3605  2.0002
19613TIP3   OH280329   3.290   3.003  11.807  0.0986  0.4197 -0.1199
19613TIP3    H180330   3.254   3.086  11.776  0.3941  0.6239  0.0799
19613TIP3    H280331   3.332   2.965  11.730 -1.4362 -0.3223 -0.6304
19614TIP3   OH280332   1.487   0.891   3.617  0.2054 -0.4025 -0.0898
19614TIP3    H180333   1.532   0.821   3.569  2.4453  0.3114  0.8099
19614TIP3    H280334   1.485   0.860   3.708  0.0803  0.1469  0.0957
19615TIP3   OH280335   3.849   5.941   2.655  0.0280  0.1869 -0.1769
19615TIP3    H180336   3.869   6.024   2.610  0.0327 -0.0326 -0.5884
19615TIP3    H280337   3.921   5.930   2.717 -0.3253  0.8281  0.3594
19616TIP3   OH280338   3.299   2.442   5.954 -0.1788 -0.3276 -0.0666
19616TIP3    H180339   3.382   2.407   5.921 -0.3818 -2.6580  1.6575
19616TIP3    H280340   3.276   2.384   6.027 -2.5450  1.2088  0.5009
19617TIP3   OH280341   1.661   3.939  15.418 -0.3558 -0.0783 -0.1895
19617TIP3    H180342   1.633   3.853  15.385 -2.0882  0.4006 -0.0795
19617TIP3    H280343   1.670   3.993  15.339 -0.0825 -0.1301 -0.1957
19618TIP3   OH280344   2.454   3.204   6.693 -0.4617  0.1104 -0.5703
19618TIP3    H180345   2.393   3.186   6.764 -0.3946  1.3452 -0.1797
19618TIP3    H280346   2.533   3.154   6.716 -0.6528  0.0296 -0.0894
19619TIP3   OH280347   3.225   3.395  15.867 -0.1760 -0.0082 -0.1006
19619TIP3    H180348   3.249   3.323  15.926  0.1537  1.2596  1.3768
19619TIP3    H280349   3.288   3.389  15.796  0.7447 -0.3367  0.7190
19620TIP3   OH280350   2.732   5.430   6.198  0.1854 -0.0892 -0.6648
19620TIP3    H180351   2.754   5.518   6.229  0.9288 -0.4996  0.0067
19620TIP3    H280352   2.637   5.434   6.181  0.1290  0.7094 -0.2216
19621TIP3   OH280353   5.807   6.465  12.861  0.2516 -0.2871 -0.1613
19621TIP3    H180354   5.854   6.540  12.897 -0.8091  0.9063 -1.1714
19621TIP3    H280355   5.729   6.457  12.916  1.1460 -1.7702  1.0098
19622TIP3   OH280356   2.274   6.424  15.688  0.2978  0.0316  0.1589
19622TIP3    H180357   2.216   6.401  15.615 -0.7528 -0.3095  1.0786
19622TIP3    H280358   2.312   6.340  15.715  0.9598  0.2067 -0.2166
19623TIP3   OH280359   4.646   1.194  14.459 -0.1641 -0.0193  0.0783
19623TIP3    H180360   4.632   1.284  14.489 -0.9795 -0.5419  1.3617
19623TIP3    H280361   4.739   1.190  14.437 -0.2933  1.3481 -0.8098
19624TIP3   OH280362   0.255   5.746  12.224 -0.2167 -0.9458 -0.1886
19624TIP3    H180363   0.209   5.689  12.163  1.0863 -3.2365  0.8634
19624TIP3    H280364   0.218   5.724  12.310  0.3873 -0.2585  0.2564
19625TIP3   OH280365   6.643   5.158  12.667  0.0301 -0.2193  0.5845
19625TIP3    H180366   6.619   5.176  12.757 -0.9528  2.3116 -0.1031
19625TIP3    H280367   6.580   5.208  12.615  3.3452  2.1956 -1.4458
19626TIP3   OH280368   4.801   6.701   0.665  0.0775 -0.3643 -0.2180
19626TIP3    H180369   4.863   6.740   0.605 -0.3038 -0.1180 -0.4523
19626TIP3    H280370   4.743   6.772   0.690 -2.1232 -1.2161 -2.5025
19627TIP3   OH280371   0.623   1.877   0.165  0.0161  0.6915  0.4237
19627TIP3    H180372   0.554   1.870   0.231 -0.0389  0.6209  0.3596
19627TIP3    H280373   0.631   1.971   0.149 -0.0173  0.7045  0.4825
19628TIP3   OH280374   4.169   0.602  14.770  0.2637  0.4129 -0.1927
19628TIP3    H180375   4.082   0.604  14.731  0.6813  0.3963 -1.1614
19628TIP3    H280376   4.216   0.675  14.728  0.5698  0.7292  0.6750
19629TIP3   OH280377   6.631   1.498   3.146  0.5997  0.4051  0.1299
19629TIP3    H180378   6.586   1.450   3.076  1.1464  0.0022  0.0463
19629TIP3    H280379   6.665   1.430   3.204  0.8172  0.7143  0.3697
19630TIP3   OH280380   2.020   1.590   0.698  0.0510  0.0206 -0.8394
19630TIP3    H180381   2.106   1.585   0.655  0.8590  0.1183  0.7030
19630TIP3    H280382   1.968   1.521   0.656  1.3443 -0.9903 -0.8348
19631TIP3   OH280383   4.376   5.165   5.608  0.3359 -0.1443 -0.0560
19631TIP3    H180384   4.368   5.215   5.689  0.7732 -0.4682  0.1858
19631TIP3    H280385   4.461   5.123   5.613  0.8230  0.6526 -1.1386
19632TIP3   OH280386   3.188   5.327  13.016 -0.0899  0.2572  0.1136
19632TIP3    H180387   3.096   5.306  13.034  0.1220  0.8574  2.1285
19632TIP3    H280388   3.198   5.418  13.045  1.2376  0.0733  0.2864
19633TIP3   OH280389   2.044   4.828  13.404 -0.1209  0.2070 -0.4285
19633TIP3    H180390   1.983   4.848  13.333 -1.7263 -3.2055 -0.2029
19633TIP3    H280391   2.006   4.870  13.481 -0.5042  0.6491 -0.8500
19634TIP3   OH280392   0.921   5.217   4.564 -0.2720  0.0482 -0.5616
19634TIP3    H180393   0.987   5.257   4.621 -0.1468  0.4012 -0.9467
19634TIP3    H280394   0.853   5.187   4.624  0.3423 -0.5238 -0.1406
19635TIP3   OH280395   4.934   4.632   4.215  0.4306  0.5403 -0.1086
19635TIP3    H180396   4.991   4.678   4.276 -1.0392  0.6201  1.2920
19635TIP3    H280397   4.988   4.562   4.178  1.5898  1.0048  0.6768
19636TIP3   OH280398   6.557   4.275   6.570  0.1734  0.1103 -0.1264
19636TIP3    H180399   6.515   4.360   6.580  0.7463  0.4475 -0.5290
19636TIP3    H280400   6.533   4.246   6.482 -0.8058 -0.5919  0.3528
19637TIP3   OH280401   3.632   1.372   2.424  0.1478 -0.7580  0.3897
19637TIP3    H180402   3.554   1.421   2.399 -1.2321 -1.6980  2.6148
19637TIP3    H280403   3.642   1.306   2.354 -2.4210 -2.0652  1.1138
19638TIP3   OH280404   0.281   3.254  14.459 -0.8392 -0.9472 -0.0269
19638TIP3    H180405   0.276   3.272  14.553  1.0789 -3.9969  0.7863
19638TIP3    H280406   0.326   3.330  14.423  1.6607 -1.2185  2.1594
19639TIP3   OH280407   2.841   2.394   3.323 -0.0798 -0.2769  0.5308
19639TIP3    H180408   2.906   2.408   3.392 -1.2088 -0.5234  1.6907
19639TIP3    H280409   2.869   2.452   3.252  2.5312 -1.8440  0.1397
19640TIP3   OH280410   2.274   3.535  16.882 -0.1265  0.1320  0.6371
19640TIP3    H180411   2.277   3.461  16.822  0.8329  0.0053  0.8213
19640TIP3    H280412   2.188   3.530  16.923 -0.9370  0.4204 -0.9628
19641TIP3   OH280413   5.415   4.837  14.034 -0.3516 -0.2425 -0.0829
19641TIP3    H180414   5.421   4.742  14.049 -0.3392 -0.0394  1.3416
19641TIP3    H280415   5.327   4.850  13.998  0.0863 -0.9120 -1.4758
19642TIP3   OH280416   6.027   1.409  16.785  0.2625  0.5075  0.5439
19642TIP3    H180417   5.989   1.471  16.723 -0.7520  0.1723  0.8128
19642TIP3    H280418   6.024   1.455  16.869  0.0811  0.3329  0.6348
19643TIP3   OH280419   1.858   0.875  16.490  0.5204  0.2116 -0.7110
19643TIP3    H180420   1.773   0.908  16.463  0.9419  1.2952 -0.7406
19643TIP3    H280421   1.892   0.830  16.413  0.2519  0.3274 -0.8994
19644TIP3   OH280422   0.160   0.042   4.276 -0.4211  0.2848  0.1614
19644TIP3    H180423   0.192   0.051   4.366 -1.1033 -1.3154  0.5953
19644TIP3    H280424   0.095   0.112   4.267 -1.1643 -0.2314  1.3048
19645TIP3   OH280425   1.613   6.165  11.939  0.1694 -0.7071 -0.3273
19645TIP3    H180426   1.523   6.194  11.926  0.2172  0.6141  1.8241
19645TIP3    H280427   1.666   6.244  11.928  1.0562 -1.4156 -1.3173
19646TIP3   OH280428   6.611   5.222  12.141  0.3973  0.3485 -0.1763
19646TIP3    H180429   6.686   5.257  12.189  0.7001  0.5171 -0.7592
19646TIP3    H280430   6.572   5.158  12.200  2.1489 -1.1634 -0.5700
19647TIP3   OH280431   0.900   1.342  14.584  0.2372 -0.7660 -0.7074
19647TIP3    H180432   0.808   1.365  14.574  0.3887 -0.0446 -0.4504
19647TIP3    H280433   0.899   1.248  14.603 -0.4488 -0.7402 -0.6037
19648TIP3   OH280434   5.257   3.200   1.814 -0.3716  0.1391 -0.4067
19648TIP3    H180435   5.231   3.163   1.730 -3.4148 -0.4911  0.6526
19648TIP3    H280436   5.252   3.295   1.801 -1.6168  0.0453 -0.7795
19649TIP3   OH280437   0.044   1.078  12.600 -0.4446  0.7836 -0.1283
19649TIP3    H180438   0.093   0.996  12.587 -1.0959  0.6012 -1.5315
19649TIP3    H280439   0.108   1.137  12.641  0.0192 -0.4209  0.9860
19650TIP3   OH280440   3.762   4.710   5.974  0.2948  0.0933 -0.1279
19650TIP3    H180441   3.679   4.753   5.995 -0.2271 -0.5696 -0.7562
19650TIP3    H280442   3.776   4.732   5.882  0.7785  0.1341 -0.0429
19651TIP3   OH280443   6.238   6.243  10.571 -0.3054 -0.0013 -0.0469
19651TIP3    H180444   6.264   6.164  10.524 -0.3690 -0.0366 -0.0245
19651TIP3    H280445   6.266   6.315  10.515  0.0181 -0.0351  0.0734
19652TIP3   OH280446   2.168   2.446   1.369  0.0593  0.2240 -0.2432
19652TIP3    H180447   2.188   2.505   1.442  0.7443  0.4919 -0.6383
19652TIP3    H280448   2.225   2.475   1.298  0.2808 -0.7999 -0.5082
19653TIP3   OH280449   2.260   2.330  11.907 -0.2856 -0.1183  0.2964
19653TIP3    H180450   2.341   2.301  11.865 -0.7078 -0.3163 -0.4048
19653TIP3    H280451   2.255   2.280  11.988  0.1645 -0.2873  0.2210
19654TIP3   OH280452   1.033   0.814  13.489 -0.3248 -1.0605  0.2651
19654TIP3    H180453   1.006   0.741  13.545  0.2701 -2.1444 -0.8022
19654TIP3    H280454   1.118   0.842  13.525 -0.5674 -0.8737  0.6930
19655TIP3   OH280455   6.558   0.725  13.588 -0.2207 -0.1394 -0.0258
19655TIP3    H180456   6.651   0.741  13.604  0.1304 -1.8339 -0.1761
19655TIP3    H280457   6.533   0.792  13.524  0.8572  0.4025  0.0916
19656TIP3   OH280458   1.728   5.335   0.512 -0.1565  0.6565 -0.5206
19656TIP3    H180459   1.775   5.348   0.429  0.3221 -0.1574 -0.3948
19656TIP3    H280460   1.685   5.250   0.502  2.9436 -1.3667  1.3780
19657TIP3   OH280461   5.461   1.845  11.789 -0.4619 -0.3229 -0.2478
19657TIP3    H180462   5.477   1.843  11.694 -0.3135  0.6060 -0.2446
19657TIP3    H280463   5.388   1.906  11.800  0.1886  0.3690  0.3226
19658TIP3   OH280464   0.774   1.220  15.254  0.3769  0.4935  0.5336
19658TIP3    H180465   0.802   1.131  15.229 -0.2673 -0.3649  2.6102
19658TIP3    H280466   0.743   1.259  15.173  0.0939 -1.4261 -0.3541
19659TIP3   OH280467   3.937   2.533  11.824 -0.2656  0.3878 -0.5617
19659TIP3    H180468   3.915   2.607  11.880 -0.2520  0.0649 -0.1260
19659TIP3    H280469   3.873   2.538  11.753  0.0191  1.0781 -0.7826
19660TIP3   OH280470   4.687   3.707  15.654 -0.4017  0.3628 -0.2225
19660TIP3    H180471   4.705   3.800  15.645 -0.7552  0.4448 -0.1206
19660TIP3    H280472   4.680   3.675  15.564 -1.2700  0.6406 -0.2656
19661TIP3   OH280473   5.543   4.235   4.016 -0.1651  0.2775 -0.6663
19661TIP3    H180474   5.580   4.272   4.096  1.1633 -0.9454 -0.6740
19661TIP3    H280475   5.536   4.309   3.956  2.0588  0.6300 -0.5526
19662TIP3   OH280476   5.005   5.679  16.866  0.6610 -0.3377  0.3771
19662TIP3    H180477   4.991   5.692  16.772  0.1718  2.0220  0.7251
19662TIP3    H280478   4.917   5.670  16.902  0.8466 -1.1997  0.6380
19663TIP3   OH280479   1.968   5.738  12.623 -0.4748 -0.2326  0.1568
19663TIP3    H180480   1.934   5.807  12.680  0.9978  0.1120  0.6599
19663TIP3    H280481   1.956   5.772  12.534 -2.2440 -0.5210  0.2445
19664TIP3   OH280482   3.608   6.474  11.181 -0.3069 -0.1361 -0.2461
19664TIP3    H180483   3.691   6.484  11.135  0.7652  2.6619  2.0080
19664TIP3    H280484   3.541   6.484  11.112  1.1579 -1.1906 -1.9024
19665TIP3   OH280485   1.684   2.542  12.691 -0.5824  0.7952  0.4031
19665TIP3    H180486   1.602   2.564  12.645  0.7599 -0.5390 -2.9424
19665TIP3    H280487   1.742   2.617  12.673  0.6090 -0.5881 -2.0762
19666TIP3   OH280488   5.687   6.010   0.865  0.4258 -0.1442 -0.1565
19666TIP3    H180489   5.782   6.013   0.877  0.4273  0.4697 -0.3057
19666TIP3    H280490   5.654   5.966   0.943  0.8140 -0.1779 -0.0098
19667TIP3   OH280491   3.640   0.403   4.822  0.5840 -0.1615  0.3389
19667TIP3    H180492   3.600   0.447   4.747 -0.3572 -0.6342  0.5533
19667TIP3    H280493   3.605   0.314   4.820  0.6936 -0.2377  1.2272
19668TIP3   OH280494   5.184   1.217  12.505  0.2297  0.1327  0.8805
19668TIP3    H180495   5.098   1.232  12.543 -0.3152  0.6591 -0.5056
19668TIP3    H280496   5.167   1.188  12.416  1.4914  0.6405  0.4464
19669TIP3   OH280497   5.515   0.861  10.955  0.5280 -0.0508  0.2968
19669TIP3    H180498   5.566   0.865  11.036 -2.0968  2.7645  2.0644
19669TIP3    H280499   5.466   0.779  10.961  1.5679 -0.6613  0.6981
19670TIP3   OH280500   1.163   3.597  14.428  0.1944  0.1918 -0.0425
19670TIP3    H180501   1.081   3.646  14.433  0.2838  0.4227 -0.7423
19670TIP3    H280502   1.214   3.641  14.360 -0.1609 -1.4980 -1.4845
19671TIP3   OH280503   1.299   4.315   2.152  0.3717  0.4007 -0.8027
19671TIP3    H180504   1.209   4.308   2.120  0.2496 -1.8427 -0.1782
19671TIP3    H280505   1.352   4.305   2.073  0.0667 -0.3101 -0.9264
19672TIP3   OH280506   5.449   2.392  15.175  0.3361  0.0522 -0.1339
19672TIP3    H180507   5.472   2.418  15.264 -0.0640 -0.0122 -0.0076
19672TIP3    H280508   5.525   2.342  15.144  1.5094  2.0987 -0.7065
19673TIP3   OH280509   1.600   0.456  12.354  0.2683 -0.4708 -0.5078
19673TIP3    H180510   1.647   0.408  12.286  1.7559 -1.1285  0.9331
19673TIP3    H280511   1.566   0.388  12.412  1.0298  0.1262  0.6813
19674TIP3   OH280512   1.215   4.907  11.405  0.7837  0.2739  0.4157
19674TIP3    H180513   1.166   4.862  11.474  1.0169  2.2385  1.9248
19674TIP3    H280514   1.148   4.944  11.348  0.5907 -0.9761 -0.2152
19675TIP3   OH280515   1.259   2.716  15.384 -0.3686 -0.7939 -0.6534
19675TIP3    H180516   1.179   2.663  15.379 -0.4002 -0.6429 -2.2473
19675TIP3    H280517   1.278   2.739  15.293  1.4203 -0.7053 -0.2900
19676TIP3   OH280518   5.896   5.395  14.505 -0.5949  0.1128 -0.1481
19676TIP3    H180519   5.986   5.427  14.497 -0.5136  0.5898  2.0089
19676TIP3    H280520   5.904   5.300  14.501  0.6143 -0.1162  3.6743
19677TIP3   OH280521   0.640   2.436   5.810  0.2306 -0.0718  0.9692
19677TIP3    H180522   0.598   2.513   5.771 -0.2415 -0.1594  1.2997
19677TIP3    H280523   0.646   2.457   5.904  0.7371 -0.1470  0.9564
19678TIP3   OH280524   4.875   5.999  15.412 -0.6129 -0.6558  0.1011
19678TIP3    H180525   4.813   5.932  15.383  0.7577 -2.2703  0.7358
19678TIP3    H280526   4.898   6.047  15.333 -2.1445 -0.4658 -0.2458
19679TIP3   OH280527   4.046   6.416   3.274 -0.1074  0.0359  0.9987
19679TIP3    H180528   3.969   6.452   3.319 -0.3624 -0.4684  0.9757
19679TIP3    H280529   4.025   6.324   3.262  0.7321 -0.2252  1.4782
19680TIP3   OH280530   3.622   3.209   2.302  0.3014 -0.1868 -0.3158
19680TIP3    H180531   3.602   3.218   2.395 -0.7434  0.7436 -0.6140
19680TIP3    H280532   3.538   3.222   2.258  0.8317 -0.3578 -1.4111
19681TIP3   OH280533   4.972   1.514   5.086  0.4385 -0.1907 -0.2099
19681TIP3    H180534   4.884   1.506   5.123  0.0758 -1.7743 -1.3165
19681TIP3    H280535   4.964   1.581   5.019  0.6107  1.1678  1.0576
19682TIP3   OH280536   5.181   4.799   5.299 -0.3529 -0.2147 -0.0028
19682TIP3    H180537   5.260   4.791   5.352  0.0114  0.2578 -0.4560
19682TIP3    H280538   5.200   4.871   5.239 -0.6151 -0.9695 -1.0201
19683TIP3   OH280539   0.003   1.696   3.188 -0.1253  0.3446  0.0084
19683TIP3    H180540  -0.037   1.610   3.202  2.6561 -1.3363 -1.3983
19683TIP3    H280541   0.000   1.737   3.275 -0.7139 -1.5516  0.9586
19684TIP3   OH280542   5.903   0.038  14.463 -0.4354  0.1369  0.1497
19684TIP3    H180543   5.950   0.102  14.516 -0.4509  0.3259 -0.0607
19684TIP3    H280544   5.850  -0.011  14.525  0.5951 -0.5811  0.5003
19685TIP3   OH280545   5.141   1.990  15.088 -0.0995 -0.2188 -0.5998
19685TIP3    H180546   5.072   1.974  15.024  1.5941  1.1867 -2.9297
19685TIP3    H280547   5.117   1.935  15.163 -1.9467 -2.3345 -2.5703
19686TIP3   OH280548   1.316   1.197   5.103  0.4273 -0.2626  0.4560
19686TIP3    H180549   1.293   1.275   5.154  2.3295  0.0547  0.9011
19686TIP3    H280550   1.332   1.129   5.169 -0.2558 -0.7659  0.1151
19687TIP3   OH280551   5.115   1.313   0.293  0.0001 -0.6056  0.5885
19687TIP3    H180552   5.203   1.288   0.319  0.8173  0.6591 -0.7669
19687TIP3    H280553   5.090   1.381   0.355  1.0158  0.7706 -0.4279
19688TIP3   OH280554   4.404   0.809   0.393  0.9288 -0.7527  0.6151
19688TIP3    H180555   4.364   0.722   0.383  1.0842 -0.6393 -1.4708
19688TIP3    H280556   4.451   0.823   0.311  3.6091 -0.0037  2.1522
19689TIP3   OH280557   0.481   6.396  16.848  0.3355  0.1240 -0.6995
19689TIP3    H180558   0.401   6.352  16.821  1.0513 -0.2691 -2.2845
19689TIP3    H280559   0.453   6.484  16.873 -0.4629  0.3993 -2.4304
19690TIP3   OH280560   6.147   2.476   5.277 -0.3172 -0.1045 -0.7186
19690TIP3    H180561   6.057   2.459   5.304  0.0959 -1.7636 -0.2717
19690TIP3    H280562   6.166   2.408   5.213  0.5906  0.2938 -0.8883
19691TIP3   OH280563   5.373   0.812  15.329  0.1537 -0.3901  0.5267
19691TIP3    H180564   5.361   0.724  15.363  0.1393 -0.7320 -0.3486
19691TIP3    H280565   5.285   0.840  15.303  0.4550 -1.0148 -1.3220
19692TIP3   OH280566   4.654   6.050  11.923 -0.2360  0.5866 -0.4681
19692TIP3    H180567   4.641   6.142  11.901  1.4013  0.5089 -1.9900
19692TIP3    H280568   4.678   6.051  12.016  0.5725  1.7772 -0.6688
19693TIP3   OH280569   3.546   6.346  16.046 -0.2088 -0.3176 -0.3368
19693TIP3    H180570   3.498   6.343  16.129  1.0209  0.1937  0.4078
19693TIP3    H280571   3.594   6.264  16.043  0.7006  0.1829  0.0621
19694TIP3   OH280572   1.046   0.463  11.349 -0.2665  0.1131  0.2674
19694TIP3    H180573   1.046   0.390  11.286 -2.1171  0.3733 -0.0950
19694TIP3    H280574   0.970   0.446  11.405  0.2410  0.9119  1.2207
19695TIP3   OH280575   6.777   1.767   1.992  0.2293  0.5104 -0.3166
19695TIP3    H180576   6.701   1.825   2.000 -0.4385 -0.4304  0.3388
19695TIP3    H280577   6.781   1.721   2.076  0.0740 -1.2169 -1.2328
19696TIP3   OH280578   1.989   4.968   4.761  0.2162  0.0129 -0.5394
19696TIP3    H180579   1.973   5.000   4.850  0.8907 -0.3274 -0.2895
19696TIP3    H280580   1.902   4.964   4.721 -0.4555 -2.3707  0.9552
19697TIP3   OH280581   3.316   2.419   1.353 -0.0194  0.4664 -0.6026
19697TIP3    H180582   3.374   2.495   1.356  0.3420  0.1693  0.0128
19697TIP3    H280583   3.353   2.364   1.284  0.5823  0.1648 -0.0496
19698TIP3   OH280584   4.611   5.586   4.966  0.3678 -0.1229  0.2195
19698TIP3    H180585   4.622   5.646   4.892  1.5422 -0.0454  0.4377
19698TIP3    H280586   4.552   5.632   5.026  1.3624  0.9106  0.4492
19699TIP3   OH280587   6.154   4.895   4.377 -0.3162  0.1981  0.4062
19699TIP3    H180588   6.183   4.961   4.441  0.9595  1.4799 -1.3839
19699TIP3    H280589   6.121   4.946   4.304 -1.8661 -1.2433  0.0404
19700TIP3   OH280590   5.120   3.794  14.750 -0.2836 -0.1534  0.5996
19700TIP3    H180591   5.030   3.824  14.742 -0.5555 -1.2803 -1.0517
19700TIP3    H280592   5.173   3.867  14.717 -0.6777 -0.0080  0.2939
19701TIP3   OH280593   2.342   3.466  17.259 -0.2425 -0.3574 -0.5597
19701TIP3    H180594   2.337   3.557  17.229 -0.1148 -0.3243 -0.4816
19701TIP3    H280595   2.284   3.463  17.335  0.2321 -0.1882 -0.1854
19702TIP3   OH280596   4.210   6.066   3.001  0.2394 -0.0448 -0.2225
19702TIP3    H180597   4.197   6.159   3.019  0.0072 -0.2890  0.9442
19702TIP3    H280598   4.303   6.050   3.019  0.5082  0.1441 -1.3520
19703TIP3   OH280599   6.518   1.101   0.480  0.0087 -0.1862 -0.3874
19703TIP3    H180600   6.531   1.162   0.553 -1.2032 -0.8676  0.4311
19703TIP3    H280601   6.486   1.157   0.409  0.9674  0.4517 -0.3338
19704TIP3   OH280602   0.270   6.480  16.509 -0.1219  0.1211 -0.2655
19704TIP3    H180603   0.221   6.521  16.437  0.6417 -1.1979 -1.5949
19704TIP3    H280604   0.314   6.553  16.552 -0.8733  0.9867 -0.9072
19705TIP3   OH280605   5.649   0.141  15.003 -0.1970  0.5794  0.1435
19705TIP3    H180606   5.573   0.198  15.014 -0.1009  0.9023 -0.8483
19705TIP3    H280607   5.708   0.166  15.074 -1.1289  0.1252  1.1050
19706TIP3   OH280608   0.374   5.188   0.959  0.2127 -0.5527  0.2119
19706TIP3    H180609   0.415   5.275   0.963  2.0553 -1.3886  0.6144
19706TIP3    H280610   0.445   5.128   0.980 -1.2573 -2.1088  0.9152
19707TIP3   OH280611   1.501   4.950  17.073 -0.2751 -0.2638 -0.1511
19707TIP3    H180612   1.546   4.933  17.156  1.0847 -0.8838 -0.9908
19707TIP3    H280613   1.524   4.876  17.017 -1.8511 -0.2800 -0.8275
19708TIP3   OH280614   6.214   1.895  17.075 -0.3329 -0.4308 -0.8991
19708TIP3    H180615   6.231   1.983  17.108 -0.1934  0.5631 -3.4102
19708TIP3    H280616   6.118   1.888  17.074 -0.3652 -1.1654  1.2157
19709TIP3   OH280617   4.809   5.692  14.034 -0.5570  0.2376  0.5325
19709TIP3    H180618   4.757   5.675  13.955 -1.1514  0.3604  0.8928
19709TIP3    H280619   4.823   5.786  14.034  1.1229  0.0404 -0.4538
19710TIP3   OH280620   4.108   2.186   1.500 -0.4835 -0.0725  0.0166
19710TIP3    H180621   4.044   2.252   1.526 -0.3035 -0.0149  0.3092
19710TIP3    H280622   4.188   2.209   1.547  0.0264  0.3794 -1.0342
19711TIP3   OH280623   1.778   3.151  12.395 -0.1074  0.3671 -0.3843
19711TIP3    H180624   1.825   3.202  12.329 -1.2503 -0.1497 -1.6422
19711TIP3    H280625   1.691   3.190  12.398  0.1871  1.0069  1.5682
19712TIP3   OH280626   4.627   1.477  16.627  0.3711 -0.3444  0.2468
19712TIP3    H180627   4.627   1.557  16.681  0.8173  0.6769 -1.2006
19712TIP3    H280628   4.719   1.461  16.609  0.4415 -2.2277  1.9067
19713TIP3   OH280629   2.751   3.100  13.034 -0.1482 -0.3637  0.6735
19713TIP3    H180630   2.703   3.019  13.047 -0.2995 -0.2346  0.9238
19713TIP3    H280631   2.775   3.100  12.942 -0.7123 -0.3843  0.5252
19714TIP3   OH280632   1.108   0.345  10.398  0.1713 -0.7234 -0.2069
19714TIP3    H180633   1.047   0.319  10.329 -1.1624 -2.0840  1.3788
19714TIP3    H280634   1.061   0.413  10.447  1.7561  1.4301 -1.5286
19715TIP3   OH280635   1.986   2.001   5.917 -0.1529  0.0518  0.0086
19715TIP3    H180636   2.035   1.971   5.840  1.0026  1.2415  0.2654
19715TIP3    H280637   2.011   1.940   5.986  0.0867 -0.0263 -0.1454
19716TIP3   OH280638   2.353   2.273   4.775  0.2822 -0.4392  0.1783
19716TIP3    H180639   2.271   2.302   4.735  0.2653 -0.6116  0.0872
19716TIP3    H280640   2.417   2.276   4.704  1.1573  2.8342  0.9202
19717TIP3   OH280641   5.992   0.896   2.287  0.5653  0.3952 -0.6602
19717TIP3    H180642   5.984   0.940   2.202 -3.6688  1.2541 -0.0482
19717TIP3    H280643   5.949   0.811   2.274  0.6866  0.1532  0.4164
19718TIP3   OH280644   0.979   1.492  13.556  0.0076  0.2105 -0.1728
19718TIP3    H180645   0.984   1.485  13.461  1.3910  0.1336 -0.1155
19718TIP3    H280646   0.891   1.527  13.573  0.3147  1.7860 -1.5693
19719TIP3   OH280647   6.184   3.617   4.817  0.8309 -0.0591  0.4922
19719TIP3    H180648   6.276   3.622   4.842  0.3301 -1.1730  2.8732
19719TIP3    H280649   6.136   3.620   4.900 -1.4508  2.5745 -0.7619
19720TIP3   OH280650   0.408   0.458  10.977 -0.2888 -0.0125 -0.1419
19720TIP3    H180651   0.326   0.500  10.955  0.0629  0.5082 -0.4714
19720TIP3    H280652   0.474   0.504  10.925 -0.1224 -2.2128 -2.0430
19721TIP3   OH280653   1.090   1.330  13.283  0.1942 -0.1203 -0.5861
19721TIP3    H180654   1.092   1.311  13.189 -2.8675 -2.4074 -0.3127
19721TIP3    H280655   1.130   1.253  13.324  0.1892  0.2085  0.0493
19722TIP3   OH280656   3.112   0.902  11.743  1.0512  0.1287  0.9862
19722TIP3    H180657   3.086   0.851  11.819  0.0803  0.6862  1.0572
19722TIP3    H280658   3.177   0.964  11.776  0.2504  0.7201  1.4990
19723TIP3   OH280659   2.919   6.151  14.817 -0.2589 -0.4603 -0.5944
19723TIP3    H180660   2.922   6.237  14.858 -0.7452 -0.3341 -0.8109
19723TIP3    H280661   2.843   6.108  14.856 -0.3421 -0.5809 -0.8860
19724TIP3   OH280662   4.537   0.911   4.609  0.0289 -0.0367 -0.0696
19724TIP3    H180663   4.614   0.932   4.662 -2.4514  1.7076  3.2310
19724TIP3    H280664   4.524   0.989   4.554 -0.1997  0.2912  0.4479
19725TIP3   OH280665   4.243   1.070  11.065  0.6320  0.1060  0.3254
19725TIP3    H180666   4.274   1.112  10.985 -1.1421  0.0189 -0.4539
19725TIP3    H280667   4.300   1.103  11.134  2.4327 -0.0924 -1.0081
19726TIP3   OH280668   0.340   2.288   5.656  0.6385  0.3396  0.1538
19726TIP3    H180669   0.390   2.206   5.653 -0.7824 -0.5386 -1.2173
19726TIP3    H280670   0.250   2.259   5.672  0.2678  1.7316  0.6724
19727TIP3   OH280671   2.302   3.655  13.655 -0.2696 -0.0545 -0.0919
19727TIP3    H180672   2.222   3.638  13.605 -0.0119 -1.7098 -0.0028
19727TIP3    H280673   2.332   3.740  13.624 -1.2719 -0.0730 -1.1913
19728TIP3   OH280674   2.278   1.697   4.230  0.2623  0.2006  0.1631
19728TIP3    H180675   2.333   1.769   4.261 -0.0834 -0.7085  3.2872
19728TIP3    H280676   2.192   1.714   4.267 -0.7956 -0.0549 -2.0119
19729TIP3   OH280677   6.002   3.352   2.474 -0.0801 -0.5837  0.0313
19729TIP3    H180678   5.946   3.310   2.539  0.9189  0.0401  1.3594
19729TIP3    H280679   5.990   3.446   2.489  1.2028 -0.4355  0.2828
19730TIP3   OH280680   5.179   1.063   3.467 -0.0605  0.2373  0.0703
19730TIP3    H180681   5.212   1.136   3.413 -0.0652  2.9242  3.3366
19730TIP3    H280682   5.090   1.049   3.436 -0.1207  1.7863 -0.5877
19731TIP3   OH280683   6.434   0.324  11.010  0.2356 -0.4536  0.2510
19731TIP3    H180684   6.370   0.380  11.055 -2.8523 -0.8475 -3.2004
19731TIP3    H280685   6.478   0.383  10.948 -1.7180 -1.3074 -2.0934
19732TIP3   OH280686   5.570   4.911   6.111 -0.5653 -1.1005  0.3628
19732TIP3    H180687   5.498   4.971   6.131 -0.1816 -0.3784 -0.3701
19732TIP3    H280688   5.602   4.883   6.196 -0.0028  0.6399  0.7735
19733TIP3   OH280689   1.519   2.572  12.196  0.3485 -0.7113  0.0456
19733TIP3    H180690   1.578   2.622  12.140  2.2214 -2.3709  0.4288
19733TIP3    H280691   1.489   2.500  12.140  1.2069 -1.6458  0.7627
19734TIP3   OH280692   3.114   0.586   1.476  0.6084 -0.0768  0.9067
19734TIP3    H180693   3.045   0.599   1.411  1.9376 -0.3286 -0.6296
19734TIP3    H280694   3.181   0.650   1.452  2.2384 -1.8992  0.4070
19735TIP3   OH280695   2.638   2.466  14.292  0.9710  0.4047  0.1304
19735TIP3    H180696   2.634   2.554  14.254  1.2720  0.1285 -0.5638
19735TIP3    H280697   2.687   2.415  14.228 -0.8201 -0.7336 -0.4206
19736TIP3   OH280698   4.282   1.608   3.516  0.1319  0.0110  0.6361
19736TIP3    H180699   4.369   1.627   3.551 -0.3503  2.1302  0.8361
19736TIP3    H280700   4.292   1.525   3.470  2.3343  0.3556  0.3819
19737TIP3   OH280701   5.115   1.483   4.305  0.2912  0.1546 -0.0408
19737TIP3    H180702   5.127   1.567   4.348  0.8397 -0.3206  0.7642
19737TIP3    H280703   5.022   1.463   4.316  0.6824 -0.6989  2.4222
19738TIP3   OH280704   4.730   1.999   2.216  0.3072 -0.1619  0.8014
19738TIP3    H180705   4.652   1.976   2.266  0.8820 -1.0195  1.3238
19738TIP3    H280706   4.803   1.968   2.270  1.0053  0.4744  0.2410
19739TIP3   OH280707   6.248   0.630  16.436  0.5226  0.5519 -0.2084
19739TIP3    H180708   6.308   0.561  16.408  1.5393  1.6514 -0.8635
19739TIP3    H280709   6.179   0.630  16.371 -0.1112 -0.5837  0.4322
19740TIP3   OH280710   2.536   5.571   5.236  0.0478 -0.2030  0.2473
19740TIP3    H180711   2.580   5.635   5.291  1.8791 -1.3754  0.2422
19740TIP3    H280712   2.494   5.511   5.297 -0.3889  0.1528  0.2938
19741TIP3   OH280713   3.230   0.467  15.348 -0.2627 -0.3648  0.1095
19741TIP3    H180714   3.306   0.454  15.292  0.9476 -0.5927  1.7438
19741TIP3    H280715   3.225   0.562  15.360  0.7354 -0.4363  1.2450
19742TIP3   OH280716   5.061   0.566   3.465  0.1354 -0.1105 -0.0106
19742TIP3    H180717   5.058   0.655   3.500 -0.1022 -0.2934  0.4526
19742TIP3    H280718   5.132   0.523   3.513 -1.6258 -1.0322  1.9557
19743TIP3   OH280719   4.698   3.901   5.655 -0.5588  0.0274 -0.4696
19743TIP3    H180720   4.727   3.821   5.698 -0.0173  1.2192  1.4736
19743TIP3    H280721   4.769   3.964   5.669 -1.5956  1.2860 -0.6411
19744TIP3   OH280722   0.923   4.691  16.998  0.0042 -0.4909  0.1146
19744TIP3    H180723   0.983   4.638  16.945 -0.0793 -0.3320 -0.1426
19744TIP3    H280724   0.938   4.662  17.088  1.4304  0.4866  0.2074
19745TIP3   OH280725   2.600   2.213   0.629  0.0353 -0.5593 -0.3631
19745TIP3    H180726   2.596   2.124   0.663 -1.0693 -0.3574  0.0807
19745TIP3    H280727   2.514   2.227   0.589  0.4020  0.1153 -0.9386
19746TIP3   OH280728   5.880   4.362   2.258 -0.5117  0.3232  0.8066
19746TIP3    H180729   5.931   4.303   2.202  0.3893  0.8385  1.0529
19746TIP3    H280730   5.947   4.414   2.304 -1.2073 -0.3340  2.6280
19747TIP3   OH280731   6.733   6.027  14.811 -0.3528  0.0913 -0.2958
19747TIP3    H180732   6.735   5.972  14.732 -0.9768 -0.4168  0.0367
19747TIP3    H280733   6.791   5.982  14.872 -0.5716  0.0001 -0.1541
19748TIP3   OH280734   0.942   0.381   2.735 -0.0425 -0.0085  0.1315
19748TIP3    H180735   1.030   0.374   2.772 -0.4886  0.4942  1.3323
19748TIP3    H280736   0.936   0.309   2.672  1.0216 -0.3968  0.4667
19749TIP3   OH280737   3.357   1.228   5.657 -0.4146  0.0363 -0.1034
19749TIP3    H180738   3.367   1.148   5.710  0.5882 -0.6097 -1.2168
19749TIP3    H280739   3.325   1.196   5.572 -0.7165  0.9075 -0.3214
19750TIP3   OH280740   0.326   1.559   4.193  0.1460 -0.2116 -0.1295
19750TIP3    H180741   0.309   1.580   4.101  2.6616  2.7462 -0.0410
19750TIP3    H280742   0.266   1.615   4.242  1.0745  0.6471  0.0397
19751TIP3   OH280743   4.973   1.269  15.321  0.5455  0.5084  0.7792
19751TIP3    H180744   4.983   1.220  15.239  0.9564 -0.0276  1.1414
19751TIP3    H280745   5.063   1.294  15.344  0.3187  1.6354  0.4826
19752TIP3   OH280746   1.294   5.607  16.609  0.3428 -0.0860 -0.6823
19752TIP3    H180747   1.255   5.521  16.596 -1.5443  0.5147  0.5320
19752TIP3    H280748   1.381   5.589  16.646  1.1596 -1.4602 -3.0463
19753TIP3   OH280749   5.705   0.836   0.199  0.6702 -0.0336  0.0323
19753TIP3    H180750   5.652   0.862   0.124  0.1191 -0.6791  0.1841
19753TIP3    H280751   5.665   0.754   0.229  0.4906  0.5383  1.4286
19754TIP3   OH280752   1.494   0.622   4.640 -0.0233 -0.2765 -0.3933
19754TIP3    H180753   1.469   0.689   4.578  3.4098  1.3541 -0.2782
19754TIP3    H280754   1.590   0.617   4.633  0.1820 -2.7362  2.0592
19755TIP3   OH280755   6.142   2.739   1.458 -0.6838  0.3590  0.6850
19755TIP3    H180756   6.126   2.688   1.537 -1.9316  0.3443  0.4468
19755TIP3    H280757   6.066   2.720   1.402  0.5848 -0.3187 -0.8787
19756TIP3   OH280758   6.250   4.165  11.477  0.2533 -0.5345  0.1450
19756TIP3    H180759   6.283   4.090  11.527  0.6825 -0.6420 -0.2942
19756TIP3    H280760   6.205   4.125  11.402 -0.1819 -0.3687  0.3124
19757TIP3   OH280761   5.534   4.316  16.682 -0.1421 -0.0828  0.0747
19757TIP3    H180762   5.506   4.235  16.639  0.7792 -1.2986  1.6622
19757TIP3    H280763   5.623   4.331  16.649  0.2145 -0.5093  0.8109
19758TIP3   OH280764   2.912   6.680   2.324  0.0474  0.3319 -0.2960
19758TIP3    H180765   2.983   6.626   2.288 -1.4228 -0.9548 -1.4195
19758TIP3    H280766   2.903   6.650   2.414 -0.7092 -1.3850 -0.8843
19759TIP3   OH280767   2.808   5.860  13.977  0.1391 -0.7661  0.1062
19759TIP3    H180768   2.820   5.904  13.893  1.1300 -3.3384 -1.1946
19759TIP3    H280769   2.718   5.827  13.974 -0.8739  1.6013  1.4025
19760TIP3   OH280770   6.023   3.197   4.956  0.0409  0.5849  0.4508
19760TIP3    H180771   5.996   3.258   4.888 -1.5606 -0.2639  0.2785
19760TIP3    H280772   6.085   3.139   4.913 -1.2309 -0.1727 -0.4325
19761TIP3   OH280773   2.278   3.391   1.778 -0.3236  0.5670  0.5536
19761TIP3    H180774   2.213   3.327   1.750  1.1467 -1.0610  0.6733
19761TIP3    H280775   2.256   3.411   1.868 -0.4776 -0.2239  0.6944
19762TIP3   OH280776   6.512   5.471  16.940 -0.6357 -0.3808 -0.0114
19762TIP3    H180777   6.519   5.567  16.940  0.2084 -0.4325  0.3165
19762TIP3    H280778   6.565   5.443  16.866 -1.4082 -0.5767 -0.5071
19763TIP3   OH280779   2.759   5.527   4.549 -0.2759 -0.1124 -0.6555
19763TIP3    H180780   2.710   5.466   4.494  1.0016 -0.8512 -1.0230
19763TIP3    H280781   2.715   5.524   4.634 -0.7245 -0.9231 -0.9071
19764TIP3   OH280782   2.025   4.995  14.377  0.3438  0.5720 -0.0110
19764TIP3    H180783   2.116   4.967  14.388 -0.1179 -1.4412 -0.9059
19764TIP3    H280784   2.028   5.060  14.306  1.1786  1.2510  0.6256
19765TIP3   OH280785   5.427   5.426   4.606  0.1676  0.1959 -0.0755
19765TIP3    H180786   5.465   5.340   4.590 -0.2312 -0.5076  2.3417
19765TIP3    H280787   5.335   5.418   4.582  0.0924 -0.1385  0.3031
19766TIP3   OH280788   6.432   6.294   5.381 -0.0295  0.0285 -0.0489
19766TIP3    H180789   6.340   6.271   5.367 -0.2173  1.8118 -2.2279
19766TIP3    H280790   6.432   6.342   5.464 -0.8840 -0.6626  0.3782
19767TIP3   OH280791   1.728   5.191  12.671 -0.1094 -0.3355  0.3183
19767TIP3    H180792   1.681   5.244  12.606  0.5088  0.4934  0.5418
19767TIP3    H280793   1.759   5.115  12.621  0.4735  0.3591 -0.4045
19768TIP3   OH280794   5.729   6.276   6.329  0.7027  0.0971  0.4314
19768TIP3    H180795   5.695   6.231   6.407  0.9943  0.6595  0.8899
19768TIP3    H280796   5.675   6.243   6.257  0.6075 -0.6353  0.8280
19769TIP3   OH280797   5.405   4.220  12.399 -0.1925 -0.3078 -0.0512
19769TIP3    H180798   5.402   4.139  12.450  1.9072  0.9833  2.3363
19769TIP3    H280799   5.315   4.233  12.370 -1.0146 -2.3138  1.3775
19770TIP3   OH280800   6.216   1.684  12.456  0.0099 -0.4111 -0.1411
19770TIP3    H180801   6.290   1.696  12.515 -0.1106  0.0086 -0.0716
19770TIP3    H280802   6.251   1.704  12.369 -0.1417  0.3014 -0.0484
19771TIP3   OH280803   0.229   0.643  13.683 -0.5377  0.0867  0.0138
19771TIP3    H180804   0.136   0.666  13.674 -0.5721  0.2408  0.7121
19771TIP3    H280805   0.260   0.697  13.756 -0.0701 -0.4693  0.2337
19772TIP3   OH280806   6.135   1.369   0.392 -0.2141  0.2105  0.3366
19772TIP3    H180807   6.154   1.301   0.456  0.7470  0.6682  0.5533
19772TIP3    H280808   6.053   1.340   0.350  1.3162 -2.3076 -1.2100
19773TIP3   OH280809   4.975   1.691   1.886  0.1662  0.0414 -0.0576
19773TIP3    H180810   5.039   1.734   1.829 -2.1677 -0.0413 -2.9041
19773TIP3    H280811   4.910   1.759   1.904 -0.4380 -0.6671  0.4564
19774TIP3   OH280812   4.011   2.537   0.026  0.1098 -0.2359 -0.2032
19774TIP3    H180813   3.968   2.451   0.015 -0.2376  0.0142 -0.8406
19774TIP3    H280814   3.957   2.597  -0.025  1.7376 -0.0631 -1.8169
19775TIP3   OH280815   5.204   0.999  13.875 -0.0088 -0.1212 -0.3111
19775TIP3    H180816   5.297   1.011  13.897  0.2418 -1.5148 -0.5266
19775TIP3    H280817   5.205   0.941  13.799 -1.0834 -0.6729  0.0858
19776TIP3   OH280818   2.595   2.890  14.450 -0.1047  0.4026  0.5696
19776TIP3    H180819   2.500   2.902  14.449 -0.5197 -2.3188  0.0371
19776TIP3    H280820   2.610   2.812  14.503  1.5185 -1.0057 -1.7521
19777TIP3   OH280821   1.147   0.926   0.654  0.3283 -0.1906 -0.5488
19777TIP3    H180822   1.208   0.982   0.703  0.4399 -0.5297 -0.3016
19777TIP3    H280823   1.066   0.977   0.651  0.6218  0.2681 -0.8896
19778TIP3   OH280824   0.439   5.298  15.932 -0.1394  0.4729 -1.3167
19778TIP3    H180825   0.503   5.350  15.980  0.7845  0.4884 -2.5257
19778TIP3    H280826   0.473   5.209  15.935 -0.3317  0.3899 -1.5183
19779TIP3   OH280827   5.675   2.410  10.444  0.0244 -0.1486  0.7066
19779TIP3    H180828   5.612   2.465  10.397 -0.1248 -1.3196 -0.5260
19779TIP3    H280829   5.717   2.469  10.507 -0.5593  1.2137 -0.1460
19780TIP3   OH280830   6.607   5.602   4.518 -0.2486  0.2774  0.5616
19780TIP3    H180831   6.561   5.527   4.480  0.7052 -0.1877  0.3024
19780TIP3    H280832   6.633   5.572   4.605  0.8058  0.0213  0.1689
19781TIP3   OH280833   4.565   2.707  10.925 -1.0191  0.2792  0.1018
19781TIP3    H180834   4.482   2.683  10.883  0.2296 -3.0274 -0.7959
19781TIP3    H280835   4.632   2.684  10.860  0.6852  1.8437  1.2172
19782TIP3   OH280836   5.898   1.901  15.566 -0.8771 -0.5833  0.0528
19782TIP3    H180837   5.844   1.824  15.580 -0.8491 -0.6912 -0.4158
19782TIP3    H280838   5.901   1.944  15.651 -0.4113 -1.4109  0.4623
19783TIP3   OH280839   2.840   6.307  11.847 -0.5374  0.0060  0.3916
19783TIP3    H180840   2.936   6.308  11.846 -0.4590 -1.4798 -2.2491
19783TIP3    H280841   2.816   6.221  11.813 -2.8209  0.4058  0.8272
19784TIP3   OH280842   6.020   2.944   3.635 -0.0598  0.3716 -0.2817
19784TIP3    H180843   5.958   2.915   3.569 -0.5819  0.1022  0.3217
19784TIP3    H280844   6.035   3.037   3.614  0.3905  0.0899 -1.2438
19785TIP3   OH280845   3.209   4.035  10.936 -0.1916  0.3772 -0.4372
19785TIP3    H180846   3.256   4.042  11.018 -1.8798 -0.0354  0.6290
19785TIP3    H280847   3.179   4.124  10.916  0.6002  0.5554 -0.8634
19786TIP3   OH280848   2.482   1.081  10.660  0.0633  0.5809 -0.4227
19786TIP3    H180849   2.386   1.082  10.658  0.0281 -0.2531 -0.0722
19786TIP3    H280850   2.509   1.133  10.585 -0.6712  0.3542 -0.8565
19787TIP3   OH280851   3.473   1.898   5.048  0.0310  0.8649 -0.3072
19787TIP3    H180852   3.551   1.845   5.060  0.2120  0.7045 -1.9859
19787TIP3    H280853   3.400   1.836   5.054  0.1197  0.7649 -0.2689
19788TIP3   OH280854   5.189   1.546   6.419 -0.1622  0.0114  0.0519
19788TIP3    H180855   5.258   1.483   6.441  0.1173 -0.1079 -1.1255
19788TIP3    H280856   5.116   1.522   6.476  0.2876 -0.7373  0.3252
19789TIP3   OH280857   6.483   1.135  12.109 -0.9657 -0.3307 -0.7280
19789TIP3    H180858   6.453   1.088  12.186  1.1850 -2.7729 -1.2517
19789TIP3    H280859   6.497   1.225  12.139 -1.9512 -0.7776  1.1963
19790TIP3   OH280860   0.837   3.065  11.695 -0.8068  0.5789 -0.3415
19790TIP3    H180861   0.924   3.036  11.722 -1.2762 -1.5926 -0.9508
19790TIP3    H280862   0.846   3.159  11.680  1.4541  0.3758 -0.5002
19791TIP3   OH280863   0.530   5.707   0.722 -0.3425  0.4768  0.7946
19791TIP3    H180864   0.608   5.755   0.695 -1.0448  0.7646 -0.8043
19791TIP3    H280865   0.477   5.771   0.769 -0.5954  0.8887 -0.0313
19792TIP3   OH280866   2.661   1.798  14.275 -0.1303  0.2649 -0.5794
19792TIP3    H180867   2.703   1.715  14.255  1.8687  0.9798  0.3623
19792TIP3    H280868   2.596   1.777  14.341  0.6879 -0.4999  0.0019
19793TIP3   OH280869   0.393   5.087   3.993 -0.7131  0.2680  0.0089
19793TIP3    H180870   0.322   5.145   4.018 -0.2808  0.2336  1.4038
19793TIP3    H280871   0.469   5.145   3.982 -0.5532  0.1069  0.2534
19794TIP3   OH280872   1.658   5.570  11.736  0.1219 -0.4146 -0.5776
19794TIP3    H180873   1.625   5.627  11.666  1.1751  0.0406 -0.7297
19794TIP3    H280874   1.609   5.489  11.726 -1.4606  0.4618 -0.3311
19795TIP3   OH280875   6.289   3.919   3.669  0.2926 -0.6183 -0.3655
19795TIP3    H180876   6.310   3.835   3.711  1.4276  0.4244  1.2549
19795TIP3    H280877   6.259   3.975   3.740 -2.6095 -0.2396 -1.7460
19796TIP3   OH280878   2.963   3.724   0.234  0.3427  0.5091  0.0523
19796TIP3    H180879   2.925   3.649   0.278 -0.3037  0.7361 -0.0995
19796TIP3    H280880   3.057   3.713   0.243  0.2338  0.3519  1.1533
19797TIP3   OH280881   2.284   2.306   5.510  0.1400 -0.0639 -0.1518
19797TIP3    H180882   2.330   2.237   5.557  2.7950  1.2082 -0.7425
19797TIP3    H280883   2.290   2.382   5.567  1.3849  0.8898 -1.5166
19798TIP3   OH280884   5.800   4.877  16.305  0.0521 -0.4649  0.4150
19798TIP3    H180885   5.801   4.896  16.399  1.0283 -0.7424  0.4684
19798TIP3    H280886   5.708   4.888  16.280 -0.3268 -0.9551  1.5087
19799TIP3   OH280887   5.769   5.616   5.911  0.5752  0.3994 -0.3516
19799TIP3    H180888   5.707   5.672   5.959  1.5914  1.3583 -0.1033
19799TIP3    H280889   5.830   5.678   5.871  2.0298 -0.5370  0.3293
19800TIP3   OH280890   4.554   0.054  11.762 -0.2483  0.3034  0.1764
19800TIP3    H180891   4.608   0.130  11.786 -0.7289  0.0444  2.2359
19800TIP3    H280892   4.549   0.058  11.666  0.8777  2.0677  0.1418
19801TIP3   OH280893   2.978   1.701  10.474 -0.1278 -0.1327 -0.0544
19801TIP3    H180894   2.940   1.655  10.399  0.1519 -1.2150  0.4624
19801TIP3    H280895   2.933   1.664  10.550 -0.9161  1.4521  0.2989
19802TIP3   OH280896   2.675   3.233   2.331 -0.2639  0.0875 -0.6825
19802TIP3    H180897   2.642   3.201   2.415  2.6539 -0.6111  0.3427
19802TIP3    H280898   2.663   3.328   2.335 -0.3236  0.0434  0.4796
19803TIP3   OH280899   1.783   0.718  14.235 -0.5403 -0.2620  0.1943
19803TIP3    H180900   1.826   0.800  14.260 -0.6406  0.3975 -1.6464
19803TIP3    H280901   1.805   0.657  14.305 -1.7341  1.7141  2.4142
19804TIP3   OH280902   3.914   3.614   1.409 -0.1399  0.7692  0.4939
19804TIP3    H180903   3.925   3.533   1.360 -1.6423  1.2892 -0.8168
19804TIP3    H280904   3.999   3.657   1.406  0.9886 -1.2241  2.1667
19805TIP3   OH280905   5.943   6.689   3.199  0.0215 -0.5750  0.3349
19805TIP3    H180906   5.971   6.713   3.287 -0.1587  0.8054  0.0370
19805TIP3    H280907   6.008   6.623   3.171  2.7871  2.0969 -0.1116
19806TIP3   OH280908   1.297   3.386  13.976  0.4657 -0.0256  0.2597
19806TIP3    H180909   1.350   3.389  14.056 -1.4038 -0.4133  1.6092
19806TIP3    H280910   1.256   3.473  13.972  1.3095  0.3376 -0.8704
19807TIP3   OH280911   4.377   0.445  14.664 -0.1142 -0.0186 -0.0543
19807TIP3    H180912   4.286   0.457  14.691 -0.0491 -0.9636  0.6412
19807TIP3    H280913   4.389   0.350  14.662  0.8367  0.0974 -0.1944
19808TIP3   OH280914   3.065   2.816  14.058  0.1304 -0.5003  0.6390
19808TIP3    H180915   3.029   2.775  13.979  1.4236 -0.1924 -0.1285
19808TIP3    H280916   2.994   2.871  14.090  0.0523  0.5528 -1.1725
19809TIP3   OH280917   1.062   0.554  11.644  0.1311  0.6570  0.0337
19809TIP3    H180918   1.044   0.646  11.626  1.2915  1.0066  0.5529
19809TIP3    H280919   0.990   0.507  11.602 -0.6915  1.8114  0.0915
19810TIP3   OH280920   6.667   5.881  12.191 -0.1122  0.4461 -0.4284
19810TIP3    H180921   6.697   5.849  12.106 -0.3467  0.3469 -0.4740
19810TIP3    H280922   6.719   5.960  12.206 -0.7733  1.0435 -1.1345
19811TIP3   OH280923   2.556   6.155  12.691  0.0392 -0.5657  0.2452
19811TIP3    H180924   2.486   6.112  12.643 -0.7106  0.2624  0.5568
19811TIP3    H280925   2.543   6.128  12.782  1.5124 -2.2110  0.0258
19812TIP3   OH280926   2.707   2.619   4.582  0.1380 -0.9213  0.3229
19812TIP3    H180927   2.669   2.533   4.568 -1.7877 -0.1186  0.2720
19812TIP3    H280928   2.681   2.669   4.504  2.3355 -0.6218 -0.2851
19813TIP3   OH280929   0.955   5.476   1.546 -0.4142 -0.2866 -0.3142
19813TIP3    H180930   0.999   5.560   1.532  1.0610 -0.7710  1.0926
19813TIP3    H280931   0.969   5.457   1.638 -3.3227 -0.6838  0.1521
19814TIP3   OH280932   2.052   2.109  16.138 -0.3904  0.5215  0.1841
19814TIP3    H180933   2.065   2.072  16.226 -1.7914  0.8071  0.5294
19814TIP3    H280934   2.074   2.038  16.079 -0.6259 -0.0726  0.7968
19815TIP3   OH280935   1.890   2.185   0.892  0.1650 -0.1643  0.2426
19815TIP3    H180936   1.926   2.211   0.976  0.5505 -0.6400  0.2255
19815TIP3    H280937   1.795   2.196   0.902  0.3319  2.2153 -0.0913
19816TIP3   OH280938   3.835   3.739   5.631 -0.1543 -0.0995  0.1164
19816TIP3    H180939   3.800   3.775   5.713 -1.2514 -0.5391 -0.1426
19816TIP3    H280940   3.802   3.650   5.628 -0.4352  0.0244 -0.9747
19817TIP3   OH280941   2.289   1.556  15.188  1.0050 -1.0266 -0.1714
19817TIP3    H180942   2.352   1.583  15.255  2.0310 -0.1142 -1.4718
19817TIP3    H280943   2.205   1.587  15.222  1.8176  1.6018 -0.3864
19818TIP3   OH280944   2.542   2.575  12.979 -0.0990 -0.3195  0.5993
19818TIP3    H180945   2.636   2.573  12.994 -0.3375  1.7492  3.2059
19818TIP3    H280946   2.519   2.486  12.954  2.5712 -0.7688 -0.5030
19819TIP3   OH280947   4.023   0.414   4.396 -0.1513  0.1554 -0.5455
19819TIP3    H180948   3.990   0.325   4.408 -1.2362  0.6765  0.5283
19819TIP3    H280949   3.944   0.467   4.387  0.4786  1.0490 -0.8745
19820TIP3   OH280950   2.145   1.934  13.439  0.5726 -0.2715  0.3182
19820TIP3    H180951   2.127   1.994  13.366 -0.5173  2.4958  2.6385
19820TIP3    H280952   2.240   1.936  13.449  0.8539 -1.5152 -1.5588
19821TIP3   OH280953   2.369   6.486  12.040 -0.2831  0.2274  0.0098
19821TIP3    H180954   2.328   6.555  12.092 -0.6049 -0.0615  0.1447
19821TIP3    H280955   2.325   6.406  12.069  2.0297 -0.4566  1.9578
19822TIP3   OH280956   2.656   4.965   6.388  0.4844  0.3756  0.9398
19822TIP3    H180957   2.732   4.913   6.416 -0.3467 -0.7675  1.1683
19822TIP3    H280958   2.676   4.990   6.298 -0.0567 -2.3797 -0.0573
19823TIP3   OH280959   4.480   0.287  11.566  0.0478  0.2050 -0.2916
19823TIP3    H180960   4.557   0.234  11.545 -0.7171 -0.3043 -1.9292
19823TIP3    H280961   4.498   0.372  11.525  0.2823  0.5032  0.4138
19824TIP3   OH280962   3.912   5.747  16.523 -0.1788  0.1368  0.0115
19824TIP3    H180963   3.973   5.800  16.575 -0.1848 -1.3838  1.6697
19824TIP3    H280964   3.845   5.719  16.586 -1.1099 -0.4328 -1.1881
19825TIP3   OH280965   1.718   2.389   5.523  0.3703 -0.1852  0.0587
19825TIP3    H180966   1.784   2.377   5.455  0.8018 -0.8932  0.5843
19825TIP3    H280967   1.693   2.300   5.548 -1.3920  0.0705 -0.6982
19826TIP3   OH280968   3.830   4.948  16.947  0.5807  0.6389  0.3359
19826TIP3    H180969   3.777   4.955  17.026 -0.6645 -0.4507 -0.3591
19826TIP3    H280970   3.771   4.974  16.876  1.5389  1.1658 -0.2924
19827TIP3   OH280971   0.693   5.012  11.591  0.1620 -0.6753 -0.4193
19827TIP3    H180972   0.604   4.988  11.616  0.3575 -0.0128  1.0228
19827TIP3    H280973   0.733   4.930  11.562 -0.6122 -1.1732 -0.0931
19828TIP3   OH280974   0.676   5.355  14.142 -0.3836  0.2242 -0.5280
19828TIP3    H180975   0.609   5.418  14.171  0.6040  1.7708 -1.4778
19828TIP3    H280976   0.688   5.374  14.049  2.7398  1.3570 -0.0090
19829TIP3   OH280977   0.217   2.440   2.027 -0.6736 -0.3081  0.2358
19829TIP3    H180978   0.158   2.477   2.094  0.6811 -0.0085  1.3102
19829TIP3    H280979   0.223   2.508   1.960 -0.5044  0.2228  0.7825
19830TIP3   OH280980   1.816   5.655   3.416 -0.3238 -0.3734 -0.3910
19830TIP3    H180981   1.731   5.689   3.386 -0.3985  0.1330  0.3594
19830TIP3    H280982   1.869   5.734   3.432 -0.3418 -0.6096  0.9395
19831TIP3   OH280983   1.005   0.817   5.565 -1.0821  0.2008 -0.9854
19831TIP3    H180984   1.067   0.744   5.564 -2.1453 -0.7294 -1.1673
19831TIP3    H280985   0.969   0.816   5.654 -0.4713  1.0736 -0.7137
19832TIP3   OH280986   2.579   4.113  16.797  0.3946  0.0911  0.4522
19832TIP3    H180987   2.547   4.040  16.745  2.0669 -0.5927  0.3251
19832TIP3    H280988   2.617   4.073  16.875  0.1605  0.9228  1.0082
19833TIP3   OH280989   2.724   1.755   1.301  0.9224  0.3637 -0.4043
19833TIP3    H180990   2.816   1.771   1.279  1.0768  0.3039  0.1866
19833TIP3    H280991   2.725   1.671   1.347  0.5854  0.4263 -0.2839
19834TIP3   OH280992   3.795   0.212  13.141  0.0376 -0.2807  0.0241
19834TIP3    H180993   3.785   0.186  13.050 -0.1501 -0.1888  0.0181
19834TIP3    H280994   3.732   0.283  13.153  1.5639  1.1895 -0.3417
19835TIP3   OH280995   3.238   3.605   3.382 -0.0390  0.3873 -0.2819
19835TIP3    H180996   3.309   3.603   3.447  1.4787  0.7487 -1.8562
19835TIP3    H280997   3.275   3.654   3.308 -0.7000 -2.3189 -2.5532
19836TIP3   OH280998   6.400   4.554   2.581  0.1733 -0.5029 -0.3371
19836TIP3    H180999   6.311   4.541   2.615 -0.3295  1.1217 -0.9396
19836TIP3    H281000   6.418   4.647   2.597  0.5803 -0.0663 -2.9340
19837TIP3   OH281001   3.119   5.724   5.198 -0.4396  0.4851 -0.3935
19837TIP3    H181002   3.205   5.723   5.240  0.1890  2.9081 -1.4424
19837TIP3    H281003   3.064   5.775   5.258 -0.5515  0.7617 -0.7258
19838TIP3   OH281004   4.361   0.532  14.407 -0.0458  0.2904 -0.7472
19838TIP3    H181005   4.369   0.506  14.499  1.4429  0.6187 -0.7680
19838TIP3    H281006   4.434   0.489  14.363 -1.2945 -0.6529 -1.9893
19839TIP3   OH281007   3.760   6.384   0.977 -0.5109  0.6775 -0.0959
19839TIP3    H181008   3.779   6.463   1.028  0.1652  1.4573 -1.4939
19839TIP3    H281009   3.669   6.395   0.949 -0.5221  0.8083 -0.0110
19840TIP3   OH281010   0.304   0.861  15.867  0.1046 -0.0388 -0.5219
19840TIP3    H181011   0.322   0.917  15.791  0.9986  1.0120  0.4191
19840TIP3    H281012   0.344   0.777  15.844  0.9889  0.4783 -0.9428
19841TIP3   OH281013   0.542   4.489  11.995 -0.5224 -0.3907 -0.1735
19841TIP3    H181014   0.572   4.407  11.955 -0.8728 -0.3521 -0.5159
19841TIP3    H281015   0.623   4.537  12.013 -0.3925  0.3741 -2.4917
19842TIP3   OH281016   5.322   5.901  11.738 -0.3996  0.2854 -0.1111
19842TIP3    H181017   5.325   5.826  11.797 -0.6845 -1.1427 -1.8305
19842TIP3    H281018   5.283   5.971  11.791 -1.5022 -1.1805  1.1261
19843TIP3   OH281019   0.822   3.075  15.762  0.0506 -0.1257 -0.4163
19843TIP3    H181020   0.777   3.111  15.686 -1.1909 -0.7233  0.0049
19843TIP3    H281021   0.803   2.981  15.759 -0.1175 -0.1410  0.6938
19844TIP3   OH281022   2.810   0.257  15.112 -0.6230  0.3703  0.0504
19844TIP3    H181023   2.721   0.223  15.110 -1.2651  1.9934 -0.2486
19844TIP3    H281024   2.815   0.307  15.194  0.5438 -0.9620  0.8669
19845TIP3   OH281025   6.673   6.140  14.085  0.5947  0.6106 -0.0677
19845TIP3    H181026   6.667   6.220  14.032  0.7307  0.2991 -0.5610
19845TIP3    H281027   6.679   6.069  14.021  0.7252  0.2211  0.3680
19846TIP3   OH281028   6.139   2.158   0.088  0.1176  0.2461  0.4505
19846TIP3    H181029   6.092   2.212   0.026  1.1621 -0.5181 -1.0691
19846TIP3    H281030   6.217   2.130   0.041 -0.1861 -2.2495  1.2878
19847TIP3   OH281031   1.280   5.205  12.358  0.2210  0.3161  0.0940
19847TIP3    H181032   1.292   5.283  12.412  0.5374  0.2290  0.1482
19847TIP3    H281033   1.303   5.234  12.270  2.1939 -0.1903  0.3955
19848TIP3   OH281034   1.922   0.935  15.711  0.4908  0.4736 -0.5447
19848TIP3    H181035   1.937   1.023  15.743 -1.1501  0.6526 -0.1665
19848TIP3    H281036   1.992   0.882  15.749 -0.2805  1.0351  1.8274
19849TIP3   OH281037   0.885   0.781   1.494 -0.0000  0.2434  0.2999
19849TIP3    H181038   0.854   0.737   1.415  0.1910  0.1515  0.2750
19849TIP3    H281039   0.933   0.713   1.541  1.7001  0.8406 -0.5179
19850TIP3   OH281040   2.778   4.680   6.345  0.8271 -0.3078  0.1740
19850TIP3    H181041   2.821   4.599   6.371  0.3045  0.1061  2.6819
19850TIP3    H281042   2.848   4.746   6.350  0.8617 -0.3257 -0.0845
19851TIP3   OH281043   3.155   0.179  14.785 -0.1839 -0.3104 -0.1251
19851TIP3    H181044   3.209   0.250  14.750 -1.3038  0.0766 -1.1553
19851TIP3    H281045   3.218   0.111  14.810  0.8203  0.4695 -0.4520
19852TIP3   OH281046   1.257   0.704  14.236  0.0977  0.0936 -0.4734
19852TIP3    H181047   1.204   0.759  14.179 -0.6989  0.1742  0.3249
19852TIP3    H281048   1.234   0.614  14.210 -0.3125  0.1295 -0.2470
19853TIP3   OH281049   4.133   4.228   2.776  0.0645 -0.6222 -0.2466
19853TIP3    H181050   4.074   4.173   2.725 -0.0594  0.2570 -1.0986
19853TIP3    H281051   4.076   4.295   2.815  0.4275 -0.0031 -0.7488
19854TIP3   OH281052   1.997   4.423  15.483  0.2348 -0.0545  0.1839
19854TIP3    H181053   2.035   4.356  15.540  0.8977  0.6035  0.5403
19854TIP3    H281054   1.906   4.397  15.471  0.9939 -2.2740 -1.5337
19855TIP3   OH281055   4.526   4.788  16.194 -0.2710  0.1234 -0.1365
19855TIP3    H181056   4.576   4.734  16.255  0.8059  1.1878 -0.0469
19855TIP3    H281057   4.591   4.828  16.137 -1.0554  1.1276 -0.3631
19856TIP3   OH281058   5.457   6.226   3.457  0.5072 -0.0862 -0.1116
19856TIP3    H181059   5.432   6.297   3.515  4.0329  0.5301  0.8730
19856TIP3    H281060   5.430   6.255   3.370 -1.9236  0.4446  0.7565
19857TIP3   OH281061   0.969   4.969  11.271 -0.2095 -0.5536 -0.5535
19857TIP3    H181062   0.890   5.018  11.249  0.6817  0.2224 -2.2543
19857TIP3    H281063   0.942   4.877  11.269 -1.4860 -0.2536  0.8666
19858TIP3   OH281064   3.508   2.049   3.226 -0.0814  0.5290  0.2301
19858TIP3    H181065   3.482   1.969   3.180  3.9824 -0.0744 -1.4972
19858TIP3    H281066   3.499   2.028   3.318  1.6225 -2.3924 -0.1437
19859TIP3   OH281067   3.109   1.224  15.307  0.0486  0.2017 -0.6087
19859TIP3    H181068   3.081   1.253  15.220 -1.1316 -2.9555 -1.4388
19859TIP3    H281069   3.040   1.253  15.366 -1.0937 -0.8381 -1.3927
19860TIP3   OH281070   3.965   2.400  15.874 -0.3225 -0.1798  0.2884
19860TIP3    H181071   3.941   2.363  15.789  2.0918 -0.6789 -0.2573
19860TIP3    H281072   3.892   2.458  15.897 -1.5554 -0.9120 -1.5612
19861TIP3   OH281073   4.370   4.320   3.973 -0.3156 -0.2961 -0.1971
19861TIP3    H181074   4.455   4.358   3.995  0.7185 -1.5780 -1.7285
19861TIP3    H281075   4.367   4.238   4.023 -0.4408 -0.4660 -0.4788
19862TIP3   OH281076   0.067   0.768  15.695  0.1380 -0.0406 -0.4933
19862TIP3    H181077   0.000   0.717  15.741 -1.7029  1.7011 -1.0990
19862TIP3    H281078   0.089   0.839  15.756  1.8701 -0.8742 -0.0924
19863TIP3   OH281079   3.882   2.057   1.832 -0.3648  0.4227  0.7107
19863TIP3    H181080   3.849   1.968   1.849  0.4155  0.1600  0.8985
19863TIP3    H281081   3.954   2.068   1.894  1.3217  0.1641 -1.1173
19864TIP3   OH281082   5.363   0.117  16.328 -0.1919  0.0839  0.2126
19864TIP3    H181083   5.344   0.072  16.410 -2.0720  2.1114  1.0101
19864TIP3    H281084   5.300   0.081  16.266 -1.2303  1.0257  0.6724
19865TIP3   OH281085   6.416   2.048   5.232 -0.2407 -0.2061 -0.2098
19865TIP3    H181086   6.378   2.131   5.261  1.3496  0.4441  0.1227
19865TIP3    H281087   6.505   2.071   5.206 -0.1582 -1.6164 -1.2495
19866TIP3   OH281088   1.442   1.674   1.422  0.1897 -0.3840 -0.2424
19866TIP3    H181089   1.351   1.695   1.446 -0.1847  0.0001 -1.8716
19866TIP3    H281090   1.437   1.589   1.380  0.6860 -0.6385  0.2054
19867TIP3   OH281091   3.134   0.604  15.062  0.2095  0.0366 -0.0157
19867TIP3    H181092   3.052   0.562  15.085 -0.2842 -0.0149 -1.6947
19867TIP3    H281093   3.195   0.531  15.048  1.0886  0.1115  2.8871
19868TIP3   OH281094   3.340   4.226   0.522  0.2039 -0.0947  0.0931
19868TIP3    H181095   3.254   4.187   0.533  0.4581 -0.5598  0.4883
19868TIP3    H281096   3.379   4.178   0.449  0.4273 -0.4418  0.4306
19869TIP3   OH281097   0.918   1.719   6.340 -0.6638 -1.0092 -0.3785
19869TIP3    H181098   0.874   1.736   6.257 -1.5866  1.7655  0.5815
19869TIP3    H281099   0.878   1.638   6.371 -2.3065 -0.6479 -1.3777
19870TIP3   OH281100   4.053   3.054  12.364  0.1252  0.0819 -0.3745
19870TIP3    H181101   4.104   2.981  12.329  0.9395 -0.3085  1.4907
19870TIP3    H281102   3.987   3.012  12.419  0.4238  0.7145  0.4888
19871TIP3   OH281103   4.939   3.695  15.070  0.2215  0.4082 -0.2526
19871TIP3    H181104   4.937   3.788  15.093  0.8958  0.0530  1.4128
19871TIP3    H281105   5.026   3.680  15.034 -0.0655  0.5105 -1.0085
19872TIP3   OH281106   3.093   2.887   4.891  0.1489 -0.1157 -0.2417
19872TIP3    H181107   3.030   2.902   4.962 -1.1755 -2.8843 -0.7061
19872TIP3    H281108   3.173   2.930   4.921  0.3270 -2.7494  3.9530
19873TIP3   OH281109   1.845   3.872  11.729 -0.1719  0.0096 -0.4134
19873TIP3    H181110   1.907   3.936  11.762 -1.1196  1.7472 -1.8453
19873TIP3    H281111   1.881   3.787  11.756  1.5359  1.0752  0.8281
19874TIP3   OH281112   4.725   3.139   4.139  0.2752  0.1389 -0.3057
19874TIP3    H181113   4.774   3.065   4.104  1.2513  0.5661  0.1316
19874TIP3    H281114   4.757   3.149   4.229 -0.1587  0.8243 -0.2226
19875TIP3   OH281115   3.896   6.579  10.766 -0.2837 -0.8386  0.5993
19875TIP3    H181116   3.922   6.621  10.847  1.7319  1.0464 -0.9178
19875TIP3    H281117   3.972   6.527  10.740  0.7447  1.6708 -1.9516
19876TIP3   OH281118   2.846   1.369   5.604 -0.1309 -0.7143 -0.1006
19876TIP3    H181119   2.892   1.341   5.525 -0.3305 -2.9941  0.5226
19876TIP3    H281120   2.888   1.451   5.628  0.5260 -0.4063 -2.0678
19877TIP3   OH281121   6.266   3.320   5.836 -0.0279 -0.0416 -0.1614
19877TIP3    H181122   6.182   3.283   5.808 -0.5900  0.4206  0.8911
19877TIP3    H281123   6.328   3.248   5.826 -0.6853 -0.6017 -0.2554
19878TIP3   OH281124   3.863   6.379   4.274  0.4341 -0.3023 -0.0364
19878TIP3    H181125   3.826   6.455   4.228 -1.0460 -1.5276 -0.9452
19878TIP3    H281126   3.958   6.390   4.265  0.2510  1.2976 -0.3741
19879TIP3   OH281127   2.227   1.625   3.983  0.3404 -0.0663 -0.5028
19879TIP3    H181128   2.279   1.548   3.961 -1.4855 -2.3909  2.5157
19879TIP3    H281129   2.253   1.648   4.071 -2.1589 -0.0562  0.3240
19880TIP3   OH281130   3.916   1.934  16.457 -0.5952  0.0524  0.2548
19880TIP3    H181131   3.991   1.883  16.488  0.3153  1.7526  0.9781
19880TIP3    H281132   3.940   1.961  16.368 -1.1167 -0.8332 -0.1638
19881TIP3   OH281133   2.822   2.230  11.982  0.0398 -0.2987 -0.5854
19881TIP3    H181134   2.742   2.262  12.024  0.8411  0.8854  0.1003
19881TIP3    H281135   2.885   2.300  11.994  0.9637 -0.8686 -1.8426
19882TIP3   OH281136   3.446   4.632  15.455  0.2839  0.0046  0.6711
19882TIP3    H181137   3.510   4.698  15.481 -1.0273  1.2625  0.8452
19882TIP3    H281138   3.484   4.591  15.377  1.3395  0.6270  0.8410
19883TIP3   OH281139   3.678   4.685   4.919  0.2832 -0.2378  0.4042
19883TIP3    H181140   3.689   4.633   4.839  0.0277 -0.7149  0.6697
19883TIP3    H281141   3.587   4.669   4.945  0.2159  0.3063  0.5227
19884TIP3   OH281142   3.781   2.296  12.410  0.0651  0.0307  0.3715
19884TIP3    H181143   3.688   2.275  12.412 -0.7292  3.1029  0.5785
19884TIP3    H281144   3.801   2.329  12.498  0.6034  1.9207 -0.3948
19885TIP3   OH281145   6.065   4.068  16.878  0.0867  0.3201 -0.7259
19885TIP3    H181146   6.154   4.091  16.904  0.4770 -1.6625 -0.2011
19885TIP3    H281147   6.058   3.974  16.896 -3.1298  0.9482  2.1896
19886TIP3   OH281148   2.865   5.528   5.923 -0.2400 -0.1404 -0.0130
19886TIP3    H181149   2.959   5.536   5.910  0.1212 -0.7631  1.9082
19886TIP3    H281150   2.853   5.533   6.018 -2.0559 -0.8334 -0.1672
19887TIP3   OH281151   5.001   4.795  14.448  0.6022  0.4660  0.3626
19887TIP3    H181152   5.062   4.743  14.500 -1.5413 -1.3654  1.2653
19887TIP3    H281153   5.019   4.886  14.472  1.0245 -0.1955  2.8459
19888TIP3   OH281154   3.576   4.331  11.917 -0.3961 -0.0289 -0.3593
19888TIP3    H181155   3.524   4.378  11.982  0.5068  2.1090 -1.0890
19888TIP3    H281156   3.659   4.313  11.961 -0.0355  0.8099 -0.6814
19889TIP3   OH281157   4.348   5.168  11.069  0.1582  0.2070 -0.0481
19889TIP3    H181158   4.418   5.110  11.039  0.3581  1.1130 -1.4669
19889TIP3    H281159   4.309   5.202  10.988 -1.0787  0.7300  0.7276
19890TIP3   OH281160   2.425   3.751  11.204  0.0615  0.1072 -0.2336
19890TIP3    H181161   2.404   3.764  11.112  1.3830 -0.0162 -0.5671
19890TIP3    H281162   2.482   3.674  11.205  0.7800  0.6298  0.5809
19891TIP3   OH281163   4.028   0.830  15.067  0.0818  0.1411 -0.0344
19891TIP3    H181164   4.042   0.737  15.048  0.3448  0.3871 -1.1156
19891TIP3    H281165   4.116   0.867  15.076  0.0306  0.5276 -0.9314
19892TIP3   OH281166   4.749   5.772  11.562  0.3401  0.2828  0.5639
19892TIP3    H181167   4.695   5.804  11.634 -1.9858 -1.2372 -0.3698
19892TIP3    H281168   4.776   5.851  11.515  0.2188  1.1689  1.9219
19893TIP3   OH281169   2.111   3.174   2.619 -0.2364  0.1607 -0.2064
19893TIP3    H181170   2.097   3.268   2.635 -3.3611 -0.5090  1.9233
19893TIP3    H281171   2.135   3.169   2.527 -0.1848  3.0375 -0.4534
19894TIP3   OH281172   2.550   4.262   3.205 -0.1386  0.3980 -0.4180
19894TIP3    H181173   2.598   4.225   3.280 -0.7920  1.8814  0.7809
19894TIP3    H281174   2.610   4.251   3.131  0.7488 -0.6183  0.4122
19895TIP3   OH281175   2.726   2.696  13.556  0.4491  0.5614 -0.0596
19895TIP3    H181176   2.665   2.650  13.498 -0.4759 -0.1771  1.4348
19895TIP3    H281177   2.777   2.751  13.497 -0.9493  0.4224 -1.4879
19896TIP3   OH281178   5.404   2.518  17.138 -0.0257 -0.7494  0.3671
19896TIP3    H181179   5.317   2.554  17.120  0.1738 -0.2667  0.3474
19896TIP3    H281180   5.449   2.586  17.188  0.6325 -0.6378 -0.3588
19897TIP3   OH281181   5.257   5.146   5.323  0.4736  0.1415  0.0644
19897TIP3    H181182   5.222   5.212   5.263  1.8001  1.0426  0.2316
19897TIP3    H281183   5.223   5.172   5.409  1.0772  0.6945  0.1460
19898TIP3   OH281184   1.158   6.082  13.774 -0.4134  0.3099 -0.1049
19898TIP3    H181185   1.118   6.154  13.725 -0.1448 -0.0334 -0.8512
19898TIP3    H281186   1.226   6.125  13.827  0.0944  0.5605 -0.9282
19899TIP3   OH281187   2.921   5.034   3.979 -0.1320 -0.4653 -0.1396
19899TIP3    H181188   2.996   5.062   4.030  1.3267 -2.1410 -1.2414
19899TIP3    H281189   2.870   4.979   4.038 -1.4415  1.9125  1.1071
19900TIP3   OH281190   5.998   0.149  12.973  0.0658 -0.2022  0.3630
19900TIP3    H181191   5.964   0.062  12.995 -0.3019 -0.0133  0.5385
19900TIP3    H281192   6.087   0.132  12.942 -0.7674 -0.9130 -1.8484
19901TIP3   OH281193   0.443   3.782  15.979  0.3287 -0.5844  0.2901
19901TIP3    H181194   0.451   3.687  15.983  0.7529 -0.8107 -2.9555
19901TIP3    H281195   0.403   3.799  15.893 -0.9578  2.1404  1.3126
19902TIP3   OH281196   3.363   1.642  11.923  0.1952 -0.2615  0.6419
19902TIP3    H181197   3.389   1.620  12.012  1.9267 -0.8339  0.0265
19902TIP3    H281198   3.286   1.698  11.934  0.5349 -0.0969  2.4926
19903TIP3   OH281199   6.366   3.819   3.164  0.2939  0.3342 -0.1750
19903TIP3    H181200   6.373   3.846   3.255  1.2979 -0.6957  0.0693
19903TIP3    H281201   6.423   3.743   3.156 -1.7341 -1.1926 -1.0574
19904TIP3   OH281202   2.938   0.671  10.101 -0.7410  0.2068  0.1444
19904TIP3    H181203   2.902   0.652  10.188  0.5435  0.1295  0.6882
19904TIP3    H281204   2.994   0.747  10.114 -1.1050  0.6425 -0.7775
19905TIP3   OH281205   2.097   5.203  16.254  0.4556  0.6987 -0.0840
19905TIP3    H181206   2.135   5.190  16.341 -0.2410  1.6008  0.3710
19905TIP3    H281207   2.164   5.250  16.205  1.4604 -1.1239 -0.5387
19906TIP3   OH281208   6.117   1.697  15.143 -0.2311  0.2362  0.3403
19906TIP3    H181209   6.109   1.750  15.223 -0.7017  0.4204  0.1734
19906TIP3    H281210   6.034   1.709  15.098 -0.6241 -1.2194  0.6377
19907TIP3   OH281211   5.233   2.391  16.595  0.7123 -0.1228 -0.2824
19907TIP3    H181212   5.216   2.465  16.653  0.0112 -0.7721  0.3696
19907TIP3    H281213   5.242   2.430  16.508  0.2503  0.7124  0.0307
19908TIP3   OH281214   6.669   2.497   1.256 -0.1996  0.1626 -0.2534
19908TIP3    H181215   6.679   2.591   1.246 -2.8805  0.7151  1.2568
19908TIP3    H281216   6.757   2.465   1.276  0.4778  2.6061  0.9873
19909TIP3   OH281217   0.371   3.750   3.008  0.3215  0.1666 -0.4386
19909TIP3    H181218   0.362   3.801   3.089  0.6231 -1.4643  0.6816
19909TIP3    H281219   0.408   3.666   3.037 -1.5850 -1.2954 -1.9648
19910TIP3   OH281220   3.511   3.413  14.401  0.2115  0.6608 -0.1666
19910TIP3    H181221   3.525   3.503  14.428 -0.1893  0.6480  0.0818
19910TIP3    H281222   3.501   3.364  14.483  0.8991  0.3124 -0.2816
19911TIP3   OH281223   2.582   0.752  15.920 -0.1733  0.4860  0.3381
19911TIP3    H181224   2.537   0.831  15.951  0.8111  0.7242  1.2304
19911TIP3    H281225   2.611   0.775  15.831 -0.3818  0.9169  0.3754
19912TIP3   OH281226   0.182   1.597  16.614  0.1277  0.5307  0.7684
19912TIP3    H181227   0.120   1.648  16.667  0.8237  2.0759  0.1686
19912TIP3    H281228   0.142   1.511  16.605 -2.3320  1.6931 -0.2695
19913TIP3   OH281229   0.555   5.115  13.875 -0.3817  0.7484  0.1967
19913TIP3    H181230   0.544   5.198  13.828  1.6845 -0.0484 -1.9331
19913TIP3    H281231   0.504   5.052  13.824 -3.0352  0.8098  2.5437
19914TIP3   OH281232   1.909   2.949   3.382 -1.1643  0.4307 -0.0894
19914TIP3    H181233   1.914   3.042   3.407 -0.5684  0.8005 -1.4759
19914TIP3    H281234   1.818   2.938   3.351 -1.1429  0.6504 -0.2385
19915TIP3   OH281235   4.478   1.913  15.939 -0.4115  0.1223  0.5230
19915TIP3    H181236   4.473   1.830  15.891 -0.3413 -0.1131  0.9216
19915TIP3    H281237   4.572   1.933  15.941 -0.5323  0.8941 -0.7310
19916TIP3   OH281238   0.686   3.241  10.651 -0.2455  0.5910  0.3726
19916TIP3    H181239   0.759   3.183  10.630  0.2935  0.9564  1.2045
19916TIP3    H281240   0.706   3.323  10.604 -1.3148 -0.0623 -1.3061
19917TIP3   OH281241   5.309   4.517   4.552 -0.1662 -0.3469  0.1983
19917TIP3    H181242   5.236   4.459   4.533 -0.2434 -0.1730 -0.0290
19917TIP3    H281243   5.269   4.601   4.573  0.0244  0.1393 -1.3245
19918TIP3   OH281244   2.784   5.012   1.643  0.6070 -0.1888 -0.3895
19918TIP3    H181245   2.714   5.001   1.580  2.4609  1.5910 -2.9490
19918TIP3    H281246   2.784   4.930   1.694 -3.0341 -0.3542 -0.4192
19919TIP3   OH281247   4.920   2.570   2.064 -0.6809 -0.3694 -0.3647
19919TIP3    H181248   4.998   2.515   2.077  1.1988  2.1055 -0.4790
19919TIP3    H281249   4.916   2.584   1.969 -0.6434  0.3553 -0.2619
19920TIP3   OH281250   2.373   2.006  15.505  0.1408 -0.6288 -0.5134
19920TIP3    H181251   2.334   2.092  15.521 -0.2193 -0.6724 -1.1452
19920TIP3    H281252   2.326   1.972  15.429  1.0393 -0.9221 -0.9488
19921TIP3   OH281253   1.055   5.151   0.610 -0.3048 -0.1610  0.4950
19921TIP3    H181254   0.982   5.167   0.549  0.7518  1.6581 -0.3714
19921TIP3    H281255   1.019   5.170   0.696 -1.0730 -0.0680  0.1646
19922TIP3   OH281256   4.888   0.086  11.036 -0.1419  0.7070  0.4048
19922TIP3    H181257   4.820   0.042  11.086 -1.4034  0.3288 -1.5105
19922TIP3    H281258   4.964   0.089  11.094 -0.8425 -1.6028  1.5521
19923TIP3   OH281259   5.974   5.170  11.994  0.4353  0.2478 -0.4780
19923TIP3    H181260   6.068   5.185  11.992  0.5068  0.0449  0.5945
19923TIP3    H281261   5.950   5.152  11.903  1.1905  1.6935 -0.9862
19924TIP3   OH281262   5.648   4.939  11.727 -0.5014 -0.5846 -0.0128
19924TIP3    H181263   5.660   5.004  11.658  0.6323 -1.3857 -0.5931
19924TIP3    H281264   5.667   4.986  11.808 -0.9002  0.1097 -0.3113
19925TIP3   OH281265   1.916   0.293   1.104  0.1931  0.4364  0.2207
19925TIP3    H181266   1.953   0.244   1.177 -0.1983  2.3408  1.8021
19925TIP3    H281267   1.987   0.301   1.041  0.4569 -1.4922  0.2215
19926TIP3   OH281268   4.133   5.164   0.167 -0.0883  0.3088 -0.1910
19926TIP3    H181269   4.078   5.179   0.244  0.2536 -0.2358  0.1642
19926TIP3    H281270   4.221   5.184   0.196 -0.0171  0.5533 -0.5771
19927TIP3   OH281271   5.949   6.285   0.409 -0.3181 -1.0165 -0.4809
19927TIP3    H181272   6.028   6.321   0.369 -0.1551 -1.1374 -0.2682
19927TIP3    H281273   5.965   6.191   0.414 -0.1873 -0.9639  0.1909
19928TIP3   OH281274   4.420   5.108   3.922 -0.2480 -0.7751 -0.1825
19928TIP3    H181275   4.395   5.178   3.982  0.5669 -0.1118 -0.6011
19928TIP3    H281276   4.513   5.095   3.938 -0.4905 -2.1638  0.2794
19929TIP3   OH281277   3.550   4.805  11.972  0.2191 -0.1238  0.1987
19929TIP3    H181278   3.583   4.848  12.051  0.2745  1.1903 -0.5150
19929TIP3    H281279   3.544   4.875  11.907 -2.5339 -0.5915 -0.1769
19930TIP3   OH281280   5.295   4.448   2.875  0.3041 -0.3487 -0.2936
19930TIP3    H181281   5.364   4.423   2.937 -0.7856 -0.2885  0.9855
19930TIP3    H281282   5.330   4.525   2.830  0.2174  1.1138  1.9620
19931TIP3   OH281283   4.675   4.627   1.882  0.0145  0.5792 -0.0384
19931TIP3    H181284   4.748   4.613   1.821 -1.0382  1.7023 -1.6352
19931TIP3    H281285   4.716   4.668   1.958  1.0031  2.0429 -1.2763
19932TIP3   OH281286   4.240   6.184  13.559 -0.2618  0.0626 -0.5571
19932TIP3    H181287   4.183   6.233  13.617 -0.9147 -1.2187 -0.0809
19932TIP3    H281288   4.182   6.151  13.490  0.2250  0.2237 -1.0570
19933TIP3   OH281289   5.625   6.520   2.318  0.1618  0.0684 -0.7248
19933TIP3    H181290   5.679   6.454   2.361  0.4212  0.3483 -0.6155
19933TIP3    H281291   5.618   6.591   2.383  2.1676  1.3559 -1.8034
19934TIP3   OH281292   0.181   3.922  15.947  0.5859  0.7299 -0.4248
19934TIP3    H181293   0.244   3.905  16.017  0.0939 -1.2152 -0.3778
19934TIP3    H281294   0.192   3.847  15.887 -2.1147 -0.0757 -0.0490
19935TIP3   OH281295   5.968   4.165   1.243 -0.3143 -0.4206 -0.2420
19935TIP3    H181296   5.961   4.252   1.204 -1.9509  1.2171  3.2964
19935TIP3    H281297   6.043   4.172   1.303 -1.1295 -1.0409  0.8808
19936TIP3   OH281298   5.963   4.341  16.285  0.1849  0.2613  0.4579
19936TIP3    H181299   5.894   4.356  16.349 -0.5813 -1.5012  0.1200
19936TIP3    H281300   6.023   4.414  16.296 -0.8658  0.9512  1.9199
19937TIP3   OH281301   4.052   3.195  16.551  0.2288  0.0377  0.2763
19937TIP3    H181302   3.974   3.177  16.499 -0.7655  2.4137  0.8248
19937TIP3    H281303   4.112   3.239  16.491 -0.4008  1.5906  0.7224
19938TIP3   OH281304   1.371   0.084   0.364  0.0196 -0.3609 -0.1598
19938TIP3    H181305   1.347   0.114   0.277 -0.8981 -0.3934  0.0743
19938TIP3    H281306   1.456   0.126   0.381  0.5799 -0.9642 -1.3588
19939TIP3   OH281307   3.603   3.649  14.446 -0.5387 -0.3951  0.0848
19939TIP3    H181308   3.521   3.663  14.399 -0.6363 -1.0015  0.0594
19939TIP3    H281309   3.663   3.714  14.411 -0.7649 -0.5047 -0.5104
19940TIP3   OH281310   2.667   4.249  15.121  0.3695 -0.4142 -0.0893
19940TIP3    H181311   2.635   4.158  15.124 -0.4930 -0.0924  2.3888
19940TIP3    H281312   2.762   4.241  15.126  0.4406 -1.1975 -1.8331
19941TIP3   OH281313   0.952   2.550   2.219  0.9471  0.2191  0.9153
19941TIP3    H181314   0.878   2.525   2.163  1.8197  1.5237 -0.9317
19941TIP3    H281315   0.981   2.468   2.259  1.2124 -1.0816 -1.7579
19942TIP3   OH281316   5.221   3.774   1.207 -0.8428  0.2984 -0.0943
19942TIP3    H181317   5.280   3.778   1.132  0.0978  1.2240  0.6810
19942TIP3    H281318   5.276   3.792   1.282 -1.9696  0.3684  0.7329
19943TIP3   OH281319   0.909   1.271   5.118  0.1882 -0.4466  0.5038
19943TIP3    H181320   0.886   1.179   5.107  0.5913 -0.6306  1.1324
19943TIP3    H281321   0.825   1.316   5.129 -0.1924 -0.3854 -2.0671
19944TIP3   OH281322   1.106   1.852   0.191 -0.0393  0.4660  0.0948
19944TIP3    H181323   1.033   1.841   0.252  0.4239 -0.9193  0.4424
19944TIP3    H281324   1.161   1.920   0.231 -1.1438  1.5669 -0.2034
19945TIP3   OH281325   2.644   1.790   0.157 -0.4749 -0.0013 -0.1901
19945TIP3    H181326   2.570   1.833   0.114  0.4542  0.4645 -1.3833
19945TIP3    H281327   2.681   1.734   0.089  1.2648  1.0450 -0.1622
19946TIP3   OH281328   0.261   4.067   6.452  0.6622 -0.5867 -0.6006
19946TIP3    H181329   0.226   4.156   6.443 -0.7104 -1.1906 -1.4816
19946TIP3    H281330   0.275   4.056   6.546 -0.2095  0.1674 -0.3727
19947TIP3   OH281331   2.763   5.260  13.354 -0.2383 -0.2225  0.2976
19947TIP3    H181332   2.721   5.340  13.322  0.0079 -0.1557  0.1383
19947TIP3    H281333   2.694   5.215  13.404 -0.2700  0.2683  0.7005
19948TIP3   OH281334   1.829   1.656  14.617 -0.5088 -0.1189  0.4963
19948TIP3    H181335   1.783   1.727  14.574 -2.0842 -1.4145 -0.0364
19948TIP3    H281336   1.914   1.694  14.642 -0.2071  1.1628 -2.1738
19949TIP3   OH281337   3.784   4.234  12.647 -0.2729 -0.1218 -0.7577
19949TIP3    H181338   3.772   4.144  12.677  1.6913 -0.5241 -1.0952
19949TIP3    H281339   3.750   4.234  12.558 -0.1214 -0.5797 -0.8197
19950TIP3   OH281340   0.846   6.028  13.156 -0.1799 -0.2196 -0.0292
19950TIP3    H181341   0.862   5.936  13.137 -0.0224 -0.5773  1.6708
19950TIP3    H281342   0.752   6.033  13.175  0.0321 -0.2669  1.0555
19951TIP3   OH281343   0.907   3.598   6.246  0.4099  0.5164 -0.3165
19951TIP3    H181344   0.813   3.601   6.232  0.2864 -2.7079 -0.9367
19951TIP3    H281345   0.918   3.586   6.340 -0.0299 -1.9496 -0.5169
19952TIP3   OH281346   1.557   4.496  15.954 -0.1788 -0.0653  0.0847
19952TIP3    H181347   1.643   4.456  15.969 -0.3614 -0.2984  0.5165
19952TIP3    H281348   1.494   4.429  15.981 -0.4878  0.4822  0.7521
19953TIP3   OH281349   2.726   3.855   4.710 -0.0382 -0.2479 -0.4839
19953TIP3    H181350   2.649   3.845   4.765  0.2704 -2.1015 -0.3536
19953TIP3    H281351   2.709   3.800   4.634  0.5414  0.4802 -1.1628
19954TIP3   OH281352   5.768   0.624   2.569 -0.2902 -0.3125  0.1060
19954TIP3    H181353   5.763   0.719   2.574  1.0385 -0.1028 -1.7593
19954TIP3    H281354   5.681   0.594   2.597 -1.6950  1.5884 -1.9186
19955TIP3   OH281355   1.701   6.305   3.337  0.0852  0.3159 -0.1289
19955TIP3    H181356   1.696   6.354   3.255  1.0999  0.2547 -0.2503
19955TIP3    H281357   1.724   6.216   3.310 -0.8341 -0.0092  0.1474
19956TIP3   OH281358   1.834   5.969   2.133  0.2301  0.0862  0.3892
19956TIP3    H181359   1.920   5.980   2.093  0.4003 -0.1009  0.7110
19956TIP3    H281360   1.803   6.059   2.148  0.3868  0.1522  0.3188
19957TIP3   OH281361   4.183   3.988  11.978 -0.4954 -0.0143 -0.1524
19957TIP3    H181362   4.112   3.925  11.990  0.4042 -0.8221  1.2283
19957TIP3    H281363   4.146   4.071  12.007 -0.6896 -0.5697  1.2886
19958TIP3   OH281364   3.983   3.819   2.758  0.3680 -0.6572 -0.1477
19958TIP3    H181365   4.006   3.778   2.675  2.4826  0.6191 -0.2581
19958TIP3    H281366   4.061   3.811   2.812 -1.0003 -1.5581  1.8207
19959TIP3   OH281367   3.561   4.601  13.067  0.2212  0.1781 -0.3994
19959TIP3    H181368   3.554   4.675  13.127 -0.3174 -0.8193  0.8187
19959TIP3    H281369   3.471   4.570  13.056  0.5405 -0.9061 -0.0691
19960TIP3   OH281370   3.666   1.176  13.351 -0.6640 -0.0367 -0.0325
19960TIP3    H181371   3.688   1.103  13.410 -0.3672 -0.1005 -0.2223
19960TIP3    H281372   3.704   1.152  13.267  1.0494  1.1570  0.3328
19961TIP3   OH281373   0.872   4.353  14.215  0.3495  0.4427 -0.4902
19961TIP3    H181374   0.892   4.323  14.303 -0.8249  0.7904 -0.0917
19961TIP3    H281375   0.919   4.436  14.206 -0.3441  0.9056  0.1706
19962TIP3   OH281376   5.930   0.121  13.499  0.4890 -0.2804 -0.1645
19962TIP3    H181377   5.903   0.035  13.531  1.8587 -0.8044 -0.3504
19962TIP3    H281378   5.855   0.178  13.518  0.5522 -0.9222  2.3622
19963TIP3   OH281379   0.679   0.655   0.454  0.5628 -0.3944 -0.2459
19963TIP3    H181380   0.756   0.608   0.487  0.9324 -0.3564 -1.0267
19963TIP3    H281381   0.681   0.642   0.359 -2.0003 -2.8318 -0.0937
19964TIP3   OH281382   5.366   1.411  11.333  0.4013 -0.0509  0.4887
19964TIP3    H181383   5.324   1.362  11.261 -1.9183  0.4683  1.3940
19964TIP3    H281384   5.368   1.501  11.302  2.5047 -0.2937 -0.2216
19965TIP3   OH281385   5.970   3.972   0.972  0.0886  0.5375 -0.1438
19965TIP3    H181386   5.976   4.068   0.977  1.1652  0.4395  0.7766
19965TIP3    H281387   6.060   3.943   0.955  0.0046 -0.3685  0.8486
19966TIP3   OH281388   1.792   1.213   1.248  0.0301  0.1601  0.1768
19966TIP3    H181389   1.823   1.290   1.295  0.8815 -0.4182  0.5978
19966TIP3    H281390   1.788   1.144   1.315  0.1305 -0.3777 -0.3636
19967TIP3   OH281391   1.578   0.008  16.447 -0.0037  0.2094  0.7728
19967TIP3    H181392   1.621   0.083  16.405  0.3537 -1.2052 -1.5789
19967TIP3    H281393   1.495   0.043  16.478 -0.4256  1.3481 -1.4342
19968TIP3   OH281394   2.965   1.421  12.912  0.3477 -0.4715  0.4074
19968TIP3    H181395   2.914   1.433  12.992  0.4267  0.6309  0.3058
19968TIP3    H281396   3.036   1.484  12.919 -0.4109  0.6025 -1.1403
19969TIP3   OH281397   3.898   2.999   5.642 -0.3531  0.0879 -0.4265
19969TIP3    H181398   3.898   2.925   5.582 -2.6226  1.4613 -2.2534
19969TIP3    H281399   3.806   3.018   5.659  0.0809  2.9860 -0.7049
19970TIP3   OH281400   0.298   4.077  11.593  0.5977  0.3975  0.7171
19970TIP3    H181401   0.283   4.081  11.688 -0.8627  1.9702  0.4654
19970TIP3    H281402   0.232   4.135  11.556 -1.2478 -2.7881 -1.5618
19971TIP3   OH281403   1.061   6.294  15.252  0.2082  0.0041  0.0841
19971TIP3    H181404   1.075   6.260  15.340 -0.5945  1.8040  0.9810
19971TIP3    H281405   1.007   6.228  15.208 -0.2048 -0.4718  1.2761
19972TIP3   OH281406   4.443   1.746   1.004 -0.2291  0.1748  0.4036
19972TIP3    H181407   4.376   1.747   1.073  0.1405  0.6102  0.7705
19972TIP3    H281408   4.505   1.815   1.030 -0.4742  0.8674 -0.7493
19973TIP3   OH281409   6.255   5.156  12.565 -0.4738  0.9057 -0.4511
19973TIP3    H181410   6.228   5.155  12.656 -0.4875  0.1705 -0.4579
19973TIP3    H281411   6.181   5.118  12.517  1.0173 -2.4630 -0.3172
19974TIP3   OH281412   3.039   3.610  15.295 -0.0541  0.0823 -0.1421
19974TIP3    H181413   3.005   3.655  15.218 -2.2317  0.9789  1.2327
19974TIP3    H281414   3.020   3.518  15.280  1.7096 -0.0820 -1.6667
19975TIP3   OH281415   5.077   6.337   5.854  0.2912  0.0619 -0.0575
19975TIP3    H181416   5.144   6.396   5.887  0.9121  0.5037 -1.9776
19975TIP3    H281417   5.109   6.249   5.875  0.0003  0.3241  1.6340
19976TIP3   OH281418   0.511   0.278  15.913  0.0107 -0.1380 -0.0408
19976TIP3    H181419   0.448   0.224  15.866 -0.6804 -0.0266  0.7232
19976TIP3    H281420   0.591   0.227  15.915 -0.2569 -0.5743 -0.4446
19977TIP3   OH281421   5.064   5.260   1.932 -0.0592  0.0950 -1.0367
19977TIP3    H181422   5.102   5.182   1.971  0.5654  0.0839 -1.6666
19977TIP3    H281423   5.017   5.229   1.855  0.7633  0.4092 -1.6821
19978TIP3   OH281424   5.344   0.492  11.938 -0.3483 -0.2170  0.3077
19978TIP3    H181425   5.376   0.409  11.902 -1.7584 -0.3982 -0.6016
19978TIP3    H281426   5.348   0.480  12.033  1.3405 -0.5578  0.2349
19979TIP3   OH281427   0.810   3.501  15.831 -0.1435 -0.3007 -0.1661
19979TIP3    H181428   0.791   3.591  15.803  0.6395 -0.1469 -0.2467
19979TIP3    H281429   0.840   3.458  15.751  0.9290 -0.2049  0.1689
19980TIP3   OH281430   6.768   4.921   5.746 -0.7235 -0.1817  0.0362
19980TIP3    H181431   6.710   4.848   5.767  0.1285 -0.5839  1.1124
19980TIP3    H281432   6.719   5.000   5.770 -1.1063 -0.4780  0.2279
19981TIP3   OH281433   1.439   2.592   1.570  0.1243 -0.0856 -0.0298
19981TIP3    H181434   1.444   2.687   1.585 -0.8162 -0.3011  1.8717
19981TIP3    H281435   1.371   2.561   1.629 -0.9190 -1.7268 -1.9314
19982TIP3   OH281436   5.883   0.021   3.749  0.5690  0.1818  0.2815
19982TIP3    H181437   5.904   0.111   3.724  0.0985  0.2774  0.2285
19982TIP3    H281438   5.950  -0.002   3.813  0.1304  0.8935  1.0083
19983TIP3   OH281439   4.492   5.016  13.111 -0.2255 -0.8609  0.3200
19983TIP3    H181440   4.490   5.090  13.172  1.4798 -1.5576  1.2812
19983TIP3    H281441   4.412   4.967  13.130 -0.8887  0.2135  0.3388
19984TIP3   OH281442   6.594   0.395   5.144  0.3658 -0.1688 -0.1694
19984TIP3    H181443   6.666   0.400   5.082 -0.1291  1.2327 -0.6710
19984TIP3    H281444   6.545   0.476   5.131 -0.4637 -0.4179  1.1912
19985TIP3   OH281445   1.365   0.110  11.263  0.1116 -0.4832 -0.0136
19985TIP3    H181446   1.336   0.024  11.234  0.7162 -0.5444 -0.4528
19985TIP3    H281447   1.376   0.160  11.182 -0.1871 -0.0091  0.2360
19986TIP3   OH281448   5.418   5.071  12.201  0.7353 -0.4577  0.1565
19986TIP3    H181449   5.357   5.061  12.128  2.6848 -0.8029 -1.5113
19986TIP3    H281450   5.505   5.057  12.163  1.9147  0.1794  2.3871
19987TIP3   OH281451   0.847   0.500   5.601  0.0283 -0.1943  0.2462
19987TIP3    H181452   0.862   0.586   5.641  1.2721  0.2736 -1.1288
19987TIP3    H281453   0.935   0.461   5.597  0.0296 -0.0674 -2.2912
19988TIP3   OH281454   4.226   1.052  13.507 -0.3261 -0.1401  0.1491
19988TIP3    H181455   4.204   1.141  13.479 -0.9013 -0.1293  0.5949
19988TIP3    H281456   4.299   1.064  13.568 -0.1416 -0.0087 -0.0986
19989TIP3   OH281457   2.391   1.015   2.869 -0.3835  0.4122  0.1717
19989TIP3    H181458   2.319   1.051   2.818  0.5192  1.6475 -0.2663
19989TIP3    H281459   2.465   1.012   2.808 -0.0760 -0.9554  0.5743
19990TIP3   OH281460   3.199   3.289   3.031 -0.1442  0.0121 -0.2156
19990TIP3    H181461   3.152   3.209   3.008  0.2739 -0.2456 -0.1720
19990TIP3    H281462   3.178   3.304   3.123 -0.3388  0.0353 -0.2632
19991TIP3   OH281463   1.162   1.572  10.847 -0.4035 -1.0684  0.8722
19991TIP3    H181464   1.135   1.540  10.761  2.3113 -2.1020  0.2998
19991TIP3    H281465   1.124   1.660  10.852 -0.4953 -0.8994 -1.4781
19992TIP3   OH281466   1.551   3.312  12.803 -0.2362 -0.0701  0.0829
19992TIP3    H181467   1.631   3.343  12.763 -1.3165  0.1558 -2.0397
19992TIP3    H281468   1.497   3.390  12.813 -0.6321 -0.3801  0.4348
19993TIP3   OH281469   5.493   1.094  15.085  0.0497  0.0586  0.0114
19993TIP3    H181470   5.454   1.171  15.042 -0.3630 -0.1095  0.0833
19993TIP3    H281471   5.432   1.072  15.155 -0.5525 -1.1822 -0.8728
19994TIP3   OH281472   6.166   1.906   4.211 -0.3544 -0.4427 -0.1425
19994TIP3    H181473   6.161   1.994   4.247  0.2188 -0.4286 -0.0878
19994TIP3    H281474   6.229   1.914   4.139 -1.9280 -0.3313 -1.5592
19995TIP3   OH281475   1.742   1.353  12.329 -0.3842  0.3138 -0.1789
19995TIP3    H181476   1.829   1.391  12.343 -0.6917  0.6722  0.7913
19995TIP3    H281477   1.686   1.428  12.309 -0.7096  0.2198  0.3744
19996TIP3   OH281478   3.435   4.571   5.433  0.3636 -0.3059 -0.0264
19996TIP3    H181479   3.367   4.531   5.487  1.8257  0.4774  2.5755
19996TIP3    H281480   3.498   4.606   5.496  3.0244 -0.6768 -2.3045
19997TIP3   OH281481   1.672   5.703  11.985  0.0725 -0.4863 -0.5506
19997TIP3    H181482   1.693   5.789  11.951 -3.5220  0.3595 -0.9980
19997TIP3    H281483   1.679   5.645  11.910  0.5890 -0.2362 -0.6979
19998TIP3   OH281484   3.283   1.421   3.177  0.3541  1.3047 -0.2585
19998TIP3    H181485   3.264   1.362   3.105  0.0179 -0.7643  1.4132
19998TIP3    H281486   3.254   1.507   3.147 -0.8764  0.3011 -2.1078
19999TIP3   OH281487   1.780   2.492   6.249  0.0632 -0.5201  0.0688
19999TIP3    H181488   1.739   2.502   6.163 -0.1600 -3.5067 -0.2559
19999TIP3    H281489   1.707   2.496   6.311 -0.4454 -2.7757 -0.2877
20000TIP3   OH281490   3.434   1.057   5.012  0.0471 -0.1120  0.0219
20000TIP3    H181491   3.360   0.998   5.028  1.0260 -1.2676  0.5266
20000TIP3    H281492   3.411   1.104   4.932 -0.6289 -1.4779 -0.6274
20001TIP3   OH281493   4.751   6.056   5.133  0.2320 -0.4924  1.0860
20001TIP3    H181494   4.717   6.052   5.222  1.6197 -2.1390  1.5930
20001TIP3    H281495   4.766   5.964   5.109  1.2146 -0.0027 -0.3128
20002TIP3   OH281496   1.806   4.592  12.999  0.0493 -0.1248 -1.0544
20002TIP3    H181497   1.900   4.579  12.986  0.3860  1.8038 -0.8827
20002TIP3    H281498   1.795   4.591  13.094  0.2326  1.4233 -0.9882
20003TIP3   OH281499   4.388   1.171  15.388  0.2448 -0.2753 -0.6902
20003TIP3    H181500   4.330   1.164  15.312  0.6792  1.5207 -1.2153
20003TIP3    H281501   4.476   1.164  15.352  0.4982  1.7374 -0.5460
20004TIP3   OH281502   5.282   1.752  14.915 -0.6471  0.6699  0.4263
20004TIP3    H181503   5.328   1.717  14.991 -0.7042  1.9005  1.0555
20004TIP3    H281504   5.277   1.846  14.932 -0.1950  1.0501 -1.3511
20005TIP3   OH281505   4.220   2.790   0.097 -0.1304 -0.1889 -0.3190
20005TIP3    H181506   4.147   2.814   0.154  1.9066 -0.1933  2.4520
20005TIP3    H281507   4.287   2.856   0.114  1.0822 -0.9816 -1.7350
20006TIP3   OH281508   0.153   2.259   3.119  0.0192  0.4002 -0.1364
20006TIP3    H181509   0.074   2.208   3.139 -0.1693  0.9743  0.6540
20006TIP3    H281510   0.224   2.212   3.162 -0.0372  0.3907 -0.0532
20007TIP3   OH281511   4.655   2.944  14.850  0.0164 -0.2428 -0.1107
20007TIP3    H181512   4.730   3.000  14.873 -0.8530  0.7233  0.4238
20007TIP3    H281513   4.666   2.866  14.905  2.0946 -1.3820 -1.9796
20008TIP3   OH281514   4.582   0.775   4.309 -0.1877 -0.1839  0.2904
20008TIP3    H181515   4.646   0.704   4.310 -0.1875 -0.3003 -2.5652
20008TIP3    H281516   4.555   0.783   4.401 -0.0177 -3.7174  0.7939
20009TIP3   OH281517   0.448   2.506  15.590 -0.1472 -0.1508 -0.2881
20009TIP3    H181518   0.420   2.508  15.682 -0.3843 -1.9798 -0.2855
20009TIP3    H281519   0.387   2.447  15.547  1.0426 -0.7467 -1.2326
20010TIP3   OH281520   1.111   5.491   1.796 -0.0953 -1.1403 -0.3327
20010TIP3    H181521   1.206   5.491   1.783 -0.1640 -0.0678 -1.0618
20010TIP3    H281522   1.091   5.581   1.822 -1.1556 -0.6479 -2.5525
20011TIP3   OH281523   4.377   6.016  17.090  0.0849 -0.4511  0.5718
20011TIP3    H181524   4.438   6.023  17.017  0.9938 -2.7998  1.0388
20011TIP3    H281525   4.397   5.932  17.131 -0.0106  0.9729  3.8654
20012TIP3   OH281526   0.970   4.412   0.268 -0.0558  0.2632 -0.5648
20012TIP3    H181527   0.955   4.464   0.347 -0.1378 -0.2810 -0.2107
20012TIP3    H281528   0.883   4.405   0.227 -0.0182  0.5234 -0.6865
20013TIP3   OH281529   6.762   6.267   3.577  0.0254 -0.4076  0.0496
20013TIP3    H181530   6.836   6.247   3.634  1.0306 -1.6504 -1.6082
20013TIP3    H281531   6.708   6.188   3.580  1.1371 -1.3627 -2.1899
20014TIP3   OH281532   1.449   5.534   4.914  0.4484 -0.3852  0.5445
20014TIP3    H181533   1.444   5.456   4.969  0.9902  0.0766  1.2808
20014TIP3    H281534   1.538   5.567   4.928 -0.0169  0.7844  0.8610
20015TIP3   OH281535   1.515   3.405  13.291  0.0588 -0.1038 -0.2333
20015TIP3    H181536   1.497   3.312  13.277 -3.5736  0.6635 -1.7288
20015TIP3    H281537   1.573   3.429  13.218  0.1429 -0.9511 -0.4579
20016TIP3   OH281538   4.251   3.950   2.841  0.7936  0.0494 -0.1138
20016TIP3    H181539   4.239   4.040   2.810  2.4260  0.2319 -0.2908
20016TIP3    H281540   4.282   3.960   2.931 -1.2382 -0.4208  0.6902
20017TIP3   OH281541   4.746   5.064  13.438  0.4444  0.2353  0.1294
20017TIP3    H181542   4.772   5.029  13.524  0.1276 -1.8281 -0.5704
20017TIP3    H281543   4.664   5.110  13.455  0.4137 -0.0961  0.9487
20018TIP3   OH281544   3.954   0.059  12.512  0.3568 -0.1218  0.1934
20018TIP3    H181545   3.947   0.143  12.467 -1.4591 -0.6931 -0.6753
20018TIP3    H281546   4.028   0.016  12.470 -0.0968  0.1542 -0.9346
20019TIP3   OH281547   5.010   5.218  12.138  0.0112 -0.0152  0.4019
20019TIP3    H181548   4.997   5.124  12.149 -0.7427 -0.0352 -0.5536
20019TIP3    H281549   5.090   5.225  12.086  1.9659  0.0007  3.2310
20020TIP3   OH281550   3.812   4.022   2.790  0.2431  0.4560 -0.0614
20020TIP3    H181551   3.883   3.960   2.771  0.0601  0.7888 -2.0288
20020TIP3    H281552   3.763   3.981   2.861  1.3661 -0.6264  0.1299
20021TIP3   OH281553   2.413   0.037   6.225  0.7800  0.2439  0.1686
20021TIP3    H181554   2.401   0.132   6.229  0.3355  0.1679  0.7070
20021TIP3    H281555   2.325   0.001   6.237  0.7213 -0.2159 -1.3982
20022TIP3   OH281556   0.597   5.937  11.870  0.3661  0.2175  1.1294
20022TIP3    H181557   0.509   5.949  11.907  0.6020  2.3901  1.1016
20022TIP3    H281558   0.582   5.926  11.776  0.1597  1.7258  0.9655
20023TIP3   OH281559   5.985   0.286  17.159  0.2204 -0.0931  0.3331
20023TIP3    H181560   5.988   0.379  17.134  1.7516 -0.6140 -1.6142
20023TIP3    H281561   5.920   0.283  17.229  0.9586  2.6329  1.2546
20024TIP3   OH281562   4.985   5.820   3.573  0.0056  0.2847 -0.0736
20024TIP3    H181563   5.051   5.754   3.552  1.5236  1.5049  0.6935
20024TIP3    H281564   4.989   5.828   3.669 -0.7494  0.8956 -0.0837
20025TIP3   OH281565   0.833   5.626  11.998 -0.2381 -0.4133 -0.1600
20025TIP3    H181566   0.744   5.606  11.968 -0.7838 -1.1853  1.8379
20025TIP3    H281567   0.823   5.697  12.060  0.9446  1.5333 -2.0384
20026TIP3   OH281568   6.685   5.391   1.144 -0.2333  0.0908 -0.0208
20026TIP3    H181569   6.684   5.298   1.165  0.4675 -0.0161 -0.4387
20026TIP3    H281570   6.759   5.426   1.193 -1.0811  0.6242  0.9085
20027TIP3   OH281571   3.445   2.804  16.525  0.0288  0.0516 -0.0017
20027TIP3    H181572   3.486   2.736  16.579  1.8307  1.1622  0.1443
20027TIP3    H281573   3.388   2.851  16.585  0.4839  0.0338  0.4544
20028TIP3   OH281574   2.588   1.121  16.294 -0.5191  0.2018 -0.1710
20028TIP3    H181575   2.596   1.188  16.363  1.8202  0.7883 -0.9090
20028TIP3    H281576   2.548   1.168  16.220  1.0808  0.8431 -0.6734
20029TIP3   OH281577   5.858   5.166   0.595  0.6227  0.0225 -0.8214
20029TIP3    H181578   5.940   5.214   0.608  0.7266 -0.6484  1.5368
20029TIP3    H281579   5.884   5.074   0.600 -0.1063 -0.2209 -1.4025
20030TIP3   OH281580   3.863   3.851  14.470 -0.1836  0.5982 -0.4360
20030TIP3    H181581   3.901   3.900  14.542  0.7081  1.1991 -1.2996
20030TIP3    H281582   3.878   3.904  14.393  0.4143 -0.8149 -1.3381
20031TIP3   OH281583   2.554   2.603   3.743 -0.2316 -0.2766  0.1510
20031TIP3    H181584   2.500   2.558   3.807 -1.2960 -1.2601 -1.3772
20031TIP3    H281585   2.528   2.567   3.659  1.4890  0.5832 -0.8258
20032TIP3   OH281586   5.286   1.748   0.435  0.5131  0.3184 -0.4470
20032TIP3    H181587   5.346   1.735   0.508 -0.5119 -1.6819  0.0990
20032TIP3    H281588   5.217   1.803   0.471 -0.8203 -1.9503  0.6680
20033TIP3   OH281589   0.683   4.480   1.818  0.6992  0.2879 -0.2505
20033TIP3    H181590   0.631   4.545   1.770 -0.1214 -0.8661 -0.9469
20033TIP3    H281591   0.648   4.396   1.792  0.7847 -0.4331  1.7609
20034TIP3   OH281592   1.555   1.637   4.173 -0.0118  0.6817  0.1000
20034TIP3    H181593   1.596   1.675   4.096  1.2484 -1.8766 -0.6322
20034TIP3    H281594   1.629   1.613   4.229 -0.8199  0.8078  1.2447
20035TIP3   OH281595   5.183   4.434  12.045  0.0503  0.5254  0.3893
20035TIP3    H181596   5.252   4.460  11.983  1.1309 -1.0629  0.8583
20035TIP3    H281597   5.229   4.427  12.129 -1.0082  0.8090  1.0069
20036TIP3   OH281598   5.013   4.514  11.829  0.1590 -0.2322  0.5148
20036TIP3    H181599   5.062   4.464  11.763  0.2104  0.0642  0.3285
20036TIP3    H281600   5.044   4.480  11.912  0.6471 -0.0806  0.3971
20037TIP3   OH281601   5.027   6.731   4.205 -0.2057  0.0048  0.2122
20037TIP3    H181602   5.016   6.771   4.119  0.8648  0.3751  0.2327
20037TIP3    H281603   5.009   6.638   4.190 -1.5238  0.2819 -0.0797
20038TIP3   OH281604   2.989   6.590   1.505  0.4187 -0.1566  0.2966
20038TIP3    H181605   3.047   6.516   1.488  0.8226 -0.0073  0.9960
20038TIP3    H281606   2.997   6.606   1.599 -0.8728 -0.2301  0.4394
20039TIP3   OH281607   2.442   5.717  15.983 -0.2375 -0.0377  0.1415
20039TIP3    H181608   2.525   5.754  16.011  0.5585 -0.8423 -1.0441
20039TIP3    H281609   2.434   5.744  15.891 -1.4683  0.3378  0.3467
20040TIP3   OH281610   3.276   5.947  10.442 -0.3311  0.0847 -0.0324
20040TIP3    H181611   3.245   5.857  10.436  0.5388 -0.3207  1.1258
20040TIP3    H281612   3.200   6.000  10.420 -1.8871 -0.8681  2.5166
20041TIP3   OH281613   6.018   4.171  12.245 -0.1690 -0.1118  0.1133
20041TIP3    H181614   6.051   4.248  12.198 -0.7184 -0.2924 -0.5814
20041TIP3    H281615   5.928   4.194  12.268  0.5109  0.5550  2.3945
20042TIP3   OH281616   4.881   4.603  15.552  0.2984 -0.0431  0.7238
20042TIP3    H181617   4.872   4.598  15.457  0.2642 -0.6144  0.7534
20042TIP3    H281618   4.972   4.628  15.567  0.4419 -0.4693  0.5523
20043TIP3   OH281619   0.476   0.396   0.842  0.1190  0.3416 -0.3943
20043TIP3    H181620   0.523   0.323   0.800 -2.3194 -1.6286  0.1037
20043TIP3    H281621   0.544   0.462   0.857  2.4122 -1.7054 -1.0916
20044TIP3   OH281622   4.976   0.746  10.703 -0.0049  0.0742  0.1193
20044TIP3    H181623   5.055   0.693  10.706  0.0663  0.1864  0.2496
20044TIP3    H281624   5.001   0.825  10.656 -0.2883 -0.2952 -0.6600
20045TIP3   OH281625   1.892   2.670   2.141 -0.0571  0.1925  0.1054
20045TIP3    H181626   1.948   2.699   2.070  0.0895 -0.6761 -0.1431
20045TIP3    H281627   1.891   2.574   2.134 -1.8028  0.1796 -0.0975
20046TIP3   OH281628   5.748   3.231  17.238  0.3683  0.8276 -0.5576
20046TIP3    H181629   5.754   3.315  17.192  1.3866  1.8154  1.2814
20046TIP3    H281630   5.696   3.250  17.316 -1.2430 -0.7914 -1.1883
20047TIP3   OH281631   4.458   0.661   4.598  0.1825 -0.0868 -0.1799
20047TIP3    H181632   4.371   0.665   4.557  0.7461 -0.9748 -1.5056
20047TIP3    H281633   4.480   0.752   4.616 -0.8283  0.1866 -0.2605
20048TIP3   OH281634   4.875   6.397  13.571 -0.0901 -1.0330  0.0819
20048TIP3    H181635   4.952   6.341  13.569  0.1195 -0.7221 -1.4304
20048TIP3    H281636   4.872   6.437  13.485  0.4159  2.2101  1.4245
20049TIP3   OH281637   6.363   3.920  11.590 -0.1453 -0.2546  0.0741
20049TIP3    H181638   6.385   3.858  11.520 -0.5330  1.8162 -2.0082
20049TIP3    H281639   6.380   3.872  11.671 -0.0225 -2.8944 -1.4150
20050TIP3   OH281640   2.294   0.376   6.133  0.3007  0.0062  0.5648
20050TIP3    H181641   2.347   0.401   6.208  0.6571 -1.0805  0.6942
20050TIP3    H281642   2.204   0.393   6.161  0.4292 -0.3703  1.2435
20051TIP3   OH281643   5.952   4.110  15.942  0.3978  0.1357 -0.4096
20051TIP3    H181644   5.958   4.015  15.935 -0.9012 -0.0679  0.6769
20051TIP3    H281645   6.018   4.134  16.007 -0.4879 -0.2838  0.6921
20052TIP3   OH281646   6.336   5.765  10.550  0.0984 -0.1890 -0.0892
20052TIP3    H181647   6.287   5.716  10.484 -1.0479 -0.8765  1.2314
20052TIP3    H281648   6.413   5.798  10.503 -0.8200 -0.4171 -1.8250
20053TIP3   OH281649   2.488   5.005  14.475  0.4266 -0.6707  0.4796
20053TIP3    H181650   2.548   5.066  14.519  0.0809 -0.2841  0.4239
20053TIP3    H281651   2.414   4.997  14.535  0.7632 -1.5528  0.7862
20054TIP3   OH281652   4.975   5.333  14.402  0.5230 -0.2285  0.3808
20054TIP3    H181653   5.033   5.401  14.436 -0.9667  0.5132  1.5920
20054TIP3    H281654   4.934   5.372  14.325  1.7613 -0.8478 -0.6329
20055TIP3   OH281655   3.865   5.599  13.907 -0.2004  0.0639 -0.0518
20055TIP3    H181656   3.936   5.569  13.963  1.1475  0.1553 -1.6234
20055TIP3    H281657   3.807   5.523  13.897  0.3035 -0.3691  0.3169
20056TIP3   OH281658   1.544   5.517  12.542  0.1002 -1.1121 -0.2863
20056TIP3    H181659   1.624   5.521  12.595  1.0207 -1.4138 -1.6109
20056TIP3    H281660   1.550   5.433  12.497  0.6164  0.1665 -2.7771
20057TIP3   OH281661   4.936   2.235   3.383  0.6755 -0.0877  0.0944
20057TIP3    H181662   4.998   2.184   3.332  1.9266  0.3888  1.0979
20057TIP3    H281663   4.990   2.293   3.436 -0.5402 -0.5216  1.9099
20058TIP3   OH281664   5.550   1.283  10.860  0.2155  0.1989  0.0759
20058TIP3    H181665   5.473   1.250  10.907 -0.0006  2.9615  1.8740
20058TIP3    H281666   5.612   1.210  10.862 -0.9935 -0.8494  1.8803
20059TIP3   OH281667   6.137   0.932   5.809  0.1140  0.0832 -0.1432
20059TIP3    H181668   6.052   0.944   5.852  0.6069  1.1501  0.5704
20059TIP3    H281669   6.183   1.015   5.824  1.6084 -0.7834  0.2147
20060TIP3   OH281670   4.607   5.025  14.463 -0.3182 -0.7359  0.2403
20060TIP3    H181671   4.532   5.083  14.452 -0.0441 -0.2406  0.9300
20060TIP3    H281672   4.611   5.007  14.557  1.3653  0.5332  0.4694
20061TIP3   OH281673   5.759   1.871   3.289 -0.0491  0.3492 -0.4479
20061TIP3    H181674   5.837   1.861   3.234  0.7155 -0.1932  0.6945
20061TIP3    H281675   5.695   1.916   3.233  0.9918  0.5712 -1.4869
20062TIP3   OH281676   2.769   3.915   3.111 -0.0100 -0.4191  0.3016
20062TIP3    H181677   2.860   3.890   3.124 -0.0953 -1.6760 -1.2190
20062TIP3    H281678   2.719   3.835   3.130 -0.7892  0.1671  0.8160
20063TIP3   OH281679   4.052   2.640  12.679  0.5628 -0.2951  0.1910
20063TIP3    H181680   4.135   2.629  12.632  0.6866 -0.0228  0.3409
20063TIP3    H281681   3.993   2.576  12.639  0.3390  0.6751 -1.0792
20064TIP3   OH281682   2.134   0.797  12.657  0.6046  0.4014 -0.1182
20064TIP3    H181683   2.157   0.819  12.567 -1.8397 -1.5005 -1.3484
20064TIP3    H281684   2.049   0.838  12.672 -0.7669 -2.1889 -0.0855
20065TIP3   OH281685   3.367   5.795  15.339 -0.2536 -0.0152 -0.6074
20065TIP3    H181686   3.379   5.876  15.389  0.6803  0.1649 -1.0908
20065TIP3    H281687   3.298   5.749  15.385  0.7998 -0.0202  1.0789
20066TIP3   OH281688   5.213   6.313   4.224  0.2152  0.3809  0.1044
20066TIP3    H181689   5.131   6.284   4.264  0.1885  0.4211  0.0796
20066TIP3    H281690   5.186   6.380   4.161  0.3274  0.8773  0.5740
20067TIP3   OH281691   0.819   3.610  17.180 -0.2018 -0.3384  0.1787
20067TIP3    H181692   0.803   3.670  17.107 -0.8546  1.2344  1.5537
20067TIP3    H281693   0.913   3.592  17.175 -0.2044 -0.1207 -0.9296
20068TIP3   OH281694   1.257   5.566  12.944 -0.2687  0.1074  0.1354
20068TIP3    H181695   1.262   5.477  12.909  0.7419 -0.2954  1.2285
20068TIP3    H281696   1.164   5.581  12.961 -0.3677 -1.0537  0.7016
20069TIP3   OH281697   0.131   3.317   1.270  0.0246  0.1126  0.4193
20069TIP3    H181698   0.058   3.372   1.298 -0.5423 -0.1335 -0.5280
20069TIP3    H281699   0.092   3.232   1.250  0.1553  0.6187 -2.2832
20070TIP3   OH281700   4.332   6.520   1.383  0.3815  0.2034  0.0431
20070TIP3    H181701   4.426   6.503   1.373  0.5263  0.8801  0.2092
20070TIP3    H281702   4.306   6.466   1.458  0.8164  0.6435  0.5182
20071TIP3   OH281703   4.431   4.973   3.221 -0.9667  0.0088  0.4872
20071TIP3    H181704   4.485   4.938   3.292  0.6587 -1.4266 -1.3546
20071TIP3    H281705   4.475   4.945   3.141 -2.5760  1.7918 -1.1319
20072TIP3   OH281706   1.065   4.194   4.737 -0.2565 -0.1993 -0.5986
20072TIP3    H181707   1.028   4.122   4.789 -0.2041  0.1587 -0.0692
20072TIP3    H281708   0.988   4.239   4.702 -0.2896 -0.9111 -1.4988
20073TIP3   OH281709   2.689   0.684  13.956  0.0382  0.0424  0.0620
20073TIP3    H181710   2.718   0.763  13.910 -0.7021  0.2067 -0.1339
20073TIP3    H281711   2.756   0.619  13.935 -0.6390 -0.1065 -1.9055
20074TIP3   OH281712   3.291   1.046  15.612 -0.0020  0.4454  0.3342
20074TIP3    H181713   3.264   1.135  15.591 -1.3171  0.1894  0.8103
20074TIP3    H281714   3.298   1.044  15.707  1.0686  0.3087  0.2629
20075TIP3   OH281715   3.906   5.154   1.664  0.1172  0.3891  0.3436
20075TIP3    H181716   3.984   5.155   1.608  1.1436  0.1147  1.7217
20075TIP3    H281717   3.839   5.112   1.609  1.4459 -1.0880 -0.2628
20076TIP3   OH281718   3.635   2.661   0.412 -0.1045  0.6383 -0.2301
20076TIP3    H181719   3.690   2.671   0.334  0.9068  0.4280  0.4317
20076TIP3    H281720   3.630   2.749   0.449 -0.0823  0.6314 -0.2106
20077TIP3   OH281721   6.502   1.972   3.252  0.1734  0.4835 -0.2089
20077TIP3    H181722   6.430   2.035   3.260 -0.9801 -0.9296  1.0061
20077TIP3    H281723   6.459   1.888   3.240  1.6856 -0.2106 -1.0427
20078TIP3   OH281724   3.443   1.903  14.267 -0.1472 -0.2203 -0.3588
20078TIP3    H181725   3.360   1.857  14.286  0.4347 -1.3249 -0.3984
20078TIP3    H281726   3.473   1.864  14.185  0.9068 -0.5530  0.1706
20079TIP3   OH281727   0.139   2.472  16.095  0.7276  0.0317  0.0086
20079TIP3    H181728   0.173   2.542  16.151  1.8502  0.4615 -1.1471
20079TIP3    H281729   0.108   2.518  16.016 -0.9497 -0.5443  0.2947
20080TIP3   OH281730   3.368   0.289   0.032  0.1656 -0.0103 -0.3752
20080TIP3    H181731   3.393   0.381   0.026  0.0766  0.1209  0.9453
20080TIP3    H281732   3.289   0.289   0.086 -0.8013 -0.7247 -1.7102
20081TIP3   OH281733   1.066   6.178  11.598 -0.1563 -0.5072 -0.2116
20081TIP3    H181734   1.033   6.088  11.601 -1.6485  0.0244  0.4547
20081TIP3    H281735   1.153   6.170  11.558 -0.6222 -2.1227 -1.0030
20082TIP3   OH281736   4.665   1.241   4.173  0.6733 -0.2794 -0.0334
20082TIP3    H181737   4.649   1.225   4.080 -0.1242 -2.9136  0.4723
20082TIP3    H281738   4.579   1.265   4.208  0.3847 -1.9020  0.4457
20083TIP3   OH281739   5.578   6.299  14.871  0.3978  0.7190  0.2166
20083TIP3    H181740   5.586   6.354  14.793 -0.8952  1.5465  0.6439
20083TIP3    H281741   5.667   6.269  14.888  0.7190  0.5528 -1.5393
20084TIP3   OH281742   0.178   2.822   4.480 -0.0365 -0.0143 -0.5356
20084TIP3    H181743   0.165   2.913   4.508  1.5273  0.6000 -1.7231
20084TIP3    H281744   0.272   2.809   4.482 -0.2594 -1.8497  0.2276
20085TIP3   OH281745   1.933   2.348  11.506  0.6309 -0.1223 -0.1387
20085TIP3    H181746   1.912   2.395  11.586  1.9872  0.7631 -0.2576
20085TIP3    H281747   1.850   2.341  11.459 -0.0517 -0.0752  1.0405
20086TIP3   OH281748   4.823   6.807  14.066  0.2324 -0.5082 -0.0544
20086TIP3    H181749   4.869   6.888  14.045  0.1765 -0.0950  1.3279
20086TIP3    H281750   4.736   6.818  14.027  0.1631  0.1757  0.2859
20087TIP3   OH281751   2.424   5.116  12.197  0.7156  0.6900 -0.0799
20087TIP3    H181752   2.490   5.064  12.150  1.1852  0.3793  0.8985
20087TIP3    H281753   2.399   5.062  12.272 -0.0280  1.1719  0.0309
20088TIP3   OH281754   6.422   1.237   2.090  0.0931 -0.3188  0.1631
20088TIP3    H181755   6.330   1.242   2.064 -0.4681  0.2143  2.0668
20088TIP3    H281756   6.470   1.241   2.008 -1.5547  0.1713 -0.8341
20089TIP3   OH281757   0.058   2.728   3.854  0.1503  0.2143 -0.4585
20089TIP3    H181758  -0.013   2.680   3.896  0.4622 -0.6987 -0.9300
20089TIP3    H281759   0.114   2.757   3.927  1.1371 -2.0682 -0.2053
20090TIP3   OH281760   0.060   4.482   2.284  0.5787  0.0782  0.4826
20090TIP3    H181761   0.029   4.454   2.198  1.3562  0.7043 -0.0176
20090TIP3    H281762   0.100   4.403   2.322 -0.9384 -0.5432  0.8422
20091TIP3   OH281763   2.727   2.836   3.771  0.1415  0.3167  0.2756
20091TIP3    H181764   2.802   2.777   3.761 -0.4648 -0.4156 -0.0962
20091TIP3    H281765   2.651   2.781   3.753 -0.5418  0.8635  1.3938
20092TIP3   OH281766   1.226   4.741  14.379  0.2020  0.1023  0.3776
20092TIP3    H181767   1.320   4.732  14.397 -0.0529 -1.7393  0.9719
20092TIP3    H281768   1.213   4.835  14.367  2.1711  0.3604 -0.0063
20093TIP3   OH281769   5.683   5.707   1.485  0.5993  0.2736  0.2612
20093TIP3    H181770   5.605   5.674   1.529  1.0842 -1.9168 -0.4171
20093TIP3    H281771   5.648   5.765   1.416 -0.3874 -0.1548  0.3807
20094TIP3   OH281772   5.771   6.403  15.565  0.2844 -0.8185  0.0011
20094TIP3    H181773   5.743   6.494  15.577  1.6704 -0.4140  0.4599
20094TIP3    H281774   5.694   6.351  15.586 -0.0699  0.2113  1.4041
20095TIP3   OH281775   6.234   4.806  16.223 -0.1062 -0.5408  0.4899
20095TIP3    H181776   6.313   4.808  16.168 -0.3097 -1.5194  0.1389
20095TIP3    H281777   6.258   4.856  16.301  0.0018  1.4015 -0.7271
20096TIP3   OH281778   6.482   6.210  13.566  0.3387  0.1874  0.1983
20096TIP3    H181779   6.477   6.185  13.474  0.3453  0.6643  0.0651
20096TIP3    H281780   6.502   6.128  13.612  0.9036  0.0436 -0.2847
20097TIP3   OH281781   6.350   6.223   1.924  0.1210 -0.0418  0.3167
20097TIP3    H181782   6.279   6.169   1.890 -0.3913  0.6104  0.3279
20097TIP3    H281783   6.414   6.226   1.853 -1.2146  1.8199 -0.8931
20098TIP3   OH281784   4.525   2.102   4.603  0.0952  0.6280 -0.7038
20098TIP3    H181785   4.452   2.108   4.541  0.4038  1.0726 -1.0392
20098TIP3    H281786   4.580   2.032   4.568  0.3101  0.9319 -0.9902
20099TIP3   OH281787   1.754   1.475   1.381 -0.2087 -0.0198 -0.3308
20099TIP3    H181788   1.815   1.548   1.373  1.9926 -1.6503  0.6910
20099TIP3    H281789   1.746   1.460   1.475 -1.3308 -0.5507 -0.4935
20100TIP3   OH281790   4.707   1.467   6.012 -0.2208  0.2224  0.2755
20100TIP3    H181791   4.734   1.538   6.070 -2.4216 -0.3906  2.2021
20100TIP3    H281792   4.683   1.395   6.071 -1.3967 -0.8772 -1.4381
20101TIP3   OH281793   1.823   0.759  15.931  0.1414 -0.1150 -0.1361
20101TIP3    H181794   1.829   0.731  15.840 -0.6973 -0.7585 -0.0065
20101TIP3    H281795   1.733   0.789  15.942  0.0510 -0.6368  0.6343
20102TIP3   OH281796   1.246   0.744   2.250 -0.5346 -0.4056 -0.2082
20102TIP3    H181797   1.275   0.667   2.201  0.9672  0.2155 -0.3620
20102TIP3    H281798   1.205   0.800   2.184  1.4151  0.3960 -0.8223
20103TIP3   OH281799   4.187   0.189  16.707  0.4648 -0.3850  0.2136
20103TIP3    H181800   4.138   0.269  16.728  0.4930 -0.0821 -0.8195
20103TIP3    H281801   4.275   0.219  16.688 -0.0012 -0.3528 -2.2476
20104TIP3   OH281802   2.360   2.936   1.659 -0.1314  0.2309 -0.7462
20104TIP3    H181803   2.341   2.901   1.572 -1.7021 -1.5230  0.2113
20104TIP3    H281804   2.279   2.980   1.685  0.2186  0.4874 -0.0715
20105TIP3   OH281805   2.989   5.054   2.247 -0.1295  0.5239  0.0554
20105TIP3    H181806   2.991   5.043   2.342 -0.7264 -0.6759 -0.0523
20105TIP3    H281807   3.081   5.059   2.221  0.1696 -1.6637  0.4559
20106TIP3   OH281808   2.951   1.148  12.808 -0.1218  0.8426  0.3021
20106TIP3    H181809   2.866   1.133  12.765 -0.0127  1.4649 -0.1446
20106TIP3    H281810   2.939   1.231  12.855  0.1139  0.7261  0.5640
20107TIP3   OH281811   4.732   1.755   5.115  0.2242  0.1060 -0.4023
20107TIP3    H181812   4.818   1.784   5.145  1.0053  0.3968 -2.7109
20107TIP3    H281813   4.739   1.660   5.109  0.0367  0.0378  0.3287
20108TIP3   OH281814   3.531   0.052   5.352 -0.0745 -0.3426  0.5056
20108TIP3    H181815   3.460   0.089   5.301  0.2240 -1.5438 -0.8484
20108TIP3    H281816   3.611   0.086   5.312  0.1461 -0.4612  0.8403
20109TIP3   OH281817   6.731   0.829  12.351  0.1085  0.0038 -0.1560
20109TIP3    H181818   6.751   0.915  12.314 -0.4500 -0.2738 -1.1414
20109TIP3    H281819   6.778   0.767  12.294 -2.0408 -0.5434 -1.4497
20110TIP3   OH281820   5.666   2.273  12.527  0.1290 -0.0741  0.2370
20110TIP3    H181821   5.573   2.257  12.547 -0.3767  0.8815 -1.1835
20110TIP3    H281822   5.680   2.231  12.442  1.2334 -0.8990  0.8087
20111TIP3   OH281823   6.564   3.138  11.717  0.3620  0.1374 -0.2503
20111TIP3    H181824   6.492   3.109  11.772  0.1475  1.4787  0.1992
20111TIP3    H281825   6.631   3.168  11.778  0.6511  0.4219 -0.6989
20112TIP3   OH281826   4.263   6.445  13.465  0.3016 -1.0361 -0.0696
20112TIP3    H181827   4.358   6.435  13.474  0.3630 -2.0759 -1.4661
20112TIP3    H281828   4.227   6.360  13.493 -0.1411 -0.9689 -0.4291
20113TIP3   OH281829   0.098   5.043   3.330  0.1543 -0.1214  0.2269
20113TIP3    H181830   0.172   5.081   3.377 -0.4104  1.8865 -0.4083
20113TIP3    H281831   0.051   4.992   3.397  0.9175  0.3584  1.1551
20114TIP3   OH281832   0.907   4.685   4.497  0.1210  0.0940  0.1315
20114TIP3    H181833   0.927   4.777   4.483 -1.3178  0.8963  2.6281
20114TIP3    H281834   0.816   4.676   4.468 -0.1578 -0.1926  1.0464
20115TIP3   OH281835   1.076   0.957   5.097  0.2080 -0.1953 -0.2305
20115TIP3    H181836   1.152   0.902   5.113 -0.0601 -0.1280  1.5470
20115TIP3    H281837   1.071   1.013   5.174 -0.3555  1.3515 -1.3381
20116TIP3   OH281838   5.887   0.617  14.210 -0.0052 -0.5220  0.1220
20116TIP3    H181839   5.830   0.693  14.220 -1.3158 -1.6097  1.2626
20116TIP3    H281840   5.851   0.552  14.270  2.0113 -1.5143  0.3352
20117TIP3   OH281841   5.523   0.760  15.036  0.0497  0.2093  0.0290
20117TIP3    H181842   5.496   0.829  14.976 -0.0754 -0.6852 -0.9796
20117TIP3    H281843   5.441   0.725  15.071  0.1467  1.5420  1.7341
20118TIP3   OH281844   4.876   1.940  12.642 -0.4722  0.4557 -0.3765
20118TIP3    H181845   4.811   1.873  12.621  0.0162  0.0148 -0.4958
20118TIP3    H281846   4.935   1.942  12.566  1.3515 -1.2031  0.9214
20119TIP3   OH281847   1.849   1.287   6.301  0.1890  0.8843 -0.1123
20119TIP3    H181848   1.775   1.344   6.279  0.1457  0.6160 -0.6774
20119TIP3    H281849   1.903   1.339   6.360 -1.0051  0.6961  1.1810
20120TIP3   OH281850   2.763   6.698  15.201  0.3722 -0.0401 -0.1057
20120TIP3    H181851   2.710   6.778  15.202  2.1553  1.2215 -0.7477
20120TIP3    H281852   2.759   6.668  15.110  2.5146  1.3763 -0.7426
20121TIP3   OH281853   3.682   4.361   3.563  0.2655 -0.5905  0.1652
20121TIP3    H181854   3.671   4.416   3.640  1.1126 -2.1320  1.4428
20121TIP3    H281855   3.665   4.272   3.594  1.0681 -1.3014 -1.3195
20122TIP3   OH281856   4.678   3.561   5.469  0.3626 -0.2489 -0.3737
20122TIP3    H181857   4.692   3.562   5.374  1.9159 -1.6664 -0.2144
20122TIP3    H281858   4.596   3.513   5.481 -0.5594  1.1177 -1.0372
20123TIP3   OH281859   1.788   6.803   0.313 -0.4665  0.0751 -0.1714
20123TIP3    H181860   1.696   6.778   0.309 -0.4807  0.0598  0.1851
20123TIP3    H281861   1.833   6.742   0.255 -0.2577 -1.9188  1.9460
20124TIP3   OH281862   6.094   3.447  11.258 -0.2202  0.0912  0.0842
20124TIP3    H181863   6.179   3.468  11.296  0.0638  0.4735 -0.7287
20124TIP3    H281864   6.111   3.437  11.164 -1.4826  2.8497 -0.5537
20125TIP3   OH281865   1.529   2.235  12.524  0.1277  0.5012  0.6968
20125TIP3    H181866   1.491   2.279  12.601 -0.9129  0.1506  0.3986
20125TIP3    H281867   1.609   2.285  12.506 -0.0277  1.0829  1.5240
20126TIP3   OH281868   3.627   1.089   1.950  0.1238  0.2925 -1.0838
20126TIP3    H181869   3.700   1.150   1.939 -0.5015  1.5511  1.1613
20126TIP3    H281870   3.554   1.132   1.903 -0.1649  1.0395  0.0093
20127TIP3   OH281871   2.545   6.293   2.291  0.7343 -0.4418 -0.2090
20127TIP3    H181872   2.512   6.215   2.336  2.1946 -0.1875  1.4235
20127TIP3    H281873   2.487   6.364   2.320 -0.4528 -0.8256 -1.5157
20128TIP3   OH281874   4.417   1.924  15.405 -0.1316  0.0038 -0.3982
20128TIP3    H181875   4.436   2.018  15.402 -1.4491  0.2749 -0.6854
20128TIP3    H281876   4.322   1.918  15.396 -0.0771 -1.3593 -0.2889
20129TIP3   OH281877   1.203   0.223  15.361 -0.5525 -0.0507 -0.0365
20129TIP3    H181878   1.231   0.136  15.390 -1.2796 -0.2142  0.1913
20129TIP3    H281879   1.241   0.283  15.426  1.9551  0.0632 -1.4768
20130TIP3   OH281880   0.842   5.682   4.080 -0.2245 -0.6636  0.4145
20130TIP3    H181881   0.888   5.738   4.018  1.0404 -1.9442  0.1099
20130TIP3    H281882   0.832   5.736   4.159 -1.4535  0.8305 -0.7068
20131TIP3   OH281883   4.660   6.703   0.028 -0.3721 -0.1372  0.6727
20131TIP3    H181884   4.677   6.613   0.056  0.6358 -0.2676 -0.2821
20131TIP3    H281885   4.594   6.695  -0.041 -1.2546 -0.0085  1.4810
20132TIP3   OH281886   0.821   2.083   3.095  0.4912  0.0650 -0.4405
20132TIP3    H181887   0.871   2.007   3.063 -1.4300 -0.4528 -2.5215
20132TIP3    H281888   0.765   2.047   3.164  1.1732  0.1101  0.1494
20133TIP3   OH281889   6.060   0.149  12.039 -0.1626  0.2773 -0.0421
20133TIP3    H181890   6.065   0.108  11.953 -0.3154 -0.2382  0.1848
20133TIP3    H281891   5.996   0.219  12.030  1.0522  1.3284 -0.7728
20134TIP3   OH281892   5.401   4.446   5.828  0.0619 -0.2671 -0.1196
20134TIP3    H181893   5.388   4.412   5.917  2.1492  1.4610  0.9609
20134TIP3    H281894   5.341   4.520   5.821 -0.5710 -0.7990 -0.4211
20135TIP3   OH281895   1.334   0.067  15.793  0.2717 -0.1138 -0.2139
20135TIP3    H181896   1.241   0.046  15.796  0.3009 -0.1737  0.2807
20135TIP3    H281897   1.346   0.108  15.707 -0.3370  0.4942 -0.0188
20136TIP3   OH281898   4.391   5.423   0.657  0.2156 -0.6583  0.2708
20136TIP3    H181899   4.432   5.340   0.634  0.1875 -0.7199  0.4403
20136TIP3    H281900   4.391   5.474   0.576  1.2859 -0.3857  0.4265
20137TIP3   OH281901   4.354   5.709  12.659 -0.4484  0.1020  0.4179
20137TIP3    H181902   4.273   5.756  12.639 -0.0887  0.4010 -0.3998
20137TIP3    H281903   4.333   5.617  12.640 -0.7576  0.1070  0.7338
20138TIP3   OH281904   2.809   1.328   0.086  0.2213 -0.5536 -0.4063
20138TIP3    H181905   2.882   1.352   0.143 -0.5134  0.4680  0.1337
20138TIP3    H281906   2.792   1.236   0.105  1.8014 -1.0001 -1.0392
20139TIP3   OH281907   3.142   4.372   1.243  0.6399  0.1302 -0.4931
20139TIP3    H181908   3.160   4.418   1.325  1.5141 -2.1987  0.6985
20139TIP3    H281909   3.229   4.350   1.209  0.2487 -0.2275 -1.2873
20140TIP3   OH281910   2.575   2.036  10.916 -0.8462 -0.2247 -0.4342
20140TIP3    H181911   2.497   2.076  10.879 -2.1522 -1.4160  0.8982
20140TIP3    H281912   2.646   2.097  10.895 -2.4856  2.0709  0.2905
20141TIP3   OH281913   3.980   2.145   4.650  0.2659  0.8707 -0.0172
20141TIP3    H181914   4.051   2.207   4.631  0.9037  0.6029  1.3671
20141TIP3    H281915   3.991   2.124   4.743 -0.3147 -0.8252 -0.3007
20142TIP3   OH281916   4.121   5.055   1.057 -0.0302 -0.0628 -0.1289
20142TIP3    H181917   4.052   5.122   1.047  0.2698  0.0858 -1.3459
20142TIP3    H281918   4.162   5.076   1.141 -0.1063  1.1472 -0.3656
20143TIP3   OH281919   4.558   6.711   4.313 -0.4006 -0.5615  0.6725
20143TIP3    H181920   4.514   6.645   4.367  1.1446 -1.3327  1.0639
20143TIP3    H281921   4.594   6.773   4.376  3.3798 -2.6704  0.9043
20144TIP3   OH281922   6.291   2.890   0.525 -0.6012  0.2902  0.4291
20144TIP3    H181923   6.228   2.947   0.480 -1.1183  1.9110  3.0044
20144TIP3    H281924   6.247   2.863   0.605  1.3247 -0.0096  1.4616
20145TIP3   OH281925   1.369   1.551   2.847 -0.1816  0.5092  0.1150
20145TIP3    H181926   1.287   1.593   2.822 -0.0332  0.0233 -1.2281
20145TIP3    H281927   1.428   1.567   2.773  0.2541 -1.0380  0.1072
20146TIP3   OH281928   2.311   6.197  13.433  0.2240  0.1888  0.0714
20146TIP3    H181929   2.373   6.204  13.361  0.9382  0.8849  0.7438
20146TIP3    H281930   2.305   6.103  13.450  0.7881  0.0904 -0.2588
20147TIP3   OH281931   1.387   3.226  11.797 -0.1276  0.0306 -0.7224
20147TIP3    H181932   1.417   3.314  11.817 -1.0372  0.0021  1.0579
20147TIP3    H281933   1.303   3.219  11.843  0.0092 -1.8024 -0.6755
20148TIP3   OH281934   3.819   4.788   2.597  1.0533 -0.2606 -0.0099
20148TIP3    H181935   3.891   4.771   2.659  1.6867  3.8399  0.6903
20148TIP3    H281936   3.742   4.797   2.652  1.2149  1.2798  0.0044
20149TIP3   OH281937   2.636   4.042  13.658 -0.2630 -0.7105 -0.0443
20149TIP3    H181938   2.668   4.121  13.702 -0.1254 -0.2512 -0.9578
20149TIP3    H281939   2.685   3.971  13.699 -0.7862 -0.3958  1.1824
20150TIP3   OH281940   2.449   1.009  15.976 -0.8425  0.7589 -0.1939
20150TIP3    H181941   2.457   1.009  15.880 -1.2485 -1.1367 -0.2683
20150TIP3    H281942   2.489   1.092  16.003  0.8138  0.5858 -1.8889
20151TIP3   OH281943   5.454   2.626   2.391  0.6718 -0.7381 -0.0495
20151TIP3    H181944   5.502   2.570   2.453 -0.4352 -2.1076 -0.3809
20151TIP3    H281945   5.450   2.711   2.435 -0.3207 -1.7350  1.9379
20152TIP3   OH281946   0.312   4.387  11.712 -0.4814  0.2650 -0.0628
20152TIP3    H181947   0.336   4.313  11.657  2.4984  0.8546  0.2588
20152TIP3    H281948   0.322   4.463  11.654 -1.0247  0.6230  0.3065
20153TIP3   OH281949   3.675   0.534   6.197 -0.1131 -0.3166  0.3453
20153TIP3    H181950   3.768   0.554   6.202 -0.3488  0.7162  0.9291
20153TIP3    H281951   3.631   0.619   6.207 -1.0883 -0.4738 -1.9995
20154TIP3   OH281952   2.573   1.750   4.045  0.1228 -0.0938 -0.2848
20154TIP3    H181953   2.562   1.757   4.140 -0.2542  0.2742 -0.3516
20154TIP3    H281954   2.503   1.691   4.017 -1.4390  1.8275 -0.6442
20155TIP3   OH281955   0.364   1.188  17.251  0.1036  0.3642 -0.0668
20155TIP3    H181956   0.326   1.143  17.326  2.0490  0.2279  0.9198
20155TIP3    H281957   0.417   1.259  17.290  0.9849  0.4184 -1.3032
20156TIP3   OH281958   5.835   0.246   5.553  0.0925 -0.2187 -0.2082
20156TIP3    H181959   5.879   0.296   5.622 -0.7231  0.7322 -0.3444
20156TIP3    H281960   5.890   0.256   5.476  0.5243 -0.5065  0.0555
20157TIP3   OH281961   4.991   1.672  11.083 -0.3864  0.0948 -0.5314
20157TIP3    H181962   5.046   1.657  11.006  0.0774 -0.8156 -0.0407
20157TIP3    H281963   5.029   1.617  11.151 -1.9016 -0.5685 -0.1780
20158TIP3   OH281964   2.423   1.584  17.252  0.5544  0.0649  0.1120
20158TIP3    H181965   2.431   1.591  17.347  1.2737  0.4007  0.0356
20158TIP3    H281966   2.448   1.494  17.231 -1.8178 -0.7397  0.4337
20159TIP3   OH281967   2.736   1.686  11.321  0.5024  0.1955 -0.3931
20159TIP3    H181968   2.740   1.764  11.377 -1.1452 -0.0527  0.1047
20159TIP3    H281969   2.757   1.614  11.381  0.0339  0.0584 -0.3949
20160TIP3   OH281970   0.586   6.699   2.940  0.3186  0.3057 -0.4751
20160TIP3    H181971   0.596   6.669   3.031  0.5351 -0.5081 -0.7580
20160TIP3    H281972   0.568   6.620   2.891  0.1490  0.7532 -1.1423
20161TIP3   OH281973   6.153   0.369   2.145  0.0543 -0.0392 -0.7817
20161TIP3    H181974   6.180   0.325   2.064  0.8158 -1.0535 -0.0085
20161TIP3    H281975   6.182   0.310   2.215 -0.5180  0.8522  0.2380
20162TIP3   OH281976   5.972   4.052   5.134 -0.0974  0.0114  0.3676
20162TIP3    H181977   6.004   4.004   5.057 -1.2500  0.4145 -0.3962
20162TIP3    H281978   6.049   4.096   5.169  0.1599  1.2178 -1.5874
20163TIP3   OH281979   3.668   0.792   3.562 -0.6301  0.0678 -0.1111
20163TIP3    H181980   3.673   0.697   3.549  1.3734 -0.0272  0.9479
20163TIP3    H281981   3.744   0.827   3.515 -1.3081  1.1549 -0.4324
20164TIP3   OH281982   5.140   4.352   5.714  0.3863 -0.5798 -0.3342
20164TIP3    H181983   5.073   4.311   5.770 -0.0898 -0.0340 -0.4962
20164TIP3    H281984   5.209   4.379   5.774  0.1480 -0.5328 -0.0799
20165TIP3   OH281985   2.207   3.128   3.631  0.0105  0.2594 -0.9084
20165TIP3    H181986   2.113   3.140   3.646  0.5269  2.9900  0.8665
20165TIP3    H281987   2.249   3.191   3.690  3.0369 -1.7269 -0.7048
20166TIP3   OH281988   3.345   0.207   1.666 -1.0330 -0.1713 -0.3057
20166TIP3    H181989   3.354   0.280   1.727  0.0983 -2.2230  2.1797
20166TIP3    H281990   3.398   0.233   1.590 -0.0112  1.2589  0.8318
20167TIP3   OH281991   0.632   2.962   2.598 -0.1290 -1.0279  0.3522
20167TIP3    H181992   0.673   2.948   2.512 -0.2116 -0.4630  0.2099
20167TIP3    H281993   0.570   2.890   2.608 -0.8385 -0.5720 -0.5178
20168TIP3   OH281994   2.088   3.507   1.428  0.3465 -0.1323  0.3135
20168TIP3    H181995   1.999   3.511   1.393  0.2532  1.9090  0.6745
20168TIP3    H281996   2.130   3.437   1.378 -1.1817 -0.5025 -0.5144
20169TIP3   OH281997   6.637   1.311   3.347  0.1382 -0.1455 -0.8355
20169TIP3    H181998   6.611   1.219   3.340 -1.6443  0.3118 -0.8330
20169TIP3    H281999   6.695   1.314   3.423 -0.7169 -1.0979 -0.1126
20170TIP3   OH282000   4.703   5.355  15.533  0.4902 -0.0990  0.0260
20170TIP3    H182001   4.623   5.337  15.482  1.1288  2.3006 -2.0432
20170TIP3    H282002   4.673   5.364  15.623 -1.3719 -0.4373 -0.5151
20171TIP3   OH282003   6.812   0.664   4.932 -0.4586 -0.1908  0.6109
20171TIP3    H182004   6.783   0.617   4.853 -0.9633 -1.4841  1.5205
20171TIP3    H282005   6.858   0.598   4.983 -1.0922  0.3289  1.8974
20172TIP3   OH282006   3.484   1.429   5.934  0.2163  0.0743  0.0046
20172TIP3    H182007   3.483   1.368   6.008 -2.6747  0.4889  0.4230
20172TIP3    H282008   3.522   1.378   5.862  1.3730 -0.9294  1.2721
20173TIP3   OH282009   3.560   1.272  14.853  0.2267 -0.2385  0.5087
20173TIP3    H182010   3.552   1.351  14.907 -0.3822  0.3019 -0.3514
20173TIP3    H282011   3.479   1.268  14.804  0.6251 -0.9206 -0.1137
20174TIP3   OH282012   2.206   1.246  16.938 -0.2468 -0.4759 -0.2278
20174TIP3    H182013   2.221   1.339  16.925  0.3023 -0.6128 -0.5984
20174TIP3    H282014   2.133   1.225  16.880  0.0691 -0.4108 -0.6540
20175TIP3   OH282015   5.280   4.878   3.869 -0.2154 -0.0711 -0.5939
20175TIP3    H182016   5.296   4.803   3.927  0.7104  1.1840  0.8387
20175TIP3    H282017   5.346   4.869   3.800 -0.1506 -0.6045 -0.4688
20176TIP3   OH282018   3.515   0.279  13.444  0.6301 -0.2226  0.0443
20176TIP3    H182019   3.431   0.242  13.472  0.1495 -1.2146 -2.4665
20176TIP3    H282020   3.572   0.270  13.521 -1.5207  0.5592  1.8467
20177TIP3   OH282021   3.655   0.985  12.274 -0.0272 -0.3480  0.2584
20177TIP3    H182022   3.579   1.015  12.324 -0.3074  1.6664 -1.2157
20177TIP3    H282023   3.626   0.903  12.233 -0.9915 -0.2281  0.6693
20178TIP3   OH282024   2.748   1.771   2.731  0.0892 -0.0898  0.0150
20178TIP3    H182025   2.678   1.727   2.779  0.7394 -0.1588  0.9267
20178TIP3    H282026   2.713   1.783   2.642 -1.6011  1.0722  0.7873
20179TIP3   OH282027   5.175   4.385  11.669  0.1376 -0.6891  0.1292
20179TIP3    H182028   5.186   4.386  11.574  1.8849 -0.8902  0.2934
20179TIP3    H282029   5.246   4.441  11.702  0.3428 -1.6374  1.3613
20180TIP3   OH282030   2.845   2.443  11.230  0.5976  0.0504 -0.7121
20180TIP3    H182031   2.919   2.465  11.288  0.9528 -1.9009 -0.3779
20180TIP3    H282032   2.774   2.421  11.290  1.4209 -3.5612 -0.8361
20181TIP3   OH282033   1.584   3.881   5.783 -0.0849 -0.0050  0.1956
20181TIP3    H182034   1.607   3.877   5.690 -0.2465  0.7144  0.1177
20181TIP3    H282035   1.530   3.803   5.798 -0.5477  0.1815 -0.4543
20182TIP3   OH282036   4.786   6.252  15.833  0.8861  0.1781  0.2322
20182TIP3    H182037   4.700   6.260  15.792 -0.2463 -2.0171  1.9348
20182TIP3    H282038   4.824   6.175  15.793  0.5281 -0.9117  1.8804
20183TIP3   OH282039   0.648   5.956   0.998 -0.5213  0.7278 -0.3546
20183TIP3    H182040   0.576   5.985   0.942 -0.8709  0.1788 -0.2011
20183TIP3    H282041   0.606   5.901   1.064  0.0408  0.3658 -0.2893
20184TIP3   OH282042   4.253   5.225  10.783 -0.2428  0.4987 -0.2013
20184TIP3    H182043   4.211   5.296  10.735 -0.4697  0.3475 -0.2298
20184TIP3    H282044   4.299   5.174  10.716 -0.8671  0.0739 -0.3115
20185TIP3   OH282045   1.410   2.293   2.328  0.6797  0.3287  0.2894
20185TIP3    H182046   1.439   2.326   2.413  2.0663 -1.5548  0.6305
20185TIP3    H282047   1.352   2.220   2.350 -1.2392  1.5674 -0.4265
20186TIP3   OH282048   1.310   4.209  12.520 -0.2921 -0.5593 -0.3178
20186TIP3    H182049   1.237   4.158  12.553 -1.0429  0.2112 -0.7513
20186TIP3    H282050   1.387   4.173  12.565 -1.3044  0.7796  2.7484
20187TIP3   OH282051   1.138   3.917   0.702  0.3960  0.0482  0.3006
20187TIP3    H182052   1.184   3.997   0.728 -0.0709  0.6000 -0.5081
20187TIP3    H282053   1.103   3.937   0.615 -0.6825 -0.6432  0.5600
20188TIP3   OH282054   0.587   0.565  12.162 -0.2413 -0.3106  0.3331
20188TIP3    H182055   0.598   0.616  12.082 -0.9606  0.2734  0.5995
20188TIP3    H282056   0.612   0.624  12.232 -1.9399 -0.0112  0.7084
20189TIP3   OH282057   3.436   3.625   0.228  0.0162 -0.5097 -0.1371
20189TIP3    H182058   3.455   3.676   0.149  0.1743  0.2567  0.3815
20189TIP3    H282059   3.490   3.666   0.296 -0.4325 -0.8954  0.4595
20190TIP3   OH282060   0.732   6.736  10.858  0.1925 -0.3654 -0.1987
20190TIP3    H182061   0.718   6.661  10.800  0.7174 -0.5275 -0.1252
20190TIP3    H282062   0.714   6.702  10.946  0.4235 -0.4102 -0.1661
20191TIP3   OH282063   6.677   2.231   5.376 -0.2528 -0.4332 -0.2885
20191TIP3    H182064   6.765   2.206   5.347  0.5352  0.0412  1.5513
20191TIP3    H282065   6.634   2.263   5.297  2.3105  2.3561 -0.7615
20192TIP3   OH282066   0.841   5.498  14.877  0.1381 -0.0248  0.2015
20192TIP3    H182067   0.858   5.549  14.798  0.7817 -0.6653 -0.0822
20192TIP3    H282068   0.813   5.412  14.845 -0.7783  0.0874  0.6742
20193TIP3   OH282069   3.106   0.146   5.326  0.2464  0.3297 -0.3037
20193TIP3    H182070   3.176   0.175   5.269  0.1355  0.4733 -0.3689
20193TIP3    H282071   3.026   0.159   5.275  0.1849  0.0300 -0.2833
20194TIP3   OH282072   2.136   5.624  14.602 -0.0394 -0.2980  0.1882
20194TIP3    H182073   2.075   5.594  14.670  0.2526 -1.7164 -0.1362
20194TIP3    H282074   2.087   5.615  14.520 -0.0635  0.5037  0.1016
20195TIP3   OH282075   0.816   0.210  12.720 -0.5221  0.2393 -0.0951
20195TIP3    H182076   0.863   0.199  12.638  0.9184 -0.4243  0.7770
20195TIP3    H282077   0.803   0.304  12.728 -1.9642  0.2376 -1.7318
20196TIP3   OH282078   4.621   2.137   1.305  0.0484  0.1059  0.3176
20196TIP3    H182079   4.592   2.228   1.307  1.4408  0.8077 -3.1669
20196TIP3    H282080   4.602   2.108   1.216  0.8978 -2.5754  0.9217
20197TIP3   OH282081   5.110   0.295  15.195  0.3538  0.5058  0.0402
20197TIP3    H182082   5.173   0.223  15.184  1.3052  1.3611 -0.2691
20197TIP3    H282083   5.101   0.333  15.108 -0.2328  0.7025  0.1810
20198TIP3   OH282084   0.509   4.587  11.616 -0.6129  0.9610 -0.3793
20198TIP3    H182085   0.490   4.542  11.533 -0.6002 -0.0086  0.1318
20198TIP3    H282086   0.602   4.571  11.632 -0.3780  1.9806 -0.6608
20199TIP3   OH282087   0.121   3.261  16.768 -0.1870  0.1089 -0.2137
20199TIP3    H182088   0.189   3.287  16.705  1.0635 -0.4800  0.8552
20199TIP3    H282089   0.123   3.330  16.834  0.1214 -0.4530  0.3732
20200TIP3   OH282090   4.834   2.478  11.745 -0.1475 -0.1378  0.2772
20200TIP3    H182091   4.745   2.451  11.767 -0.6108  2.0860  1.4858
20200TIP3    H282092   4.862   2.531  11.821  2.0402 -0.4251 -0.2652
20201TIP3   OH282093   4.145   2.342   0.568 -0.2500  0.4445  0.0766
20201TIP3    H182094   4.065   2.319   0.521 -0.3785  0.0395  0.4800
20201TIP3    H282095   4.120   2.338   0.661 -0.0487  1.4103  0.1776
20202TIP3   OH282096   3.429   4.546   0.914 -0.1232 -0.1357 -0.6674
20202TIP3    H182097   3.433   4.595   0.832  1.3351 -1.4376 -1.4265
20202TIP3    H282098   3.352   4.490   0.905 -0.4982  0.3790 -0.7315
20203TIP3   OH282099   0.249   4.039   2.897 -0.4013  0.2444 -0.4360
20203TIP3    H182100   0.316   4.064   2.833 -0.2632  0.2183 -0.3004
20203TIP3    H282101   0.283   3.960   2.938 -1.4904 -1.0200 -1.8751
20204TIP3   OH282102   5.739   0.934   5.192  0.1815 -0.1656  0.0006
20204TIP3    H182103   5.673   0.986   5.237  0.1514  0.3790 -0.6623
20204TIP3    H282104   5.818   0.987   5.195 -0.0402  0.2810 -1.3434
20205TIP3   OH282105   4.989   5.374  11.897  0.3553 -0.4564  0.5028
20205TIP3    H182106   4.943   5.456  11.916  0.3936 -0.1859 -0.5097
20205TIP3    H282107   4.952   5.311  11.958 -3.3906 -0.9490 -1.9734
20206TIP3   OH282108   0.247   1.252  14.241  0.1142 -0.1863 -0.7682
20206TIP3    H182109   0.225   1.322  14.180 -0.3646 -1.8296 -2.5603
20206TIP3    H282110   0.177   1.254  14.307  1.3784  2.5064  0.6650
20207TIP3   OH282111   6.106   0.313  15.797  0.2996 -0.0133 -0.0733
20207TIP3    H182112   6.072   0.388  15.844  0.0435  1.1652 -2.0249
20207TIP3    H282113   6.100   0.240  15.859 -2.0792  0.9684  0.9603
20208TIP3   OH282114   3.185   4.325  16.281  0.0891  0.0594  0.6719
20208TIP3    H182115   3.182   4.302  16.189 -0.3522  1.2463  0.3708
20208TIP3    H282116   3.111   4.277  16.320  1.0864 -1.5266  0.7057
20209TIP3   OH282117   4.812   3.686  14.281 -0.0928  0.6803 -0.0837
20209TIP3    H182118   4.757   3.727  14.214 -0.4544  0.2904 -0.0349
20209TIP3    H282119   4.798   3.592  14.269  0.4816  0.5840  0.0074
20210TIP3   OH282120   6.654   0.766   4.213  0.1189  0.4217 -0.2837
20210TIP3    H182121   6.700   0.838   4.171  0.1655  1.1136  0.9337
20210TIP3    H282122   6.650   0.789   4.305 -2.0711  0.0549 -0.2329
20211TIP3   OH282123   2.078   5.729   6.280  0.3618 -0.6004  0.6963
20211TIP3    H182124   2.012   5.765   6.221  0.6071  1.7143  1.7113
20211TIP3    H282125   2.076   5.635   6.264 -0.4419 -0.2034 -2.0575
20212TIP3   OH282126   6.402   4.483  12.511 -0.1408 -0.3796 -0.0487
20212TIP3    H182127   6.331   4.421  12.496  1.1460 -2.0039  0.1625
20212TIP3    H282128   6.482   4.431  12.495  0.9975  1.2207  0.2017
20213TIP3   OH282129   3.558   4.805   2.079  0.5023 -0.4056  0.4912
20213TIP3    H182130   3.512   4.783   1.998 -0.6601 -0.2869  1.0913
20213TIP3    H282131   3.649   4.781   2.063  0.3595 -0.0513 -0.9705
20214TIP3   OH282132   3.269   1.392   4.058  0.4866  0.5005 -0.0803
20214TIP3    H182133   3.178   1.377   4.035  0.9424 -0.9155 -1.0335
20214TIP3    H282134   3.268   1.477   4.102 -1.5645 -0.3095  1.6205
20215TIP3   OH282135   4.377   0.921   3.127 -0.0616 -0.0674  0.2697
20215TIP3    H182136   4.304   0.981   3.141  0.2248  0.0288  1.4433
20215TIP3    H282137   4.439   0.971   3.075 -0.8006 -0.1392 -0.7168
20216TIP3   OH282138   6.685   4.301   4.376  0.6590  0.1275  0.4701
20216TIP3    H182139   6.652   4.371   4.432  0.3600  1.3119 -1.1250
20216TIP3    H282140   6.742   4.346   4.313 -0.0788 -0.9397 -1.0149
20217TIP3   OH282141   1.979   1.512  12.388  0.8225 -0.3897 -0.2960
20217TIP3    H182142   2.056   1.510  12.445 -0.3805  0.3858  1.4429
20217TIP3    H282143   1.976   1.601  12.355  0.4122 -0.2773  0.0352
20218TIP3   OH282144   1.682   5.728   0.142  0.0023 -0.5574  0.2081
20218TIP3    H182145   1.702   5.821   0.142 -0.5964 -0.4161  1.4528
20218TIP3    H282146   1.724   5.693   0.220  1.6342 -1.6802 -1.0946
20219TIP3   OH282147   2.075   3.578  13.896  0.0954 -0.7200  0.0369
20219TIP3    H182148   2.017   3.537  13.960  0.3591 -0.0077  0.7421
20219TIP3    H282149   2.020   3.643  13.853  0.4331  0.1680  0.9173
20220TIP3   OH282150   3.738   2.851   4.028 -0.1845  0.3938  0.0010
20220TIP3    H182151   3.642   2.851   4.029 -0.2362  0.1270 -1.8019
20220TIP3    H282152   3.762   2.942   4.047 -0.7913  0.4959  0.3028
20221TIP3   OH282153   0.964   1.571   5.278  0.6101 -0.0374 -0.9613
20221TIP3    H182154   0.975   1.554   5.184  0.8817 -0.8084 -0.7906
20221TIP3    H282155   1.015   1.651   5.293  1.1558 -0.3109 -1.3274
20222TIP3   OH282156   5.745   2.654  16.983  0.0719  0.2101 -0.7017
20222TIP3    H182157   5.685   2.609  17.043 -0.8066  1.1258 -0.8744
20222TIP3    H282158   5.816   2.684  17.040  0.0276 -0.2767 -0.3798
20223TIP3   OH282159   0.770   6.504  12.266 -0.1281 -0.1876 -0.2294
20223TIP3    H182160   0.767   6.536  12.175 -1.5343 -0.3615 -0.2614
20223TIP3    H282161   0.829   6.429  12.263 -1.2739 -1.0922 -1.3221
20224TIP3   OH282162   6.428   3.911   1.918 -0.1438  0.5205 -0.1300
20224TIP3    H182163   6.347   3.946   1.881 -0.4545 -0.2330 -0.1771
20224TIP3    H282164   6.445   3.831   1.867 -0.2956 -0.2464  0.9858
20225TIP3   OH282165   2.570   4.196  12.319  0.0084 -0.4214  0.1786
20225TIP3    H182166   2.599   4.287  12.309  0.0464 -0.4932 -0.4058
20225TIP3    H282167   2.617   4.148  12.251  1.3017 -1.2052  1.5798
20226TIP3   OH282168   3.658   4.289  10.493  0.3715 -0.4397 -0.3331
20226TIP3    H182169   3.701   4.207  10.468 -0.0324 -0.5259 -0.7371
20226TIP3    H282170   3.729   4.341  10.532  0.3430 -1.5646  1.3739
20227TIP3   OH282171   2.171   2.104   3.697  0.0151  0.0782 -0.4721
20227TIP3    H182172   2.206   2.053   3.624  0.0036  0.7472 -0.9549
20227TIP3    H282173   2.131   2.181   3.656 -0.1413  0.3805  0.2250
20228TIP3   OH282174   6.315   2.625  13.204  0.4559  0.4011  0.4567
20228TIP3    H182175   6.356   2.591  13.283  1.7630 -1.6320 -0.9881
20228TIP3    H282176   6.230   2.581  13.200  0.9796 -0.6150  0.0474
20229TIP3   OH282177   0.916   2.008  11.452  0.0257  0.4422  0.2653
20229TIP3    H182178   0.859   2.010  11.375 -1.9867  0.8474  1.6677
20229TIP3    H282179   0.987   2.069  11.430  0.1612 -0.3330 -1.6816
20230TIP3   OH282180   3.629   4.550   0.038  0.2038  0.0643 -0.6576
20230TIP3    H182181   3.614   4.643   0.059 -0.9438  0.1442 -1.7113
20230TIP3    H282182   3.568   4.532  -0.034  0.4154 -1.5129 -0.4680
20231TIP3   OH282183   1.785   2.781  13.129  0.1976  0.4902 -0.3164
20231TIP3    H182184   1.834   2.699  13.124  1.6837  1.3787 -0.8231
20231TIP3    H282185   1.752   2.795  13.040 -1.1350 -0.1482  0.0378
20232TIP3   OH282186   1.787   1.602  12.591 -0.1659 -0.6914  0.1122
20232TIP3    H182187   1.813   1.572  12.679  0.1033  1.2939  0.7663
20232TIP3    H282188   1.867   1.596  12.539  0.5351  1.1876  0.9134
20233TIP3   OH282189   2.036   6.491   5.495  0.7384 -0.3610  0.0864
20233TIP3    H182190   2.048   6.553   5.567  0.9156  0.9270 -0.9979
20233TIP3    H282191   1.989   6.541   5.428  0.3192 -1.6100 -0.5753
20234TIP3   OH282192   6.184   5.555   4.787  0.2926  0.4314 -0.0756
20234TIP3    H182193   6.182   5.650   4.798  1.3649  0.3769  0.8200
20234TIP3    H282194   6.277   5.534   4.780  0.0311 -0.4730 -1.2177
20235TIP3   OH282195   3.690   0.217  11.258  0.5929 -0.2117  0.3031
20235TIP3    H182196   3.741   0.169  11.193 -1.1088 -1.8696  0.1183
20235TIP3    H282197   3.615   0.251  11.211  1.5893  2.5516  0.4934
20236TIP3   OH282198   3.008   2.597  15.660 -0.1602 -0.0344 -0.1630
20236TIP3    H182199   3.022   2.691  15.668 -0.6869  0.1645 -1.3798
20236TIP3    H282200   2.941   2.577  15.726 -0.2951  0.5012 -0.1334
20237TIP3   OH282201   1.516   5.901  14.495  0.5032  0.0033  0.0324
20237TIP3    H182202   1.589   5.958  14.519  1.1781  0.4088 -2.6243
20237TIP3    H282203   1.490   5.931  14.407 -0.3595 -2.5476 -0.6821
20238TIP3   OH282204   5.692   1.116   2.281  0.0107  0.3186  0.2968
20238TIP3    H182205   5.693   1.212   2.286  0.5120  0.2500  1.7509
20238TIP3    H282206   5.670   1.087   2.370  1.7145 -0.9512  0.3399
20239TIP3   OH282207   0.063   1.433   1.692 -0.3411  0.1787 -0.0627
20239TIP3    H182208   0.113   1.504   1.733  0.2423 -0.2348 -0.0573
20239TIP3    H282209   0.037   1.377   1.765  0.1591 -0.2170 -0.1845
20240TIP3   OH282210   2.240   0.611   2.003  0.5042 -0.6928 -0.1470
20240TIP3    H182211   2.174   0.668   2.043  0.1956 -0.8458 -0.4342
20240TIP3    H282212   2.210   0.522   2.024  0.6014 -0.7635 -0.3110
20241TIP3   OH282213   0.725   0.755   5.693 -0.0226 -0.4309 -0.2478
20241TIP3    H182214   0.666   0.693   5.649  0.1016 -1.4124  0.9111
20241TIP3    H282215   0.717   0.835   5.642 -0.1609 -1.4044 -1.8224
20242TIP3   OH282216   0.031   6.093   2.937 -0.0635 -0.6326 -0.5433
20242TIP3    H182217   0.120   6.129   2.934 -0.7315  1.1392 -0.4171
20242TIP3    H282218  -0.025   6.168   2.921 -1.5936 -1.5011  0.5033
20243TIP3   OH282219   1.215   0.218   4.698 -0.0393  0.3116  0.1490
20243TIP3    H182220   1.190   0.201   4.608 -0.6930 -1.0104  0.5593
20243TIP3    H282221   1.298   0.266   4.691  0.3803 -0.5462 -1.1419
20244TIP3   OH282222   6.329   3.956   5.394 -0.2339 -0.6175 -0.5570
20244TIP3    H182223   6.407   3.994   5.353 -0.1353  0.0867  0.2588
20244TIP3    H282224   6.270   3.938   5.321  0.7438 -1.3010 -1.1977
20245TIP3   OH282225   5.675   0.012   1.223  0.7450 -0.1231  0.0077
20245TIP3    H182226   5.597  -0.014   1.175  0.2814 -0.6047  0.9903
20245TIP3    H282227   5.662   0.105   1.240 -0.0384 -0.3756  0.8959
20246TIP3   OH282228   4.452   5.029   0.883  0.1096  0.5201 -0.1992
20246TIP3    H182229   4.520   4.994   0.825  0.0253 -1.1461  0.6431
20246TIP3    H282230   4.490   5.022   0.971 -0.2741  1.7611  0.0800
20247TIP3   OH282231   1.254   1.545   4.085  0.0910  0.0156  0.8537
20247TIP3    H182232   1.301   1.574   4.007  0.2102  1.6921  1.5186
20247TIP3    H282233   1.180   1.495   4.051  1.7274 -1.8383 -0.2460
20248TIP3   OH282234   2.445   4.556   2.870 -0.8031  0.3188  0.0340
20248TIP3    H182235   2.526   4.516   2.901 -0.3469  2.3722  1.7400
20248TIP3    H282236   2.461   4.572   2.776 -0.7750 -2.7046 -0.5648
20249TIP3   OH282237   2.194   6.353   2.482  0.1756 -0.2874 -0.3965
20249TIP3    H182238   2.164   6.364   2.392 -1.8320 -0.4903  0.1960
20249TIP3    H282239   2.180   6.438   2.523  0.5413 -0.3593 -0.1123
20250TIP3   OH282240   4.369   6.391   1.718  0.0777  0.3551  0.0563
20250TIP3    H182241   4.376   6.363   1.810  1.6790  0.7827  0.1017
20250TIP3    H282242   4.423   6.470   1.713  3.0666 -1.5865 -1.9754
20251TIP3   OH282243   1.971   2.062   0.297  0.0510 -0.4021 -0.3831
20251TIP3    H182244   1.933   2.047   0.384 -0.1967  1.6751 -0.0920
20251TIP3    H282245   1.902   2.037   0.236 -0.3969 -0.2663  0.0594
20252TIP3   OH282246   6.113   1.997  15.769  0.6055 -0.0936  0.1064
20252TIP3    H182247   6.182   1.963  15.827  0.5860 -2.7862 -1.2883
20252TIP3    H282248   6.160   2.026  15.691  0.2905 -1.2828 -0.5589
20253TIP3   OH282249   3.949   2.847   3.854 -0.1428 -0.3556 -0.2478
20253TIP3    H182250   3.943   2.942   3.863 -1.2225 -0.4734  0.5963
20253TIP3    H282251   3.890   2.813   3.922  0.1452 -1.6239 -0.6018
20254TIP3   OH282252   1.613   1.142  13.378 -0.0062  0.4208  0.2195
20254TIP3    H182253   1.651   1.200  13.443 -1.3934  0.1987  1.2702
20254TIP3    H282254   1.648   1.173  13.294  0.3387  1.8919  0.8838
20255TIP3   OH282255   2.651   2.547  16.794  0.0808 -0.1325  0.1428
20255TIP3    H182256   2.705   2.626  16.789 -0.0275  0.4047  4.1789
20255TIP3    H282257   2.566   2.578  16.822 -0.1886 -1.6161  1.0743
20256TIP3   OH282258   1.335   0.716  13.595  0.1869  0.7151  0.3854
20256TIP3    H182259   1.377   0.800  13.575 -1.7851  1.4880 -0.8153
20256TIP3    H282260   1.404   0.651  13.582  0.8173  1.8220 -2.4801
20257TIP3   OH282261   1.140   0.220   4.063 -0.1079 -0.4201 -0.4558
20257TIP3    H182262   1.110   0.142   4.110 -2.1648  0.8599  0.4876
20257TIP3    H282263   1.201   0.262   4.123 -0.6174 -0.2319 -0.0568
20258TIP3   OH282264   6.810   4.929  16.506  0.5987 -0.1847  0.6904
20258TIP3    H182265   6.860   5.010  16.509  1.2157 -0.5657  0.9697
20258TIP3    H282266   6.824   4.888  16.592  0.5537 -0.7318  0.4465
20259TIP3   OH282267   0.207   2.198   2.810 -0.3966 -0.3159  0.6167
20259TIP3    H182268   0.237   2.109   2.831  2.3562 -0.0572 -1.5700
20259TIP3    H282269   0.187   2.237   2.895  0.3136 -2.3740  1.8076
20260LIG      S82270   3.716   3.618  16.593 -0.0935  0.1301  0.0751
20260LIG     F182271   3.787   3.022  16.608  0.2239 -0.3626  0.3966
20260LIG     F282272   3.641   2.996  16.463 -0.1409  0.1660  0.0522
20260LIG     F382273   3.821   3.108  16.418 -0.1004 -0.0317 -0.1701
20260LIG     N182274   3.425   3.577  16.620 -0.2293  0.2554  0.3061
20260LIG     N282275   3.293   3.307  16.565  0.3882  0.0464  0.2234
20260LIG     C182276   3.309   3.599  16.702  0.2272  0.3673  0.0344
20260LIG     C282277   3.494   3.451  16.599 -0.3966  0.4753 -0.5174
20260LIG     C382278   3.349   3.710  16.813 -0.3320  0.3373 -0.0102
20260LIG     C482279   3.462   3.667  16.514 -0.2421 -1.0380  0.3899
20260LIG     C582280   3.644   3.452  16.591  0.4475  0.3613 -0.3043
20260LIG     C682281   3.598   3.704  16.494  0.2137 -0.4773  0.2596
20260LIG     C782282   3.432   3.330  16.572  0.1423 -0.5548 -0.3506
20260LIG     C882283   3.437   3.661  16.925  0.2602  0.7841 -0.0509
20260LIG     C982284   3.714   3.335  16.579 -0.9888 -0.0067 -0.0616
20260LIG    C1082285   3.650   3.216  16.551 -0.2222  0.3869  0.5111
20260LIG    C1182286   3.362   3.736  16.430 -0.1560  0.0493 -0.4772
20260LIG    C1282287   3.511   3.217  16.551  0.1857  0.4366 -0.2099
20260LIG    C1382288   3.637   3.808  16.407 -0.2106 -0.1874  0.2275
20260LIG    C1482289   3.403   3.531  17.000 -0.7407  0.0204  0.0723
20260LIG    C1582290   3.400   3.842  16.345 -0.7484  0.5903  0.3100
20260LIG    C1682291   3.535   3.869  16.330 -0.3013 -0.4237 -0.1342
20260LIG    C1782292   3.733   3.088  16.509 -0.6018 -0.0534 -0.9071
20260LIG     H182293   3.261   3.516  16.758 -0.1498 -0.1518 -1.0486
20260LIG     H282294   3.226   3.636  16.638 -1.6777  0.5378  2.4334
20260LIG     H382295   3.255   3.738  16.866  0.4832  2.6493  0.2936
20260LIG     H482296   3.387   3.803  16.767 -0.2817  0.2142 -0.2140
20260LIG     H582297   3.465   3.739  17.000 -3.8827  1.2594  1.2787
20260LIG     H682298   3.538   3.654  16.879  0.3793  0.7537  0.2067
20260LIG     H782299   3.822   3.341  16.580 -1.0073  0.1853  0.7179
20260LIG     H882300   3.258   3.707  16.439 -0.4988  1.2027 -0.6589
20260LIG     H982301   3.462   3.122  16.536  0.1273  0.4149  0.1114
20260LIG    H1082302   3.741   3.830  16.389 -0.2667  0.9291  1.1969
20260LIG    H1182303   3.481   3.534  17.079 -0.9630  1.6202  0.2810
20260LIG    H1282304   3.412   3.431  16.952 -0.8067  0.2509 -0.4319
20260LIG    H1382305   3.306   3.529  17.054 -1.3076 -0.3878 -0.9385
20260LIG    H1482306   3.337   3.893  16.274  2.4376  1.6765 -1.9868
20260LIG    H1582307   3.575   3.948  16.268  0.3464  0.1600  0.9998
20260LIG    H1682308   3.245   3.388  16.599  1.0461  1.2456 -1.5285
20260LIG    H1782309   3.265   3.213  16.581  1.0653 -0.2463 -0.2662
   6.81618   6.81618  17.25992
